63
 energy: -142.047242526637 gnorm: 0.134690595926 xtb: 6.4.1 (a3dbbd7)
C        -1.32333194775417    0.00617886347970    3.59125188963251
C        -0.38909456310608   -1.27772716531095    3.58793274117145
C         0.98734837171535   -0.72675165446744    3.28582848483634
C         0.97037352147027    0.69420630050098    3.25749094477592
C        -0.37633960723915    1.14742685553706    3.29074190055216
C         2.33092254703306   -2.58746567485154    0.56610397604514
C         3.16875994483946   -1.41579758165486    0.56774606192583
C         2.91978889080344   -0.69314490348597    1.79074016083681
C         1.93018806170321   -1.40549148670748    2.54814074589443
C         1.57476788296703   -2.59634073810083    1.79100274817011
C         3.18328087896891    1.41909085132624    0.57258499213333
C         2.33432229320876    2.58580968143883    0.57559918777772
C         1.57332139543398    2.57095369604789    1.79851755002390
C         1.94352282881158    1.40414426944103    2.54285112768194
C         2.93804115459266    0.69543633516321    1.79366637265872
C        -0.36752716666001    3.44413435035873    0.58029879258012
C        -1.74013210357057    3.00741588983283    0.58054459941955
C        -1.97818665379860    2.28654468588757    1.80361199533287
C        -0.73393250395930    2.25581684802015    2.55761528373596
C         0.24647420110131    2.98080949443068    1.80023381740862
C        -3.39591089216029    0.72883802558845    0.57533866561121
C        -3.37932885665645   -0.70504006359254    0.57786353554246
C        -2.74934612856665   -1.12865052488571    1.82052481704193
C        -2.40026274086307   -0.01382700939334    2.55826017594831
C        -2.77435746218519    1.16021035149421    1.80187148511327
C        -1.70577977915925   -3.00504292266898    0.57191390059864
C        -0.34657433486683   -3.46193150719564    0.56452064530943
C         0.25810980605866   -3.00738238851431    1.79111395103090
C        -0.74203335365356   -2.29289841924391    2.55243835495534
C        -1.91196172287597   -2.27950749485726    1.81757326885181
C        -0.23558165862281   -3.01371296632646   -1.83961821271520
C         0.75175047781152   -2.28700579367404   -2.59867644532734
C         1.98089777627659   -2.28868303835222   -1.84308617931945
C         1.74918768154887   -3.01946296828987   -0.62050040464920
C         0.38088379041600   -3.46658963937948   -0.62079308111870
C         2.79204993046375   -1.16413556659148   -1.83875967224219
C         2.41002754086118    0.00666527739579   -2.59106683151125
C         2.78807241943814    1.16926264052202   -1.83130610074559
C         3.40298548527550    0.72369088805355   -0.60835037131266
C         3.40110069057525   -0.71955382898331   -0.60923004493565
C         1.96912615256614    2.29475463280888   -1.82840259178522
C         0.74474441569639    2.29528025280401   -2.58515694980539
C        -0.24988429155059    3.01642431380723   -1.82795956514323
C         0.36353023978106    3.45499162487799   -0.59844520421847
C         1.73735095077191    3.01278425815446   -0.60243935985793
C        -1.56944867307335    2.59059487249377   -1.83048045584010
C        -1.94787757007795    1.42311330884846   -2.58910001301826
C        -2.94122296022124    0.70465889669871   -1.83002690890673
C        -3.17947337159538    1.42642572884929   -0.60816005298080
C        -2.33307692209202    2.59081264516620   -0.60600270171083
C        -2.93172079240255   -0.68656028280689   -1.82266620418654
C        -1.94059925011627   -1.40887980593779   -2.58138532694875
C        -1.55636984787224   -2.57670213587000   -1.82754179967090
C        -2.29848528094837   -2.57416283302738   -0.59738768824741
C        -3.15456863482430   -1.39758782868201   -0.59434922362650
C        -0.98936986995949   -0.71482485845558   -3.31408037280858
C        -0.99159024528376    0.72723605185279   -3.31429029098428
C         0.38014149579772    1.17201579903766   -3.31523274930469
C         1.22728121177112    0.00778684511203   -3.31823795360647
C         0.38205649969615   -1.16057927312445   -3.31917058806611
Cl       -2.09995733548554    0.29360223981566    5.20530702406437
Cl       -0.35034641589922   -2.11046483688082    5.19906768498811
Cl        1.47767334434231    1.05887379768003    4.95624475454800
63
 energy: -142.072935951645 gnorm: 0.057311194826 xtb: 6.4.1 (a3dbbd7)
C        -1.32804385322483    0.00331033380050    3.58710239286558
C        -0.39328150955140   -1.28132027711607    3.58378827547577
C         0.98195511618559   -0.73973528332194    3.27492540816696
C         1.00400497307551    0.71840461754196    3.35911853520193
C        -0.39038871255788    1.14631348117900    3.27985915874042
C         2.32819881343736   -2.58765464810360    0.56469995363110
C         3.16689205112840   -1.41420545389898    0.56621540837264
C         2.91903890685638   -0.69192513494486    1.78281467057883
C         1.91761855421593   -1.40587060331236    2.53519831394714
C         1.57192901296120   -2.60393761588858    1.78795198376745
C         3.18843704485411    1.42367983567274    0.56042317939435
C         2.34024880333500    2.58934499160639    0.56343412403972
C         1.57638916370569    2.56762156118678    1.78486263073254
C         1.96302085654664    1.41834337854633    2.53622983795628
C         2.93577449427616    0.69942610328278    1.78003380735943
C        -0.36659253449714    3.44188236939699    0.57876198196790
C        -1.74115504477713    3.00488913558167    0.57914247934260
C        -1.98630144549383    2.28618206447253    1.80058518003838
C        -0.73818179455396    2.24400663349773    2.54464325233186
C         0.24738398824871    2.97974447376044    1.79230567488168
C        -3.39948152397121    0.72739282748469    0.57330473625990
C        -3.38239781046340   -0.70640564324474    0.57578885377456
C        -2.75254084527538   -1.13090112785727    1.81794246628290
C        -2.40576153595467   -0.01577378011637    2.55538011258202
C        -2.78142909661577    1.15899402609394    1.79984795961925
C        -1.70801926545663   -3.00752452356559    0.56984055344059
C        -0.34903727841089   -3.46487360703241    0.56247872651957
C         0.25478921278312   -3.01372825891618    1.78907557159601
C        -0.74556796478194   -2.29746889251264    2.54952136447393
C        -1.91509140793298   -2.28183066214247    1.81498158564316
C        -0.23592479162681   -3.01390916082000   -1.84064148539899
C         0.75181622750227   -2.28691087437389   -2.59960455297703
C         1.98011447620211   -2.28862968992515   -1.84467821435981
C         1.74745846861593   -3.01987174857047   -0.62178539636939
C         0.37992932837726   -3.46778879677771   -0.62249975720962
C         2.79197987266575   -1.16361229673775   -1.84068672194472
C         2.41008288005769    0.00666055990408   -2.59513056273806
C         2.78920816979201    1.17007051536393   -1.83827444324158
C         3.40682929771309    0.72447358106470   -0.61710122356705
C         3.40334720751753   -0.71845658731452   -0.61439812875222
C         1.97022594908592    2.29560746170072   -1.83536919030935
C         0.74474622745297    2.29534603509224   -2.58921931200282
C        -0.24941574691513    3.01619996213827   -1.82988823067243
C         0.36525140180652    3.45681464529119   -0.60361076940011
C         1.73925656154213    3.01622887303121   -0.61118177350630
C        -1.56964689470206    2.58983495383785   -1.83207586828927
C        -1.94776505057952    1.42314170699142   -2.59002530779783
C        -2.94151462215442    0.70439715121523   -1.83104445509847
C        -3.18091129893917    1.42589248855918   -0.60986150135489
C        -2.33399644921336    2.58929488424722   -0.60729232731800
C        -2.93185786808110   -0.68690562457157   -1.82391915301118
C        -1.94109893760702   -1.40923675944395   -2.58238732744348
C        -1.55675091809996   -2.57672071602266   -1.82879772492702
C        -2.29979100041139   -2.57505500684750   -0.59908807639220
C        -3.15583909630206   -1.39855981579498   -0.59605081853775
C        -0.98908064351656   -0.71461165370617   -3.31542190877434
C        -0.99167367303080    0.72680064350872   -3.31586440204113
C         0.37990650203004    1.17184032049088   -3.31792459371967
C         1.22703781470645    0.00762340856940   -3.32093137790506
C         0.38161608011113   -1.16052153724841   -3.32074103309737
Cl       -2.10512956421565    0.29301975537365    5.20239563827245
Cl       -0.35254654338193   -2.11521079242052    5.19617556371698
Cl        1.51613621020442    1.08645917427852    5.10930454878607
63
 energy: -142.080022627099 gnorm: 0.013231393223 xtb: 6.4.1 (a3dbbd7)
C        -1.32491934978125    0.00305300965002    3.57788370957446
C        -0.39259233758797   -1.27823685905809    3.57457003199910
C         0.98131740890186   -0.73639963698516    3.27623030098470
C         1.03732726737358    0.74238765976355    3.45658572191494
C        -0.38741209160109    1.14465569772798    3.28112767596164
C         2.32199575194389   -2.58317484090181    0.56257651163362
C         3.16078468276232   -1.40841174098006    0.56615824787955
C         2.91951148046277   -0.68802761281230    1.78045870997921
C         1.90414046802587   -1.39450912088413    2.53178010131275
C         1.56264179334307   -2.59541070846335    1.78221712444638
C         3.18645553186450    1.42379132485516    0.55565293887628
C         2.33973589726249    2.58744032640180    0.55865850230476
C         1.57861719159811    2.56179677440967    1.78367227155238
C         1.97074445592360    1.42395433365866    2.53737745174798
C         2.93091001564691    0.70334144693745    1.77887177262857
C        -0.36296179617234    3.43429380418808    0.57867264173313
C        -1.73880911741915    2.99761436477568    0.57699578353420
C        -1.98106910525079    2.27473673955571    1.79480399236855
C        -0.73151627398894    2.22768230751481    2.54114514345856
C         0.25123311798500    2.97899856030764    1.78993799192697
C        -3.40410954596512    0.72468171460913    0.56988084922667
C        -3.38650343250672   -0.70926208603166    0.57165382045431
C        -2.75775714044776   -1.13469684371223    1.81478002890799
C        -2.40825749674688   -0.02054213284615    2.55174231480857
C        -2.78271010942452    1.15303102944143    1.79514198572923
C        -1.71200562778649   -3.01053207361828    0.56570840352829
C        -0.35303781338406   -3.46842706417536    0.55904938594008
C         0.24872174077233   -3.01309240780768    1.78438400527596
C        -0.75086922501033   -2.29831903383361    2.54586585225368
C        -1.92031568961187   -2.28560642341084    1.81181189961859
C        -0.23735631276071   -3.01441443519132   -1.84370657206829
C         0.75082444438112   -2.28690887014908   -2.60235502411656
C         1.97816489295404   -2.28856524011153   -1.84777129318362
C         1.74446348390126   -3.01916424240504   -0.62399456759727
C         0.37763053408353   -3.46892290172605   -0.62568579659633
C         2.79057841028757   -1.16309792962106   -1.84324321253222
C         2.40954387278724    0.00675717913632   -2.60033384518118
C         2.79013443651658    1.17075927556276   -1.84507957117538
C         3.40586947815005    0.72476386213766   -0.62235125486106
C         3.40258045878476   -0.71705745611428   -0.61916507266112
C         1.97114728344680    2.29629896147698   -1.84217269672384
C         0.74465759383437    2.29482012602882   -2.59442256478735
C        -0.24936684180373    3.01471465580483   -1.83244877767067
C         0.36633290487775    3.45567342875781   -0.60838308040368
C         1.73922308359507    3.01524344443160   -0.61643355281960
C        -1.57019651129609    2.58796709166679   -1.83517289633247
C        -1.94807223824726    1.42219945356802   -2.59277407201060
C        -2.94244109380138    0.70319914516813   -1.83410445953897
C        -3.18270554997301    1.42406604444457   -0.61304554819098
C        -2.33424790214748    2.58623160521218   -0.60951134835728
C        -2.93308924256876   -0.68805820884747   -1.82768621199759
C        -1.94218594285221   -1.41001747315878   -2.58559386779418
C        -1.55823823216405   -2.57752535585491   -1.83256709741393
C        -2.30236288981897   -2.57690032482674   -0.60332150559976
C        -3.15840379948369   -1.40043490939222   -0.60028359843282
C        -0.98949203469983   -0.71490291167900   -3.31895527957637
C        -0.99238329260736    0.72581276996959   -3.31973348273541
C         0.37921117131065    1.17136222726773   -3.32257824175953
C         1.22635854071847    0.00712351874519   -3.32558631780323
C         0.38045103260484   -1.16088087751732   -3.32460769004730
Cl       -2.09741098743583    0.28420759305147    5.19763567466492
Cl       -0.35864442125509   -2.10517076679681    5.19146473650173
Cl        1.55454396419736    1.11409639389866    5.23121120884362
63
 energy: -142.080378628798 gnorm: 0.008216592077 xtb: 6.4.1 (a3dbbd7)
C        -1.32354755107139    0.00419231410009    3.57850416566129
C        -0.39108721933771   -1.27728709728026    3.57518863180951
C         0.98410537084407   -0.73145066263080    3.28620737080584
C         1.04584113789934    0.74850158995856    3.48633316596300
C        -0.38181850959067    1.14574377726926    3.29108136734693
C         2.31764529782072   -2.57841205667251    0.56120179133473
C         3.15804459680879   -1.40508749722998    0.56602917582147
C         2.92075298339675   -0.68648405587915    1.78098267253335
C         1.90092316900693   -1.38829582971105    2.53436388372469
C         1.55708922776372   -2.58677014102885    1.77913984420386
C         3.18356409043558    1.42247494480427    0.55623329568764
C         2.33759533472489    2.58509212554169    0.55923686691477
C         1.57958151258156    2.55985935089366    1.78800609273723
C         1.96978438306685    1.42323849620206    2.54322946299796
C         2.92937331380139    0.70483968754724    1.78321429286964
C        -0.36064420765916    3.43066260335182    0.57852625361371
C        -1.73562110587252    2.99201105510713    0.57559668179924
C        -1.97456666159452    2.26680288567270    1.79168521506125
C        -0.72658529103454    2.22269593578310    2.54369654600655
C         0.25308589594038    2.97969975686411    1.79045855308890
C        -3.40511826378515    0.72285472022585    0.56815864654298
C        -3.38823229721186   -0.71111825635155    0.57027266641590
C        -2.75956601928271   -1.13616738273148    1.81426527819461
C        -2.40619370059650   -0.02231019016616    2.55045611706264
C        -2.78063878047917    1.14958928974579    1.79258653820726
C        -1.71430607585101   -3.01160143497255    0.56432857193843
C        -0.35508778439958   -3.46881652986849    0.55732849816125
C         0.24608107033289   -3.01005054027548    1.78184176590355
C        -0.75191573328126   -2.29579737426065    2.54458255965810
C        -1.92227183324523   -2.28687178802551    1.81129446132383
C        -0.23863461217377   -3.01477802778266   -1.84582255513813
C         0.74987470163122   -2.28704767783726   -2.60441149904396
C         1.97687289496021   -2.28833194600152   -1.84976783572664
C         1.74220549496488   -3.01742921518597   -0.62527866506378
C         0.37583498770839   -3.46848871803475   -0.62748468207268
C         2.78956887998769   -1.16281826962782   -1.84461981052043
C         2.40932896179739    0.00689402911691   -2.60272577805525
C         2.79022384430468    1.17092747480947   -1.84712162254561
C         3.40414918049036    0.72506352574588   -0.62306585459659
C         3.40132511968227   -0.71632818183530   -0.62091758280570
C         1.97132795686944    2.29634004631233   -1.84421415200919
C         0.74471387534088    2.29458174641918   -2.59681430848111
C        -0.24941660544523    3.01367194312955   -1.83382742421087
C         0.36663438653021    3.45425988994469   -0.61013993666893
C         1.73897561049703    3.01351748987059   -0.61715239197356
C        -1.57037856511593    2.58667088566123   -1.83717105871450
C        -1.94850194439758    1.42134283404494   -2.59482969473298
C        -2.94318582964073    0.70209925934674   -1.83621902283618
C        -3.18285037471712    1.42222889982830   -0.61484764447816
C        -2.33329634303520    2.58355129969903   -0.61080509907983
C        -2.93430033742144   -0.68919138244420   -1.82972488336184
C        -1.94308375034019   -1.41066618861793   -2.58754730327002
C        -1.55969195814705   -2.57832306949304   -1.83460625300189
C        -2.30420534481729   -2.57825710507929   -0.60522539970191
C        -3.16026555513356   -1.40176756145920   -0.60218585893835
C        -0.99008598760994   -0.71533004185432   -3.32114699091785
C        -0.99286762595867    0.72526305880302   -3.32229653035229
C         0.37889441214432    1.17125106177496   -3.32521452883272
C         1.22614871005718    0.00686610656911   -3.32822346888923
C         0.37977353517710   -1.16116355317621   -3.32717102966229
Cl       -2.11127530486175    0.30459925085004    5.18888185433010
Cl       -0.34359786743654   -2.12463750071845    5.18260089210058
Cl        1.56792804867490    1.12377732245265    5.25770397746449
63
 energy: -142.080394271402 gnorm: 0.005982948209 xtb: 6.4.1 (a3dbbd7)
C        -1.31979124679898    0.00390266099771    3.57416914592870
C        -0.39022227890487   -1.27360903147341    3.57086036464674
C         0.98769019859959   -0.72613040049752    3.29292237170003
C         1.05216826049376    0.75306006924732    3.50335617407719
C        -0.37563487076081    1.14749089080564    3.29777359652821
C         2.31448508120905   -2.57442522321418    0.56032114940910
C         3.15697843696049   -1.40285373969083    0.56564822509836
C         2.92310769337392   -0.68550506213919    1.78088417958886
C         1.89990342869560   -1.38349119279806    2.53618060819983
C         1.55289647908427   -2.57970458739729    1.77694488124315
C         3.18178274342332    1.42169671892888    0.55604982229374
C         2.33630600964534    2.58363815803849    0.55905169760784
C         1.58087545717549    2.55946386971683    1.79088392631436
C         1.96912200152145    1.42274828456723    2.54632365026575
C         2.92940007645242    0.70618308996533    1.78609688280061
C        -0.35884914821353    3.42896245895890    0.57813302259924
C        -1.73280340450860    2.98777942723100    0.57469378341404
C        -1.96914181367360    2.26064776766742    1.78945490180513
C        -0.72232199720996    2.22024149500472    2.54549034399973
C         0.25474226317052    2.98163976074474    1.79035970539621
C        -3.40610881546383    0.72175637229084    0.56702757988577
C        -3.39009064608546   -0.71235771501557    0.56907037051885
C        -2.76123882433355   -1.13735895329958    1.81318808677141
C        -2.40528397759277   -0.02387329758033    2.54907994985918
C        -2.77973341653381    1.14749688279346    1.79123318436853
C        -1.71606102715134   -3.01298342029861    0.56312584289540
C        -0.35643996222054   -3.46941502539162    0.55619836508174
C         0.24436581209670   -3.00853708252762    1.78049562347141
C        -0.75312439525648   -2.29443554068359    2.54320499426910
C        -1.92392464963391   -2.28809192019836    1.81021570096889
C        -0.23937929526954   -3.01512257619537   -1.84718914863599
C         0.74937209043462   -2.28722079919253   -2.60572540705273
C         1.97616430261955   -2.28826215330105   -1.85108583399187
C         1.74077485034311   -3.01607652894874   -0.62596993721803
C         0.37470925422614   -3.46806267137229   -0.62857639015595
C         2.78911178033200   -1.16273890512518   -1.84567755782741
C         2.40937598278120    0.00692715873032   -2.60443150422373
C         2.79039290688874    1.17108958261870   -1.84862871582780
C         3.40337531801557    0.72539679961711   -0.62392603608074
C         3.40085809577285   -0.71593636944847   -0.62242975495832
C         1.97152975636216    2.29645653719974   -1.84572134122281
C         0.74475514312577    2.29462136510034   -2.59852040897606
C        -0.24948492330158    3.01321585398233   -1.83488805428425
C         0.36685884331940    3.45370036453304   -0.61165603216496
C         1.73905152911279    3.01268272495594   -0.61801606678076
C        -1.57053366599785    2.58597856709360   -1.83849179297457
C        -1.94882405821665    1.42092035256485   -2.59614417728856
C        -2.94374563836273    0.70149970397749   -1.83758536931347
C        -3.18279430118441    1.42103042882847   -0.61594353938194
C        -2.33245249497536    2.58177572614025   -0.61150576646346
C        -2.93516300045436   -0.68988532892911   -1.83110861169121
C        -1.94358360453270   -1.41102756077044   -2.58872811118394
C        -1.56061981333662   -2.57892662475182   -1.83599001313985
C        -2.30561655405348   -2.57943292688918   -0.60671449326912
C        -3.16182098202311   -1.40274423822333   -0.60367345440322
C        -0.99038244723725   -0.71554388148205   -3.32240273121693
C        -0.99316829861448    0.72500083479041   -3.32386457374876
C         0.37872315626795    1.17128358243518   -3.32692587713302
C         1.22612355003550    0.00669822335046   -3.32993500031304
C         0.37942889188552   -1.16136471329185   -3.32873895200388
Cl       -2.09671139956938    0.26798595388260    5.19659036911453
Cl       -0.37397781913053   -2.09959845690032    5.19044583345722
Cl        1.57900832187435    1.13182964148173    5.26735861095029
63
 energy: -142.080535942139 gnorm: 0.003834094035 xtb: 6.4.1 (a3dbbd7)
C        -1.32156895128868    0.00382988399414    3.57588986399681
C        -0.39083293433813   -1.27528459973103    3.57257718531165
C         0.98621854976211   -0.72778504967714    3.28977720816588
C         1.04847801892188    0.75039835002450    3.49460266099301
C        -0.37766879770780    1.14661099161846    3.29463097823997
C         2.31579969850169   -2.57579307128209    0.56070205172870
C         3.15818335061785   -1.40409730423470    0.56581355124714
C         2.92288952628955   -0.68641388316054    1.78063537426391
C         1.90018531908110   -1.38519992788324    2.53485739267992
C         1.55428409487595   -2.58194402147535    1.77752063072419
C         3.18208830814027    1.42174328572572    0.55640300340524
C         2.33644503006034    2.58391364438299    0.55940560877164
C         1.58005486759529    2.55955436956339    1.79023261340953
C         1.96764271669234    1.42167668644937    2.54461853705809
C         2.92923203545271    0.70537664681041    1.78544268700716
C        -0.35966092606538    3.43049087457911    0.57830579954873
C        -1.73369890718970    2.98944955327840    0.57508257281101
C        -1.97084288324078    2.26265421632700    1.79004150087239
C        -0.72386479692675    2.22104150055107    2.54417525008965
C         0.25380977474315    2.98171331859456    1.79011400582072
C        -3.40585477344204    0.72230075866881    0.56761514689339
C        -3.38952202225059   -0.71181415912247    0.57006197001327
C        -2.76068785777263   -1.13685656697754    1.81406656669640
C        -2.40542857677718   -0.02292710313111    2.54955953390928
C        -2.78029908910852    1.14865255636536    1.79186218227490
C        -1.71536646975040   -3.01261426926824    0.56411640367521
C        -0.35584279988408   -3.46934421991857    0.55678416448789
C         0.24529290181479   -3.00943411479201    1.78111852386718
C        -0.75226729270596   -2.29486958259585    2.54368179687559
C        -1.92327440909978   -2.28772652936883    1.81109386223349
C        -0.23895828196829   -3.01506793671873   -1.84631656149403
C         0.74974611021366   -2.28722723591997   -2.60485915835605
C         1.97669892733047   -2.28845120443077   -1.85035081317315
C         1.74159854619897   -3.01679609878068   -0.62550504044122
C         0.37526697720616   -3.46818883899580   -0.62788425405220
C         2.78960273966818   -1.16291577341058   -1.84499100583758
C         2.40956204994938    0.00690124474448   -2.60325852446260
C         2.79035717075642    1.17102937443438   -1.84738130288263
C         3.40388847899140    0.72524863773466   -0.62317399832101
C         3.40147206378371   -0.71634793377624   -0.62171607436823
C         1.97146468275939    2.29643695371466   -1.84447380884949
C         0.74479072169389    2.29480265887187   -2.59734690293964
C        -0.24950030059497    3.01373538274617   -1.83419958406652
C         0.36665811584390    3.45440885945246   -0.61093929629792
C         1.73907043308861    3.01321417146057   -0.61726222588321
C        -1.57054705015902    2.58654331082108   -1.83775468616980
C        -1.94871311560705    1.42127591568240   -2.59527701108097
C        -2.94356192504311    0.70188082288312   -1.83671198241754
C        -3.18274055174783    1.42159710618524   -0.61524925096093
C        -2.33288247147678    2.58277942073885   -0.61103605791329
C        -2.93476403339577   -0.68952625126451   -1.82998326721669
C        -1.94322558261916   -1.41076999687311   -2.58758396975675
C        -1.56015275942936   -2.57866131840670   -1.83486503972112
C        -2.30503063026627   -2.57900851989317   -0.60560894223179
C        -3.16123380375999   -1.40232057295638   -0.60256785148769
C        -0.99012429203936   -0.71535890690041   -3.32119323243489
C        -0.99294345926208    0.72522833578586   -3.32265850950632
C         0.37890233669906    1.17141044723285   -3.32563413855866
C         1.22630236323841    0.00682554941516   -3.32864327141816
C         0.37971715613929   -1.16122458804767   -3.32753322027317
Cl       -2.10570242753576    0.28654065806269    5.19213739522808
Cl       -0.35909810261738   -2.11383952232146    5.18590933709239
Cl        1.57456615365777    1.12862899562864    5.25576191478363
63
 energy: -142.080556771490 gnorm: 0.002878868346 xtb: 6.4.1 (a3dbbd7)
C        -1.32171427462849    0.00357178219042    3.57545236448819
C        -0.39112328180592   -1.27534324698753    3.57214232948355
C         0.98599021226260   -0.72771498635452    3.28895708167127
C         1.04815187450353    0.75016125462573    3.49451323639246
C        -0.37767295949616    1.14637295142661    3.29380573592515
C         2.31594531145330   -2.57596228940815    0.56081960004453
C         3.15866164298789   -1.40445039404096    0.56595599544727
C         2.92319225531609   -0.68679024878181    1.78045732755002
C         1.89992038359344   -1.38527518441535    2.53437640548766
C         1.55414532468825   -2.58194856065278    1.77742906194952
C         3.18196195634456    1.42167210971390    0.55651981727740
C         2.33633900124584    2.58381486242612    0.55952274337827
C         1.57976212751492    2.55932996335878    1.79027674813817
C         1.96661996422915    1.42093389282521    2.54395171102688
C         2.92892832141753    0.70516649136489    1.78548619771339
C        -0.35984920256206    3.43105348649684    0.57845119887777
C        -1.73381438002842    2.98963879844903    0.57520170713119
C        -1.97088954631812    2.26252209218679    1.78994941448093
C        -0.72401892067262    2.22081446655314    2.54369448127695
C         0.25354475122314    2.98211716092406    1.78993820695472
C        -3.40607013164344    0.72235231757863    0.56766863919977
C        -3.38963080645004   -0.71178466307826    0.57026701442715
C        -2.76079331855957   -1.13686686677558    1.81422225837174
C        -2.40553738429162   -0.02280518974788    2.54950126122964
C        -2.78069423014675    1.14885493316761    1.79195965202209
C        -1.71537164735850   -3.01272848316130    0.56432075817573
C        -0.35586005940779   -3.46956544920860    0.55683612604342
C         0.24536450006698   -3.00987180048084    1.78121291767226
C        -0.75218399326639   -2.29501111018529    2.54362301197227
C        -1.92331551520017   -2.28782404375291    1.81124869319601
C        -0.23882585297397   -3.01506880460056   -1.84610810778479
C         0.74990924240803   -2.28722050973656   -2.60461420893646
C         1.97687391282880   -2.28854622674201   -1.85015430606710
C         1.74180107894440   -3.01703654647103   -0.62534632161099
C         0.37534272082108   -3.46822815183006   -0.62772169269054
C         2.78981045848906   -1.16298681655012   -1.84472840658874
C         2.40966338171817    0.00690719128127   -2.60286666146645
C         2.79036737209606    1.17103081206838   -1.84691895630355
C         3.40409897092793    0.72520984232567   -0.62290217954297
C         3.40177381095028   -0.71655125629252   -0.62156984247839
C         1.97147032424989    2.29644464048146   -1.84401105504661
C         0.74482848193684    2.29489616342744   -2.59695439941324
C        -0.24950318559740    3.01395412125361   -1.83393555429937
C         0.36655805241025    3.45475791405586   -0.61079097778293
C         1.73909915303568    3.01342547558161   -0.61698933116340
C        -1.57058302833471    2.58673862063231   -1.83755664682834
C        -1.94865591663038    1.42142857573138   -2.59503096052245
C        -2.94352158754181    0.70200659762536   -1.83650249921295
C        -3.18275413323982    1.42168063429684   -0.61508556823732
C        -2.33304839643164    2.58304552113972   -0.61087531383575
C        -2.93463541477473   -0.68942182677615   -1.82969092255939
C        -1.94306999424948   -1.41065748639755   -2.58724921121982
C        -1.56001314045204   -2.57857189212722   -1.83457308227615
C        -2.30494245846346   -2.57896763510911   -0.60540314460595
C        -3.16116740791786   -1.40225005959429   -0.60236178866683
C        -0.98997839049515   -0.71525349820763   -3.32080246715942
C        -0.99281969435607    0.72532733238055   -3.32226010442834
C         0.37900453303214    1.17150043329588   -3.32518718190514
C         1.22642019875503    0.00689390446877   -3.32819659673443
C         0.37985005070979   -1.16113825640514   -3.32713518653168
Cl       -2.10599522829483    0.28795801756584    5.19190635643066
Cl       -0.35784441930006   -2.11455249233003    5.18567799974324