63
 energy: -142.060592771503 gnorm: 0.137306846776 xtb: 6.4.1 (a3dbbd7)
C        -1.29750015586385   -0.00332986390914    3.53259128384291
C        -0.36662330751186   -1.17665276848352    3.30664507069186
C         0.98616964776834   -0.71907897730420    3.28345800331063
C         0.97960460534774    0.72298388992876    3.28116382332211
C        -0.37123063139343    1.17283027203526    3.30703999424566
C         2.33902808225222   -2.57287964708243    0.59282134541102
C         3.18775381441874   -1.40592934941989    0.58930269986468
C         2.95375934983025   -0.68600072575484    1.81413225258493
C         1.96120405920183   -1.41040140165925    2.57054878390017
C         1.59036597905156   -2.57351223230031    1.81677968982536
C         3.18509045263714    1.42556506459426    0.58677401618036
C         2.33644918538866    2.58955715701350    0.58712295456856
C         1.57732702745437    2.58269052266160    1.81121996042124
C         1.95121649520604    1.42062240906665    2.56339217358200
C         2.94734969899541    0.70178584035143    1.81241871801286
C        -0.36230865601760    3.44984460076387    0.58649915495812
C        -1.73568065385573    3.00856312776383    0.58620129080773
C        -1.97466648707238    2.29051782036392    1.80819368403138
C        -0.73502216685138    2.27460254582232    2.56651749222581
C         0.25013328780141    2.99673212004624    1.80718987334861
C        -3.40556373000186    0.73624756401696    0.57396823263447
C        -3.39656113686751   -0.70087893853968    0.57336766874418
C        -2.76869398640548   -1.13743152688347    1.81131829425690
C        -2.41606481668825   -0.00935770106357    2.54947016075177
C        -2.77763293498784    1.16181023849822    1.80199827311876
C        -1.73897950039868   -3.00369688886198    0.61027095302842
C        -0.34675175341818   -3.43911314840585    0.58927014667112
C         0.26540959524459   -2.99405405130769    1.81086784239501
C        -0.72448106648574   -2.27696612285733    2.56655534431523
C        -1.96661719091772   -2.30337153119419    1.80189055009829
C        -0.25303910441721   -3.21697439825626   -1.93515078628168
C         0.75308145440921   -2.28653916290657   -2.57867440920420
C         1.95238411039292   -2.27005430543362   -1.81108187299871
C         1.72490810125568   -2.99201887192918   -0.58363119559495
C         0.37557574680441   -3.46024706207600   -0.57873868952343
C         2.78760429110383   -1.15277384641970   -1.81491371839878
C         2.41431409213368    0.00739165047242   -2.57035366353322
C         2.79604684339575    1.17540453813949   -1.81886357647572
C         3.41064679229982    0.73155426330899   -0.59398339018568
C         3.40671134080570   -0.71156461677298   -0.59219407131255
C         1.97416914155198    2.29602882113511   -1.81673739726529
C         0.74456425139311    2.29447798281708   -2.57376768155679
C        -0.24519477981105    3.02272291127020   -1.82308616330370
C         0.36643514376396    3.45792956944505   -0.59428177351760
C         1.74064009670815    3.01454722219930   -0.59425933402647
C        -1.56829205833959    2.59366542792251   -1.82366590722493
C        -1.95096538781572    1.43092752853070   -2.58180486333857
C        -2.95240685827341    0.71446038976117   -1.82971357566041
C        -3.18630415806833    1.43422379644892   -0.60509868332397
C        -2.32927637798178    2.59497169040384   -0.60132137479790
C        -2.94754506526652   -0.67313005777755   -1.82391405444887
C        -1.94410239546657   -1.40286442546858   -2.56150397187270
C        -1.58527622402766   -2.56555974461748   -1.79963026731950
C        -2.30667368088430   -2.55904727586024   -0.60742050910323
C        -3.17269142016400   -1.38977890440225   -0.59872192408106
C        -0.99841208662573   -0.71329160109820   -3.30239014224414
C        -0.99320180548013    0.72405697444618   -3.30061797729521
C         0.37942274041569    1.16763777902732   -3.29646704633613
C         1.22337490988637    0.00222195938508   -3.28765862798480
C         0.38284144139822   -1.16484842740713   -3.28531009498081
Cl       -1.93980801969369   -0.00660548094091    5.24287063977443
Cl       -0.38906216058057   -4.77802061432624   -2.87495725020283
Cl        2.96734239626112    3.48727045466525   -2.74982381163156
63
 energy: -142.084891609342 gnorm: 0.059417241918 xtb: 6.4.1 (a3dbbd7)
C        -1.29838519000907   -0.00310153988070    3.53387306072788
C        -0.36688460121590   -1.17584256851016    3.30744295760745
C         0.98445425518049   -0.71882653113293    3.28356634396884
C         0.97786051896178    0.72356929437774    3.28135186746311
C        -0.37306810003861    1.17339784091205    3.30840893505126
C         2.33766666345800   -2.57909083020990    0.59430356913625
C         3.18768031324848   -1.41380392163164    0.59195899978906
C         2.95319079225897   -0.68998817651648    1.81557546490468
C         1.96062129199878   -1.41095981992504    2.56992669759672
C         1.58855002701874   -2.57581498364439    1.81729782659253
C         3.18326456918083    1.42084534298866    0.59014350653112
C         2.32422457206187    2.58334542126460    0.59198209257611
C         1.57291028333402    2.58461431265409    1.81766653359794
C         1.94878694424610    1.42094541783127    2.56385919484026
C         2.94653746227075    0.70179019333937    1.81138311714455
C        -0.36737921560669    3.45080038814385    0.59476601486169
C        -1.74019818829837    3.00819861319262    0.59015222086288
C        -1.97892397714631    2.29139951291685    1.81151390056934
C        -0.73899497459099    2.27558843749623    2.56994800381315
C         0.24498771096194    3.00047231446027    1.81352997993295
C        -3.40695936771991    0.73425712787039    0.57543565384599
C        -3.39745251017171   -0.70249332098672    0.57457624392418
C        -2.76902736729260   -1.13812347769935    1.81242177150290
C        -2.41706298465680   -0.00909792209486    2.55075483777095
C        -2.77962711966921    1.16060956250747    1.80419088789597
C        -1.73926336525468   -3.00462276981077    0.60965164823612
C        -0.34837001058797   -3.44066692584226    0.58896849531144
C         0.26371431827566   -2.99439799268748    1.81066798809330
C        -0.72595455946293   -2.27712998727922    2.56712979705101
C        -1.96620725333351   -2.30247946176315    1.80301049760359
C        -0.25393402672742   -3.22019173346282   -1.93556989656909
C         0.75324495423521   -2.29249662209779   -2.57839683725665
C         1.95287366502394   -2.27969259570563   -1.81060493432914
C         1.72368403296136   -2.99848853755017   -0.58265535799385
C         0.37395426565994   -3.46403652697176   -0.57917058333612
C         2.79124550422435   -1.16693021272205   -1.81202587686172
C         2.41152845312805   -0.00118645157196   -2.55798676273817
C         2.81515617054544    1.15913812390777   -1.82137272477221
C         3.40221155633377    0.71923985189853   -0.59406555443336
C         3.40777815285545   -0.72497876907279   -0.59054854346179
C         2.03320976326200    2.36944184493583   -1.87263639990575
C         0.73023818610968    2.28906102949607   -2.57002698657096
C        -0.24880061739559    3.01247595714645   -1.81693002337403
C         0.36325426006745    3.44956401536814   -0.58630376365607
C         1.73062619170950    3.01415888919718   -0.58003874190666
C        -1.57617176402927    2.59091941334441   -1.82210684651698
C        -1.95724202393218    1.43001923921535   -2.58143462296970
C        -2.95614108744865    0.71257687977055   -1.82827646881044
C        -3.18969928806305    1.43238209578429   -0.60352818235197
C        -2.33327118417396    2.59350172654562   -0.59902734946713
C        -2.94853435318174   -0.67494323959723   -1.82263857207719
C        -1.94417124634095   -1.40465908563723   -2.56040884638442
C        -1.58528903903494   -2.56729267465786   -1.79988501218625
C        -2.30669001322066   -2.56051876353886   -0.60680710294204
C        -3.17298468632233   -1.39119014168980   -0.59770558097608
C        -0.99915115584149   -0.71469408231273   -3.30155390130118
C        -0.99922073442485    0.72256704070666   -3.30064792952969
C         0.37137452496464    1.16344843548515   -3.28655026964490
C         1.22102137088846   -0.00196438227590   -3.28214438095395
C         0.38206305962670   -1.16557391529242   -3.28306824602576
Cl       -1.94044570495947   -0.00658061163428    5.24390333789307
Cl       -0.39160008445822   -4.78142194607084   -2.87630506726379
Cl        3.04348637750180    3.59282466030496   -2.82681751423002
63
 energy: -142.091020591824 gnorm: 0.013727813437 xtb: 6.4.1 (a3dbbd7)
C        -1.30055960250686   -0.00428890659599    3.53589338205341
C        -0.36863385195584   -1.17669759824283    3.30898265311883
C         0.98108067153369   -0.72006714568282    3.28462747398795
C         0.97526279623712    0.72265139515318    3.28174508425473
C        -0.37587391680266    1.17286076228838    3.31087376573617
C         2.33574256147105   -2.58436511265485    0.59595257791310
C         3.18348122639700   -1.41739554643366    0.59309148032664
C         2.94992474418352   -0.69360945838503    1.81705075844506
C         1.95841164206440   -1.41201455032032    2.56977487033309
C         1.58574801827129   -2.57903009317031    1.81854509481497
C         3.18521761463200    1.42004277504643    0.59184921348977
C         2.31935388514109    2.58232391651220    0.58737935640828
C         1.56820711483219    2.57963378602765    1.81377604439269
C         1.94508334187737    1.41892144446600    2.56194771246225
C         2.94378673365623    0.70126815725607    1.80721363461801
C        -0.36822869949805    3.44642388035390    0.59738621750109
C        -1.74218470505902    3.00545287587164    0.59299296233588
C        -1.98281119735185    2.29035799242813    1.81440146793537
C        -0.74299045647820    2.27565413838664    2.57393712345583
C         0.24080008070008    2.99836715365820    1.81464319348971
C        -3.40981726543174    0.73111462483793    0.57825901145552
C        -3.39982399760080   -0.70525865507467    0.57714705127533
C        -2.77125841913941   -1.14062657290122    1.81504189267639
C        -2.41976747772056   -0.01047488253883    2.55319225401600
C        -2.78280576582063    1.15806275415402    1.80737023875311
C        -1.74029207919929   -3.00681370878955    0.61043019295061
C        -0.35065442985051   -3.44384513876488    0.59009004463594
C         0.26132618556214   -2.99631542022146    1.81174248641296
C        -0.72879952397645   -2.27896924973870    2.56872334217935
C        -1.96698962830579   -2.30297186616490    1.80552203255340
C        -0.25542005686294   -3.22271500934813   -1.93448754768029
C         0.75259714019248   -2.29674891710586   -2.57760006733285
C         1.95069373818665   -2.28331815520736   -1.80876039184031
C         1.72202197127213   -3.00445219738701   -0.58174135923622
C         0.37208529137203   -3.46900836586540   -0.57824917593541
C         2.78750018535183   -1.16930426604796   -1.80873224627894
C         2.40758794072024    0.00331709600524   -2.54927674447233
C         2.81546700567522    1.15503006729545   -1.81886565077788
C         3.39137498537026    0.71902367706045   -0.59810209988305
C         3.40122832272360   -0.72768957015995   -0.58922761242283
C         2.08409428919960    2.43626589312915   -1.92230705876503
C         0.73092175885007    2.29210903606869   -2.57311122609159
C        -0.24333301211903    2.99963102587111   -1.81402631979195
C         0.36843519950446    3.43818314318723   -0.58319577852791
C         1.73231193609854    3.01902916994327   -0.57891794467748
C        -1.57617420785343    2.58501382451811   -1.81852910711493
C        -1.95787925422069    1.42678058970096   -2.57621479600932
C        -2.95946324136668    0.70979653230803   -1.82573569247550
C        -3.19247696474561    1.42945263208830   -0.60069126338886
C        -2.33426583611972    2.58967502744667   -0.59660455314073
C        -2.95031697945403   -0.67776684717423   -1.82004598652677
C        -1.94450847642849   -1.40724154062282   -2.55778884259026
C        -1.58688126212906   -2.57019252311498   -1.79875605674532
C        -2.30811425735184   -2.56333643251465   -0.60463198757208
C        -3.17435186562793   -1.39361155544435   -0.59539441917179
C        -0.99800673591106   -0.71616874812777   -3.29693469728647
C        -0.99640380734880    0.72084119825293   -3.29197580902074
C         0.37332190070352    1.16604586767236   -3.28076578455691
C         1.22212298819444   -0.00274793750170   -3.28272370076162
C         0.38337980309388   -1.16435566222719   -3.27910856805702
Cl       -1.94271462035582   -0.00819839589045    5.24544510259582
Cl       -0.39676315573596   -4.78428614037673   -2.87581362126678
Cl        3.10428809420482    3.66842819439346   -2.88458904127893
63
 energy: -142.091344978222 gnorm: 0.008180814055 xtb: 6.4.1 (a3dbbd7)
C        -1.30208511733438   -0.00529102398779    3.53741810767113
C        -0.36985384890947   -1.17752739187093    3.30995112516363
C         0.97934043815741   -0.72075785554853    3.28522022083009
C         0.97383175952402    0.72193511873931    3.28124789486978
C        -0.37734039175625    1.17203600727158    3.31177256989802
C         2.33460249805556   -2.58519515661110    0.59631253609691
C         3.18071010248749   -1.41707995363162    0.59289243116274
C         2.94791269699566   -0.69416098402025    1.81748421978510
C         1.95702745656199   -1.41218166972307    2.56978529703994
C         1.58448175438748   -2.58003786793101    1.81909273069054
C         3.18757713219516    1.42144347851389    0.59282181245436
C         2.32142026931329    2.58517948043837    0.58421734413748
C         1.56663927722571    2.57697631787869    1.80964124367245
C         1.94301318265853    1.41769984617424    2.55973505348222
C         2.94281691165996    0.70123060326348    1.80565166188799
C        -0.36741273996504    3.44338492255515    0.59622092335258
C        -1.74175509400504    3.00305347418500    0.59368656117000
C        -1.98403602115995    2.28935542077054    1.81557893904411
C        -0.74426352440451    2.27503597331936    2.57517624563556
C         0.23984144241240    2.99629859175144    1.81358379139509
C        -3.41134806219798    0.72949824488609    0.57979499051948
C        -3.40160013023529   -0.70684735800987    0.57865409735795
C        -2.77286860897859   -1.14216362174424    1.81656244260109
C        -2.42153021056892   -0.01145555006274    2.55478696201503
C        -2.78443581958264    1.15684257834773    1.80912932938722
C        -1.74109244393314   -3.00817423873965    0.61110587401060
C        -0.35168432599957   -3.44526752187665    0.59067717461990
C         0.26028161442298   -2.99741707081736    1.81244128559628
C        -0.73025833589592   -2.28013922954294    2.56963667123143
C        -1.96782618978376   -2.30374184568024    1.80681938977778
C        -0.25635165202443   -3.22374626051086   -1.93408867699678
C         0.75202418779811   -2.29805980384804   -2.57760482550407
C         1.94924223609891   -2.28296452106181   -1.80792469325234
C         1.72111895931323   -3.00577283741567   -0.58156421242528
C         0.37127839550431   -3.47077959014841   -0.57786633131881
C         2.78411608711793   -1.16699678881833   -1.80754678506572
C         2.40699772612516    0.00796577055644   -2.54904934998759
C         2.81219765908294    1.15856117166672   -1.81826152503113
C         3.38884599082443    0.72288279166461   -0.60023934090823
C         3.39667672352436   -0.72552218892172   -0.58884928162947
C         2.09560959254319    2.45372962906421   -1.93436369305641
C         0.73672664942266    2.29830104718068   -2.57888352560319
C        -0.23941600790301    2.99663746349475   -1.81448155409680
C         0.37211799825501    3.43594990060728   -0.58373734979865
C         1.73851978399981    3.02605730302302   -0.58326317892307
C        -1.57335305680829    2.58211464789863   -1.81614525466337
C        -1.95605419862098    1.42493981671167   -2.57297435545273
C        -2.95976892675163    0.70816805623811   -1.82414296955411
C        -3.19295444692063    1.42768663653795   -0.59923243413510
C        -2.33311353990054    2.58688296948931   -0.59538232497463
C        -2.95067723625420   -0.67926507281021   -1.81830369130806
C        -1.94411721822685   -1.40817118850740   -2.55599219337029
C        -1.58780908649465   -2.57151534987487   -1.79795770433422
C        -2.30924904812228   -2.56495669028011   -0.60336827457197
C        -3.17555835336655   -1.39517533716720   -0.59405072398299
C        -0.99639130638949   -0.71628148807800   -3.29349868699112
C        -0.99281779059697    0.72056848248442   -3.28686271909519
C         0.37691387483447    1.16896278038662   -3.28193737295891
C         1.22327385237023   -0.00270817371397   -3.28556252728026
C         0.38444855024979   -1.16423256044231   -3.27821899345633
Cl       -1.94464213571836   -0.01068576972403    5.24679439704316
Cl       -0.40078734561391   -4.78580931947941   -2.87515472354269
Cl        3.11714182824521    3.67857521708624   -2.89526148443093
63
 energy: -142.091444226438 gnorm: 0.004668652781 xtb: 6.4.1 (a3dbbd7)
C        -1.30272783392157   -0.00564864091862    3.53820072484149
C        -0.37018129054747   -1.17772143272260    3.31042261134588
C         0.97875137314132   -0.72090430445018    3.28564475149023
C         0.97330763584311    0.72173776774360    3.28107997321150
C        -0.37793074591188    1.17172385505785    3.31229725880989
C         2.33430132354986   -2.58501102612176    0.59629561201839
C         3.17961779326387   -1.41659098171739    0.59278115621172
C         2.94720366138146   -0.69418245289035    1.81801283760467
C         1.95673122228804   -1.41198181022169    2.56990713643280
C         1.58422890248066   -2.58017088696191    1.81927191253340
C         3.18942457169653    1.42227552364118    0.59419513668359
C         2.32267923415832    2.58652155520317    0.58285572954459
C         1.56580017180281    2.57566051313241    1.80739086859491
C         1.94200277537575    1.41711744467512    2.55845791435282
C         2.94291769995349    0.70137023673152    1.80545586845319
C        -0.36701872850939    3.44140739547951    0.59538436071382
C        -1.74143106195782    3.00167333880305    0.59396645541382
C        -1.98452561311951    2.28908783971446    1.81631362416677
C        -0.74483314838918    2.27480689412179    2.57595009944958
C         0.23950571259264    2.99530240616467    1.81314067104459
C        -3.41223866737106    0.72892680446157    0.58041036734215
C        -3.40254677666738   -0.70737957297215    0.57921259935113
C        -2.77352667710507   -1.14263162566512    1.81703117371230
C        -2.42225598626467   -0.01156258899751    2.55542220892879
C        -2.78521230580526    1.15650631436000    1.80998785277294
C        -1.74115019747138   -3.00839952097080    0.61100653685324
C        -0.35185399379028   -3.44547602580642    0.59062951124594
C         0.26015160880694   -2.99755505081685    1.81252454251494
C        -0.73071932415982   -2.28032422294598    2.56980052390636
C        -1.96788079694941   -2.30358134881124    1.80714801533814
C        -0.25673156380890   -3.22399065466502   -1.93413521911630
C         0.75179349731512   -2.29882563447832   -2.57819674742070
C         1.94862777319216   -2.28250459081153   -1.80780367954203
C         1.72091520530622   -3.00583952191888   -0.58170802443800
C         0.37122824632404   -3.47125493514173   -0.57799474971134
C         2.78193561687830   -1.16528185530568   -1.80674641599649
C         2.40638308025309    0.01079136665234   -2.54935291447405
C         2.80844351431972    1.16074702689134   -1.81706591783660
C         3.38734640169459    0.72556318429428   -0.60111364569649
C         3.39382649269192   -0.72397345562231   -0.58857923632144
C         2.10000752767459    2.46092144219628   -1.93921950611178
C         0.74025243561372    2.30134409292874   -2.58190022878617
C        -0.23750861041263    2.99447996922796   -1.81446927245368
C         0.37390170567111    3.43430104655312   -0.58381364350600
C         1.74222133473761    3.02951897005836   -0.58583397658008
C        -1.57174924831994    2.58039398211949   -1.81464692325340
C        -1.95520843619530    1.42399601318771   -2.57150981020425
C        -2.96010011259084    0.70737747126289   -1.82350284657810
C        -3.19334229866508    1.42688244625522   -0.59875280853342
C        -2.33239897807093    2.58532532739291   -0.59474644662254
C        -2.95085232576605   -0.67989869870045   -1.81755728833689
C        -1.94397229764903   -1.40855968641260   -2.55543332858533
C        -1.58814972642711   -2.57178391113733   -1.79793266050254
C        -2.30980506909133   -2.56552637903573   -0.60296494659935
C        -3.17626983318217   -1.39583284626545   -0.59362840816075
C        -0.99542653660409   -0.71618720812760   -3.29173991311102
C        -0.99098119951571    0.72056224679394   -3.28419164472758
C         0.37866821346525    1.17009270975726   -3.28256611899961
C         1.22362987006938   -0.00320285963577   -3.28795274591327
C         0.38491431909906   -1.16453950078735   -3.27860713644017
Cl       -1.94563171407964   -0.01201638953036    5.24739248839727
Cl       -0.40288961099593   -4.78649059897068   -2.87501109974445
Cl        3.12062620561929    3.67628749626085   -2.89679065307787
63
 energy: -142.091483190989 gnorm: 0.002524384400 xtb: 6.4.1 (a3dbbd7)
C        -1.30269997715364   -0.00560444149355    3.53829746841917
C        -0.36998865685781   -1.17759720835226    3.31046583278348
C         0.97883392548239   -0.72075358974929    3.28577105776653
C         0.97338749795910    0.72188962988107    3.28114644664928
C        -0.37793601243074    1.17178979706512    3.31241932131945
C         2.33443793629742   -2.58457743000077    0.59610570855457
C         3.17967317569139   -1.41631330513653    0.59275215014053
C         2.94730193414375   -0.69400764109831    1.81838389780909
C         1.95700116215894   -1.41170015070908    2.56993147364930
C         1.58442153897745   -2.57993966075924    1.81917120195358
C         3.19027099788557    1.42254099027317    0.59518334464236
C         2.32276910481965    2.58662463871766    0.58269945879636
C         1.56549306150839    2.57543667271852    1.80680599880821
C         1.94185919740479    1.41713274152231    2.55816828691981
C         2.94342027990485    0.70163980876011    1.80582671197750
C        -0.36703096589202    3.44079942023171    0.59513153119463
C        -1.74136816419178    3.00134318551772    0.59402330380598
C        -1.98459517336190    2.28923195939547    1.81659748918640
C        -0.74497677220523    2.27488939267181    2.57625168769070
C         0.23944745161762    2.99524863262473    1.81320737248927
C        -3.41246486785121    0.72892259004718    0.58042593265383
C        -3.40266027706277   -0.70732579320775    0.57918836459714
C        -2.77349989284535   -1.14260453490605    1.81690700575266
C        -2.42223500720000   -0.01134385157927    2.55538642792446
C        -2.78529950745508    1.15655210064205    1.81014492778021
C        -1.74084389226598   -3.00814867145790    0.61063527240565
C        -0.35163500092401   -3.44518972662161    0.59036396980747
C         0.26041060584780   -2.99728556789070    1.81229777278551
C        -0.73061346596281   -2.28008213001077    2.56958362419507
C        -1.96756071961338   -2.30317191817679    1.80701433896361
C        -0.25668040128782   -3.22379964727117   -1.93432424170282
C         0.75178222884869   -2.29904902023452   -2.57876976728293
C         1.94862208100025   -2.28225922132314   -1.80806509647687
C         1.72104893333124   -3.00544972343102   -0.58195585413834
C         0.37147452691746   -3.47107327349628   -0.57826769465201
C         2.78122141877122   -1.16463858101098   -1.80640036253562
C         2.40577349643685    0.01179105158669   -2.54930943497734
C         2.80564663637218    1.16125202617520   -1.81577555770571
C         3.38640124908908    0.72655548878948   -0.60117803201660
C         3.39283078550521   -0.72345497482664   -0.58850190203663
C         2.10127076169835    2.46284641866717   -1.94061171883716
C         0.74118612617000    2.30172691261506   -2.58230372922419
C        -0.23716067119096    2.99332267660205   -1.81417181608437
C         0.37422129641276    3.43334886252281   -0.58355195853464
C         1.74313472941121    3.02995131950427   -0.58644186273095
C        -1.57142215354353    2.57994119184097   -1.81414787802840
C        -1.95520601512195    1.42384426423261   -2.57134865910065
C        -2.96040845316202    0.70726463535603   -1.82350250599715
C        -3.19357347468952    1.42677381642455   -0.59883017883473
C        -2.33223675731853    2.58496667630908   -0.59460467651811
C        -2.95087609442475   -0.67992927996739   -1.81749476619099
C        -1.94398243853553   -1.40862435878196   -2.55562617842804
C        -1.58806578765899   -2.57155243382947   -1.79822915711608
C        -2.30983483352373   -2.56549892214085   -0.60301460008384
C        -3.17637153898586   -1.39588398967704   -0.59373085107551
C        -0.99517435038400   -0.71605312758316   -3.29148715412665
C        -0.99062296861311    0.72070992537882   -3.28351628596495
C         0.37885760837314    1.17013410318994   -3.28243026738262
C         1.22347417712430   -0.00362389592197   -3.28904820831605
C         0.38492168332782   -1.16474177809692   -3.27931087047203
Cl       -1.94584257030693   -0.01235746759799    5.24731197393429
Cl       -0.40343864941000   -4.78671064647172   -2.87500435334299
Cl        3.12000431988622    3.66974749513392   -2.89452116954196
63
 energy: -142.091495687114 gnorm: 0.001419877062 xtb: 6.4.1 (a3dbbd7)
C        -1.30245715125909   -0.00547592208684    3.53808787023308
C        -0.36972966766221   -1.17746018102465    3.31031307504536
C         0.97907772354565   -0.72059450897970    3.28568875037908
C         0.97362090586045    0.72207934973593    3.28123974315048
C        -0.37775600637653    1.17194044926059    3.31230899153873
C         2.33464489128496   -2.58434856400435    0.59595834393442
C         3.18008887822501   -1.41625387474251    0.59276815518672
C         2.94761177892483   -0.69384233706843    1.81845909037088
C         1.95729501842919   -1.41154123140752    2.56985140355936
C         1.58462485916353   -2.57972912861146    1.81899854242409
C         3.19025324474408    1.42252836673704    0.59541496353221
C         2.32236490254890    2.58636146014543    0.58301529955023
C         1.56552489336575    2.57573698244654    1.80713226149370
C         1.94211541175469    1.41739936343754    2.55844513847598
C         2.94375205829668    0.70187343463093    1.80613235632970
C        -0.36719859121288    3.44111233781568    0.59526533838514
C        -1.74147070925903    3.00159259376082    0.59399385920760
C        -1.98451889529722    2.28940192025915    1.81655460613918
C        -0.74492648724598    2.27502612102570    2.57619534691478
C         0.23947478104273    2.99556370137220    1.81341024995380
C        -3.41230332495102    0.72905588568341    0.58025348971477
C        -3.40239939382235   -0.70715407673098    0.57900561660220
C        -2.77325590072020   -1.14250192320728    1.81667510948902
C        -2.42198140285715   -0.01120888520270    2.55515371925413
C        -2.78509054481776    1.15662669395509    1.80997742081718
C        -1.74059589673765   -3.00794328151270    0.61040726211191
C        -0.35142493355716   -3.44494988518794    0.59019535401364
C         0.26063410961904   -2.99706991436450    1.81209373079159
C        -0.73038823498346   -2.27988527459421    2.56937048907597
C        -1.96731155866440   -2.30299408892028    1.80683856228507
C        -0.25649083352805   -3.22353789137287   -1.93443397783457
C         0.75184470157191   -2.29891349350433   -2.57896697582652
C         1.94881790611171   -2.28222188095055   -1.80831684511877
C         1.72122120608202   -3.00516938208436   -0.58210204692510
C         0.37166595462398   -3.47078185441223   -0.57842418114726
C         2.78151911616703   -1.16478459687611   -1.80644942679596
C         2.40545245979078    0.01155435427185   -2.54905056547244
C         2.80464507477941    1.16078765177372   -1.81505811996256
C         3.38610285796658    0.72633560568106   -0.60091230080063
C         3.39313283265754   -0.72362453130401   -0.58856508030592
C         2.10130740459008    2.46254413378363   -1.94055508920150
C         0.74056759386357    2.30107243673186   -2.58159304586816
C        -0.23756113001783    2.99332397141234   -1.81399832547832
C         0.37385750705028    3.43331760782927   -0.58334652274272
C         1.74248940652695    3.02922210588467   -0.58596741571992
C        -1.57177999145344    2.58026715606370   -1.81432101239277
C        -1.95551274114207    1.42408052409805   -2.57171256764395
C        -2.96053259958156    0.70745911458247   -1.82369644444628
C        -3.19360746175860    1.42694642579577   -0.59900786039907
C        -2.33239910389427    2.58526102044566   -0.59470867155294
C        -2.95082721889462   -0.67973647875985   -1.81767996887005
C        -1.94401869898159   -1.40853896899182   -2.55592975816360
C        -1.58788336942183   -2.57132282333609   -1.79844868637178
C        -2.30964003462141   -2.56530949830649   -0.60316134000707
C        -3.17617002190055   -1.39572049090456   -0.59393051871798
C        -0.99535664299437   -0.71598240358015   -3.29196746211076
C        -0.99099688470284    0.72085527221568   -3.28392312586129
C         0.37837103664789    1.16991527151014   -3.28215089289728
C         1.22322370102415   -0.00366892592077   -3.28898561086304
C         0.38474754718824   -1.16469759304050   -3.27966986888194
Cl       -1.94561546897952   -0.01216692817232    5.24703791459118
Cl       -0.40307814890445   -4.78668364472862   -2.87505771893637