61
 energy: -132.997235800289 gnorm: 0.033806743132 xtb: 6.4.1 (a3dbbd7)
C        -1.30066579594869    0.00000004040831    3.54743099219612
C        -0.37086302051555   -1.16242107803556    3.31218042920709
C         0.98183750386839   -0.72090347407341    3.28143265135053
C         0.98183757287206    0.72090357056259    3.28143264375965
C        -0.37086293277360    1.16242110254427    3.31218046932762
C         2.33243143198913   -2.56954696403946    0.57559000902363
C         3.18184621693797   -1.41017818115451    0.57019927387732
C         2.93209193020603   -0.69188723518800    1.79461264986466
C         1.94324196523569   -1.40562594816250    2.54633499578585
C         1.57450676178536   -2.56566187436122    1.79677833388922
C         3.18184618888234    1.41017809554788    0.57019926909728
C         2.33243161496851    2.56954699605840    0.57558992309734
C         1.57450671109019    2.56566175703644    1.79677843081797
C         1.94324182627262    1.40562585431984    2.54633489057968
C         2.93209185877789    0.69188728160523    1.79461261406475
C        -0.35657825726779    3.43057633296452    0.59174238877258
C        -1.73202875280304    2.98739222848904    0.59137981340564
C        -1.96111713229441    2.28218449799650    1.80500032065198
C        -0.73048088504741    2.26631848534753    2.57973915793821
C         0.25313986114064    2.97717895099204    1.80947375788337
C        -3.39069845310905    0.71376269416772    0.57118614646022
C        -3.39069837827418   -0.71376259634870    0.57118601955409
C        -2.76921397505523   -1.14881255774150    1.81282765195398
C        -2.41217590241205    0.00000002567629    2.55346329944357
C        -2.76921401933530    1.14881246578253    1.81282751479063
C        -1.73202883752509   -2.98739216561306    0.59137970629715
C        -0.35657815551057   -3.43057643321910    0.59174218562141
C         0.25313980228530   -2.97717886225467    1.80947389870470
C        -0.73048099932513   -2.26631839555843    2.57973912766110
C        -1.96111723477817   -2.28218440774592    1.80500037987979
C        -0.24243891366070   -2.99990687099321   -1.81778674409973
C         0.74470794946844   -2.28199599157275   -2.57321145673415
C         1.97112794587365   -2.28368845667822   -1.82191409948897
C         1.73908034916323   -2.99898942739273   -0.59841826499773
C         0.36574104081953   -3.43225590023343   -0.58728537763035
C         2.78734432442331   -1.16380524060401   -1.82659128077802
C         2.40815949023136    0.00000003620666   -2.58153371565902
C         2.78734447758994    1.16380512675729   -1.82659110318423
C         3.40404959972096    0.72048790729125   -0.60642259835294
C         3.40404956273725   -0.72048790859338   -0.60642257327870
C         1.97112811877827    2.28368848949136   -1.82191406611156
C         0.74470799700399    2.28199598665324   -2.57321154546678
C        -0.24243905530533    2.99990683180290   -1.81778670322369
C         0.36574112633258    3.43225603334479   -0.58728547880694
C         1.73908032046341    2.99898941935366   -0.59841825635828
C        -1.56128798939773    2.57410517551298   -1.81378321887546
C        -1.94238036513406    1.41174134615593   -2.57675014563681
C        -2.93776857201392    0.69393574896455   -1.82593341233909
C        -3.16855279470653    1.40999669241557   -0.59944785333109
C        -2.31992726392507    2.57479456944629   -0.59891095430801
C        -2.93776872373122   -0.69393563939955   -1.82593336707667
C        -1.94238024777594   -1.41174129329382   -2.57675012534062
C        -1.56128799593543   -2.57410522655331   -1.81378321396257
C        -2.31992719981869   -2.57479482871131   -0.59891086289578
C        -3.16855273577160   -1.40999678341346   -0.59944779610071
C        -0.98786983071340   -0.71982315538163   -3.29817727703116
C        -0.98786969993903    0.71982315027072   -3.29817746932840
C         0.38084794631814    1.16240334112326   -3.30289815538662
C         1.22526565047784    0.00000005100868   -3.30207930624215
C         0.38084797669854   -1.16240333903081   -3.30289813683780
Cl       -2.01102788620525    0.00000002466027    5.23398024267622
61
 energy: -132.999189451004 gnorm: 0.014475688398 xtb: 6.4.1 (a3dbbd7)
C        -1.29648571367486    0.00000002138524    3.53842307176874
C        -0.37086543843311   -1.17237294750654    3.31328843179614
C         0.98106795031434   -0.72222880333584    3.28286921619206
C         0.98106798066120    0.72222883296948    3.28286923607197
C        -0.37086541438783    1.17237296164742    3.31328844309519
C         2.33589152125614   -2.57978495880651    0.58101308280826
C         3.18341522709828   -1.41461407076786    0.57904892432725
C         2.94152607925259   -0.69379446917453    1.80498383366723
C         1.94826786434026   -1.41236398283595    2.55602894526513
C         1.57788453770750   -2.57666778242106    1.80502563082376
C         3.18341522395086    1.41461403356803    0.57904893825119
C         2.33589162187551    2.57978497125963    0.58101304614228
C         1.57788454586657    2.57666774293559    1.80502568329762
C         1.94826782016744    1.41236394323816    2.55602889633770
C         2.94152605982312    0.69379447410480    1.80498381335981
C        -0.35892003369799    3.44278315736965    0.58777575274836
C        -1.73446010952790    2.99780508585808    0.59042832805507
C        -1.96864697976731    2.29090737866668    1.80834760952172
C        -0.73258506475756    2.27598258245167    2.57398286520283
C         0.25361781345351    2.99288367129950    1.80939848823058
C        -3.39603889779143    0.71614361088323    0.57338594406909
C        -3.39603888509469   -0.71614354595487    0.57338586110639
C        -2.77187501793429   -1.15046245598723    1.81062044653931
C        -2.41641790000679    0.00000003275822    2.55550071641730
C        -2.77187504579159    1.15046244468214    1.81062039489168
C        -1.73446017155100   -2.99780505541606    0.59042829381590
C        -0.35892000971194   -3.44278321322798    0.58777571122716
C         0.25361776998284   -2.99288364001898    1.80939859818258
C        -0.73258511548444   -2.27598256230799    2.57398287137745
C        -1.96864702470772   -2.29090732245824    1.80834764504924
C        -0.24508649615196   -3.00738562531115   -1.82165059164098
C         0.74463230572857   -2.28722707194752   -2.57727510709951
C         1.97304681558281   -2.28828639047867   -1.82237546730227
C         1.74092779960824   -3.00709780232953   -0.59764432506960
C         0.36683277258220   -3.44607135584650   -0.59253143534561
C         2.79067157080685   -1.16547243133444   -1.82485746396129
C         2.41095210622541    0.00000002625638   -2.58141105006516
C         2.79067162758010    1.16547240414233   -1.82485739038486
C         3.40644424778431    0.72146173571719   -0.60105708009427
C         3.40644423942199   -0.72146173547830   -0.60105706395127
C         1.97304688098142    2.28828641965675   -1.82237546814235
C         0.74463233372075    2.28722706380492   -2.57727515276993
C        -0.24508652455708    3.00738561055909   -1.82165056173596
C         0.36683283505471    3.44607143730226   -0.59253150017710
C         1.74092776698462    3.00709777601358   -0.59764431626581
C        -1.56724770591300    2.57921177532629   -1.81884473032648
C        -1.94746662023720    1.41444511479250   -2.58199168625898
C        -2.94250839274781    0.69454863135062   -1.82842233101739
C        -3.17429254395666    1.41364289390274   -0.60158073120847
C        -2.32555437322457    2.58042199762864   -0.60051347923337
C        -2.94250847950744   -0.69454861650353   -1.82842233803891
C        -1.94746656793563   -1.41444512084474   -2.58199170820125
C        -1.56724773153988   -2.57921180562570   -1.81884475010037
C        -2.32555434214226   -2.58042208620760   -0.60051344516734
C        -3.17429255910679   -1.41364291593225   -0.60158071828737
C        -0.99106761788774   -0.72089188424188   -3.30671245902504
C        -0.99106757734932    0.72089188043349   -3.30671251920129
C         0.38026353353903    1.16477493107059   -3.30789751012118
C         1.22622138330737    0.00000000463088   -3.30658224732273
C         0.38026357175453   -1.16477495081763   -3.30789752815885
Cl       -1.96888633543184    0.00000003006418    5.24153806480536
61
 energy: -132.999419545094 gnorm: 0.005098351391 xtb: 6.4.1 (a3dbbd7)
C        -1.29729284660495    0.00000000712570    3.53422836428851
C        -0.37098542614428   -1.17474938666870    3.31135139940349
C         0.98038804821106   -0.72197900562227    3.28190160290869
C         0.98038805828890    0.72197901077724    3.28190162537036
C        -0.37098542915051    1.17474939390959    3.31135139272595
C         2.33619380340478   -2.58296265634199    0.58336372467409
C         3.18301128989883   -1.41587583956072    0.58220783671965
C         2.94431372131670   -0.69421951240983    1.80766435933379
C         1.95057609257401   -1.41506205504682    2.56080842193121
C         1.57844867236379   -2.57955934705566    1.80882929508830
C         3.18301129921565    1.41587582734799    0.58220784536165
C         2.33619384616207    2.58296265796759    0.58336371637749
C         1.57844869035259    2.57955934088012    1.80882931009844
C         1.95057609207928    1.41506204745878    2.56080841111474
C         2.94431372202151    0.69421950115088    1.80766435090719
C        -0.36048535643737    3.44596767308792    0.58620250060180
C        -1.73499175474670    3.00143722095728    0.58980811622526
C        -1.97195317005817    2.29337719978830    1.80999458799693
C        -0.73364938111125    2.27745540844400    2.56955364356581
C         0.25343695042424    2.99799784721019    1.80926377404585
C        -3.39738846787221    0.71726154030367    0.57394321212612
C        -3.39738846619461   -0.71726150025453    0.57394319378355
C        -2.77229812693834   -1.15008671721657    1.80795563665568
C        -2.42057105754101    0.00000002379504    2.55829937282000
C        -2.77229814050771    1.15008673716551    1.80795561918332
C        -1.73499178451167   -3.00143721396636    0.58980812526462
C        -0.36048536466895   -3.44596769623835    0.58620251913976
C         0.25343692961078   -2.99799784657070    1.80926382801165
C        -0.73364939174948   -2.27745541513853    2.56955366029530
C        -1.97195318098330   -2.29337717248618    1.80999460971344
C        -0.24595366626525   -3.00984789842842   -1.82258480906112
C         0.74443111352328   -2.28872204308379   -2.57836505426582
C         1.97302454253925   -2.28915393487302   -1.82164445717159
C         1.74084936969034   -3.00898940184406   -0.59662976596070
C         0.36721282103944   -3.45096970930731   -0.59429962386919
C         2.79074392232698   -1.16567463879901   -1.82362232354613
C         2.41116605852853    0.00000000779648   -2.58076724791322
C         2.79074393593906    1.16567463545300   -1.82362230658196
C         3.40640894133209    0.72144663860565   -0.59895004508460
C         3.40640893531916   -0.72144664591593   -0.59895003576352
C         1.97302456203227    2.28915394294099   -1.82164446185171
C         0.74443114021363    2.28872203727801   -2.57836507283323
C        -0.24595364363389    3.00984790098670   -1.82258480954797
C         0.36721285625509    3.45096973273889   -0.59429965283548
C         1.74084936252609    3.00898938399031   -0.59662975999611
C        -1.56887920277829    2.58068801172427   -1.82088603517214
C        -1.94810257145994    1.41529294867477   -2.58373074863722
C        -2.94306040670947    0.69448290059232   -1.82956748495894
C        -3.17546398223806    1.41470548661325   -0.60292217416775
C        -2.32708470886489    2.58174178038122   -0.60095845108935
C        -2.94306043684105   -0.69448290143941   -1.82956746819871
C        -1.94810257435608   -1.41529295930065   -2.58373074773468
C        -1.56887923064985   -2.58068801178358   -1.82088602828692
C        -2.32708470748206   -2.58174178357599   -0.60095842686875
C        -3.17546400289511   -1.41470546969915   -0.60292215197862
C        -0.99163019026577   -0.72109973576365   -3.31007528782074
C        -0.99163017074966    0.72109973258733   -3.31007529465575
C         0.38035638375280    1.16556979958860   -3.30919082039770
C         1.22658175072074   -0.00000001470168   -3.30800863162484
C         0.38035638950552   -1.16556981551774   -3.30919083795293
Cl       -1.94368934435511    0.00000002589989    5.25056058886413
61
 energy: -132.999441388771 gnorm: 0.001881593919 xtb: 6.4.1 (a3dbbd7)
C        -1.29783846452951    0.00000000683610    3.53286154671978
C        -0.37106575490924   -1.17497309833174    3.31065370932111
C         0.97991746988971   -0.72169635255044    3.28123541269503
C         0.97991747590005    0.72169635779471    3.28123542675256
C        -0.37106575519728    1.17497310953605    3.31065370086821
C         2.33570612262068   -2.58301051180021    0.58364377771401
C         3.18236326628463   -1.41573929762465    0.58251637098483
C         2.94410559443227   -0.69413390483045    1.80746418507666
C         1.95071641120805   -1.41553174254842    2.56179219100923
C         1.57800672721992   -2.57925739829448    1.80935327320462
C         3.18236327427393    1.41573928580724    0.58251637108306
C         2.33570614388945    2.58301050580303    0.58364377149464
C         1.57800674283787    2.57925739666935    1.80935326996736
C         1.95071641766610    1.41553174094611    2.56179218732290
C         2.94410559573672    0.69413389143892    1.80746418004182
C        -0.36104247373681    3.44571051595404    0.58584662148565
C        -1.73487307503443    3.00177607632215    0.58943201795822
C        -1.97240003927714    2.29340548233428    1.81043940678188
C        -0.73394765876299    2.27715252245768    2.56848569330233
C         0.25318370393783    2.99823909563829    1.80905564653208
C        -3.39694075238004    0.71752275962382    0.57405580522671
C        -3.39694074917577   -0.71752273484588    0.57405580245335
C        -2.77190492089469   -1.14970261069075    1.80696873113191
C        -2.42173044674087    0.00000001925733    2.55982188313213
C        -2.77190492507428    1.14970264106112    1.80696872517319
C        -1.73487309178664   -3.00177606779264    0.58943202910169
C        -0.36104248996643   -3.44571051958609    0.58584664095634
C         0.25318368724398   -2.99823909515770    1.80905567016209
C        -0.73394766699242   -2.27715252027844    2.56848570505470
C        -1.97240004666927   -2.29340545875187    1.81043941633975
C        -0.24595856335752   -3.00994659887232   -1.82251864107308
C         0.74437994778014   -2.28864182906554   -2.57834364915203
C         1.97277315778081   -2.28886786996224   -1.82123297361500
C         1.74047949051993   -3.00869185996844   -0.59628665750316
C         0.36723997097109   -3.45141217209718   -0.59451600142085
C         2.79037886605772   -1.16555357896196   -1.82327783023143
C         2.41089305114792   -0.00000000187188   -2.58039777479056
C         2.79037887401685    1.16555357117797   -1.82327783075234
C         3.40603360997368    0.72123457454044   -0.59865141341783
C         3.40603360575726   -0.72123459022213   -0.59865140804728
C         1.97277316981196    2.28886786378109   -1.82123297974357
C         0.74437996777665    2.28864182088797   -2.57834365752174
C        -0.24595854119548    3.00994659818222   -1.82251864902613
C         0.36723999343627    3.45141217398077   -0.59451601586703
C         1.74047949925041    3.00869184840803   -0.59628665997875
C        -1.56874385257935    2.58066320658740   -1.82124142892042
C        -1.94761876785270    1.41534845260056   -2.58377620493660
C        -2.94263208840449    0.69437169864597   -1.82975147126479
C        -3.17506441541333    1.41464443300821   -0.60323034037943
C        -2.32702974055208    2.58150201753781   -0.60097040952578
C        -2.94263208843995   -0.69437169606301   -1.82975146077417
C        -1.94761877724808   -1.41534845838225   -2.58377620591271
C        -1.56874387077985   -2.58066320284314   -1.82124142240270
C        -2.32702974817772   -2.58150200803906   -0.60097039998381
C        -3.17506442630058   -1.41464441758843   -0.60323033117857
C        -0.99146916476389   -0.72103493054181   -3.31045917061643
C        -0.99146915456786    0.72103492769320   -3.31045916324162
C         0.38049832856290    1.16557986367153   -3.30906274499929
C         1.22666267387542   -0.00000001506613   -3.30798978463620
C         0.38049832206060   -1.16557987571845   -3.30906275370236
Cl       -1.93703653475667    0.00000003477518    5.25361089433714
61
 energy: -132.999444845263 gnorm: 0.000768311335 xtb: 6.4.1 (a3dbbd7)
C        -1.29809082433675    0.00000000686999    3.53196285662751
C        -0.37110134168122   -1.17486383509656    3.31043472979873
C         0.97961011587061   -0.72149254721334    3.28085986279829
C         0.97961011884721    0.72149255226159    3.28085986375106
C        -0.37110133547807    1.17486384623130    3.31043472334297
C         2.33528367947902   -2.58258481772279    0.58348301549786
C         3.18187751180572   -1.41537541050635    0.58233872214053
C         2.94359278400957   -0.69400013448573    1.80694164619669
C         1.95045199388044   -1.41560991188520    2.56192508391283
C         1.57753643475495   -2.57855790175630    1.80918521885002
C         3.18187751611865    1.41537539645467    0.58233871621311
C         2.33528368624218    2.58258480603663    0.58348300822475
C         1.57753644440705    2.57855789862501    1.80918520660861
C         1.95045199840708    1.41560990915310    2.56192508104089
C         2.94359278224108    0.69400012367910    1.80694164399511
C        -0.36131454815148    3.44502867839647    0.58575558475503
C        -1.73467274004932    3.00156718848600    0.58912867782231
C        -1.97231313813523    2.29310490752600    1.81068330574243
C        -0.73406542104927    2.27677477886741    2.56829094640711
C         0.25302447695160    2.99778358662704    1.80889683198832
C        -3.39631567494140    0.71762081054723    0.57412773234963
C        -3.39631567218528   -0.71762079292996    0.57412773554069
C        -2.77151831702928   -1.14950518575513    1.80647513543435
C        -2.42198461648363    0.00000000843339    2.56089286810280
C        -2.77151831073762    1.14950520666761    1.80647513451395
C        -1.73467275054431   -3.00156717639199    0.58912868612659
C        -0.36131456595702   -3.44502866947485    0.58575559431594
C         0.25302446401071   -2.99778358286020    1.80889683384168
C        -0.73406543134544   -2.27677476693035    2.56829095203188
C        -1.97231314805974   -2.29310489368288    1.81068330979431
C        -0.24582736502270   -3.00967961499153   -1.82228647629742
C         0.74437898209745   -2.28836622767560   -2.57820357729974
C         1.97262890432690   -2.28852837730156   -1.82108687193679
C         1.74021046032377   -3.00816973572376   -0.59618376291844
C         0.36724991863030   -3.45114790949037   -0.59445744608774
C         2.79016836892253   -1.16546251560143   -1.82325029683095
C         2.41069610749194   -0.00000000904125   -2.58023631209361
C         2.79016837729779    1.16546249928237   -1.82325030456820
C         3.40583323240176    0.72103629472856   -0.59873030071882
C         3.40583323036436   -0.72103631396492   -0.59873029948576
C         1.97262891609747    2.28852836177072   -1.82108687919709
C         0.74437899363739    2.28836621524631   -2.57820358163918
C        -0.24582735089248    3.00967960923232   -1.82228648760284
C         0.36724993224992    3.45114790106390   -0.59445745280547
C         1.74021047917387    3.00816972905821   -0.59618377351216
C        -1.56838212741610    2.58043198611407   -1.82120435123064
C        -1.94713528581908    1.41531607978039   -2.58351926895497
C        -2.94227495988493    0.69430668631604   -1.82974724016604
C        -3.17462603539341    1.41441869756703   -0.60328606690850
C        -2.32682881296259    2.58105955114016   -0.60084840467015
C        -2.94227495027417   -0.69430667003972   -1.82974724030024
C        -1.94713529283557   -1.41531607351032   -2.58351926502402
C        -1.56838213741944   -2.58043198106820   -1.82120434383031
C        -2.32682882674364   -2.58105953719198   -0.60084840121682
C        -3.17462603627616   -1.41441868048762   -0.60328606835443
C        -0.99131070971594   -0.72095158757799   -3.31028483042743
C        -0.99131070628146    0.72095158334491   -3.31028482541833
C         0.38058896533024    1.16546563276051   -3.30876952320153
C         1.22670649822586   -0.00000001117734   -3.30780230994946
C         0.38058895388113   -1.16546564541482   -3.30876952076520
Cl       -1.93569277797237    0.00000005929290    5.25500140441570
61
 energy: -132.999445551619 gnorm: 0.000283441300 xtb: 6.4.1 (a3dbbd7)
C        -1.29787641585044    0.00000000667922    3.53202116646677
C        -0.37104481065441   -1.17482543278384    3.31059261925198
C         0.97976515916979   -0.72156107712535    3.28104712820401
C         0.97976516288852    0.72156107858176    3.28104712903830
C        -0.37104480369715    1.17482543974237    3.31059261196133
C         2.33542477044298   -2.58262367514800    0.58344648152653
C         3.18204998146151   -1.41541573389074    0.58232164338992
C         2.94371439232197   -0.69403081124004    1.80704033467785
C         1.95046028292753   -1.41556331193497    2.56175470892469
C         1.57765655865325   -2.57867331000175    1.80910634993432
C         3.18204998724502    1.41541571949115    0.58232164075587
C         2.33542478200271    2.58262366481123    0.58344647645177
C         1.57765657055445    2.57867330572288    1.80910634408513
C         1.95046028802410    1.41556330676406    2.56175470609403
C         2.94371439196890    0.69403079981791    1.80704033305658
C        -0.36121075596935    3.44514295050745    0.58582583710889
C        -1.73469665175506    3.00153729309989    0.58916988267371
C        -1.97222480968515    2.29311493084291    1.81061577575745
C        -0.73399995198985    2.27688767388331    2.56852066259501
C         0.25309260640965    2.99783526839328    1.80896440342803
C        -3.39644111693020    0.71758396395048    0.57410459491055
C        -3.39644111678014   -0.71758394656596    0.57410459627180
C        -2.77162062296740   -1.14961447038060    1.80663983076053
C        -2.42167808374330    0.00000000706395    2.56057409222010
C        -2.77162061678502    1.14961448537109    1.80663982725741
C        -1.73469666570155   -3.00153728372236    0.58916988949562
C        -0.36121077255854   -3.44514294643210    0.58582584400210
C         0.25309259184262   -2.99783526559993    1.80896440907514
C        -0.73399996370391   -2.27688766599920    2.56852066930614
C        -1.97222482108763   -2.29311491985322    1.81061578186543
C        -0.24585749953026   -3.00970010195394   -1.82231347965118
C         0.74437853852654   -2.28840468878679   -2.57821405635399
C         1.97266851568853   -2.28859742934162   -1.82114066131060
C         1.74029468397596   -3.00828365076522   -0.59623199445314
C         0.36724166472022   -3.45112319273930   -0.59442676666074
C         2.79025576776539   -1.16550190574122   -1.82330220682219
C         2.41075474253680   -0.00000000646621   -2.58030010604101
C         2.79025577605798    1.16550189118991   -1.82330220971950
C         3.40596463265820    0.72108335298546   -0.59876616242065
C         3.40596463022393   -0.72108336998219   -0.59876616154969
C         1.97266852788496    2.28859741772025   -1.82114066587012
C         0.74437854988981    2.28840467889635   -2.57821406029349
C        -0.24585748565818    3.00970009751647   -1.82231348592876
C         0.36724168083752    3.45112318924386   -0.59442677340462
C         1.74029469960446    3.00828364305192   -0.59623200072625
C        -1.56846053681017    2.58048540744566   -1.82120276259497
C        -1.94728838726557    1.41533157523938   -2.58356902764316
C        -2.94242062809452    0.69433933904939   -1.82975460110405
C        -3.17477337420380    1.41443838671422   -0.60325812912074
C        -2.32688214488324    2.58112377425828   -0.60085951145197
C        -2.94242062508280   -0.69433932710405   -1.82975459899308
C        -1.94728839272887   -1.41533157223824   -2.58356902527151
C        -1.56846054881895   -2.58048540519810   -1.82120275725639
C        -2.32688215723426   -2.58112376469606   -0.60085950602596
C        -3.17477337870350   -1.41443837233136   -0.60325812666512
C        -0.99138630436206   -0.72097083275832   -3.31026332920544
C        -0.99138630088463    0.72097082837249   -3.31026332654349
C         0.38053783888723    1.16547456213199   -3.30881397511022
C         1.22667969766839   -0.00000000811679   -3.30781189806247
C         0.38053783212074   -1.16547457266707   -3.30881397467606
Cl       -1.93714244443625    0.00000008763683    5.25460419915291
