62
 energy: -137.578639186513 gnorm: 0.041396923221 xtb: 6.4.1 (a3dbbd7)
C        -1.31467022849153    0.00000012477464    3.59679618519386
C        -0.39483835985791   -1.15407611305736    3.29584072014092
C         0.96701509887902   -0.71277568206868    3.26838886940109
C         0.96701507400964    0.71277557117094    3.26838890600799
C        -0.39483856804325    1.15407606711106    3.29584077488117
C         2.32776991903254   -2.56386459093859    0.57168848552992
C         3.18106836563904   -1.40857977858365    0.56984190257766
C         2.92573273094994   -0.69123886399947    1.79624371402277
C         1.92872117856115   -1.40029107361394    2.54365264354862
C         1.56676056658498   -2.55803943678185    1.79023069385765
C         3.18106835314711    1.40857976430374    0.56984189497468
C         2.32777005529050    2.56386450077980    0.57168843388775
C         1.56676060862927    2.55803931785439    1.79023068472596
C         1.92872128914811    1.40029106313953    2.54365274756551
C         2.92573279978044    0.69123877161378    1.79624367720160
C        -0.36435047274221    3.40799773637204    0.58204926019828
C        -1.72586170754473    2.95816718266444    0.57585029631169
C        -1.97991488979304    2.25127673200553    1.79515769514142
C        -0.73595329998767    2.25155614332890    2.56953560868616
C         0.24442163330825    2.95888068398272    1.80039018471152
C        -3.35953301966758    0.71273032055120    0.57721110593928
C        -3.35953303948390   -0.71273025586226    0.57721095086748
C        -2.78341628364975   -1.15458316478154    1.81061203283922
C        -2.64683671258137    0.00000006120941    2.76847216858754
C        -2.78341639234359    1.15458301184310    1.81061197547137
C        -1.72586153491594   -2.95816722072806    0.57585030214472
C        -0.36435046273225   -3.40799763232101    0.58204926768371
C         0.24442171002961   -2.95888059463518    1.80039021223045
C        -0.73595316468814   -2.25155619100202    2.56953562022845
C        -1.97991499010718   -2.25127661289293    1.79515777342947
C        -0.23332495171516   -2.99215690334584   -1.83064949933231
C         0.75780964950635   -2.28033627850884   -2.58631501057066
C         1.97747773967403   -2.28034533762739   -1.82816081026675
C         1.73951406147878   -2.99228265582611   -0.60479690871199
C         0.36674673362199   -3.42113722932495   -0.59578108186534
C         2.79511775726096   -1.16284106217262   -1.82919236359245
C         2.41730242745469   -0.00000008270248   -2.58606883585737
C         2.79511771324256    1.16284113382820   -1.82919247991267
C         3.40551395327527    0.72013898202585   -0.60623337415683
C         3.40551395726872   -0.72013897798542   -0.60623344533482
C         1.97747781632254    2.28034546708303   -1.82816077793733
C         0.75780958703246    2.28033637182316   -2.58631499715849
C        -0.23332484606349    2.99215700304221   -1.83064939097371
C         0.36674672656120    3.42113721254084   -0.59578113260480
C         1.73951420152844    2.99228246035031   -0.60479695785773
C        -1.54881789221460    2.56394619583644   -1.83687731612264
C        -1.92492324229733    1.40849878223403   -2.60297445251714
C        -2.91125069912272    0.69122789133033   -1.83055169506809
C        -3.13810195313531    1.40074324655361   -0.60593054983190
C        -2.30353830279772    2.55874127412821   -0.61449523916615
C        -2.91125093073277   -0.69122787795171   -1.83055147666628
C        -1.92492325723872   -1.40849898766973   -2.60297442676768
C        -1.54881783116067   -2.56394611648910   -1.83687721801993
C        -2.30353835474878   -2.55874129333644   -0.61449542526325
C        -3.13810193684275   -1.40074316613013   -0.60593044345403
C        -0.97032154265530   -0.72016483423955   -3.32602058196208
C        -0.97032152903333    0.72016490835754   -3.32602062197962
C         0.39660257901526    1.16298789041233   -3.32042821962769
C         1.24251763220462   -0.00000003468004   -3.31669491284597
C         0.39660262324789   -1.16298789206079   -3.32042823387987
Cl       -1.64395798357554    0.00000005602182    5.38603561577120
Cl       -4.10906111617914   -0.00000000304191    3.85103541227097
62
 energy: -137.582078215170 gnorm: 0.017502648480 xtb: 6.4.1 (a3dbbd7)
C        -1.30709478124962    0.00000007188321    3.58625004429631
C        -0.38789130000188   -1.16358021865185    3.29250542435045
C         0.97224335745908   -0.71728317378322    3.27065562078322
C         0.97224333451828    0.71728315653969    3.27065562259213
C        -0.38789138874753    1.16358020488256    3.29250544822285
C         2.33437636796823   -2.57762099595992    0.57966974108724
C         3.18440142561798   -1.41422456335014    0.58022104191775
C         2.94061326800366   -0.69316521995302    1.80673152472913
C         1.94067197990729   -1.40972408811431    2.55265942426840
C         1.57364415667522   -2.57336955905490    1.80054814548635
C         3.18440138586641    1.41422454291946    0.58022104000633
C         2.33437639877370    2.57762096092640    0.57966973932820
C         1.57364416372812    2.57336952852845    1.80054816373073
C         1.94067199159004    1.40972409410363    2.55265945744219
C         2.94061328447312    0.69316518277747    1.80673151911366
C        -0.36316131965920    3.42946757176212    0.57946936640564
C        -1.73068630814230    2.98246219275147    0.57436103073402
C        -1.97962938389338    2.26849769398945    1.79397621636258
C        -0.73598742230583    2.26866924600170    2.56730663114706
C         0.24719784021165    2.98291644628552    1.80343458191074
C        -3.36642804126307    0.71724753614697    0.57379235234744
C        -3.36642807521666   -0.71724746029414    0.57379226485630
C        -2.78453315836219   -1.16370172276465    1.80295137961432
C        -2.64071366378733    0.00000005560454    2.75712832162804
C        -2.78453321191929    1.16370171002191    1.80295136384091
C        -1.73068624436163   -2.98246221015657    0.57436101101336
C        -0.36316135761034   -3.42946752207696    0.57946935101049
C         0.24719784214087   -2.98291638096272    1.80343458785068
C        -0.73598739011107   -2.26866927207838    2.56730666157967
C        -1.97962943404140   -2.26849759690165    1.79397622310592
C        -0.23784522379488   -3.00472871217546   -1.83172395591640
C         0.75507182105296   -2.28743235321445   -2.58595273542199
C         1.97911247448549   -2.28747125384685   -1.82533337611154
C         1.74276127532895   -3.00477411138365   -0.60102842689331
C         0.36880822148971   -3.44094617661194   -0.59893529887682
C         2.79718452972312   -1.16558516631921   -1.82487147120707
C         2.41807807405012   -0.00000006232099   -2.58244418894844
C         2.79718448889347    1.16558513909310   -1.82487151524872
C         3.40915214949383    0.72147705250912   -0.59936687907274
C         3.40915217278137   -0.72147709333326   -0.59936691417263
C         1.97911248394942    2.28747124525545   -1.82533333217951
C         0.75507178416378    2.28743237138632   -2.58595275432889
C        -0.23784519201751    3.00472869510492   -1.83172389834071
C         0.36880819930660    3.44094614419418   -0.59893531308579
C         1.74276131870663    3.00477400808207   -0.60102844216407
C        -1.55852023698357    2.57767615644761   -1.83921386187312
C        -1.93538512899610    1.41419848742596   -2.60112686278879
C        -2.92701965253913    0.69315144790777   -1.83918806671044
C        -3.15259898006335    1.40992857212068   -0.61247566183345
C        -2.31603701287335    2.57358306734870   -0.61631730864091
C        -2.92701971441228   -0.69315141166269   -1.83918799764210
C        -1.93538510349336   -1.41419855463950   -2.60112688015976
C        -1.55852018847655   -2.57767609764479   -1.83921379570729
C        -2.31603703067273   -2.57358307706318   -0.61631737802809
C        -3.15259893866090   -1.40992850283526   -0.61247562350616
C        -0.97751289760189   -0.72149190939557   -3.32540726716515
C        -0.97751286639560    0.72149195941472   -3.32540726615338
C         0.39234231945084    1.16564148779551   -3.31944223558910
C         1.23947466111980   -0.00000002087192   -3.31504081556113
C         0.39234231860130   -1.16564148935750   -3.31944222701330
Cl       -1.60360746386727   -0.00000006729239    5.37879386135007
Cl       -4.11728193246785   -0.00000000122614    3.81566252495317
62
 energy: -137.582245181240 gnorm: 0.008527559583 xtb: 6.4.1 (a3dbbd7)
C        -1.30393499096352    0.00000001335211    3.57430710613702
C        -0.38327891224107   -1.16765149018573    3.28756356182981
C         0.97404438956762   -0.71955683601289    3.27019782634068
C         0.97404437347022    0.71955684219162    3.27019781350614
C        -0.38327893614700    1.16765148554892    3.28756357450257
C         2.33661677022062   -2.58319604667227    0.58325219596912
C         3.18508882187034   -1.41634024311791    0.58436727057309
C         2.94652687257423   -0.69372861809975    1.80964834491802
C         1.94656437614312   -1.41444447234589    2.55722735971115
C         1.57643319496290   -2.57943305130428    1.80573887019719
C         3.18508879796481    1.41634021988981    0.58436727269570
C         2.33661676689329    2.58319603658269    0.58325220974508
C         1.57643319338752    2.57943304190879    1.80573888491144
C         1.94656435477884    1.41444446153587    2.55722735678742
C         2.94652686335948    0.69372859705890    1.80964834940440
C        -0.36245589727089    3.43915723076338    0.57806492033018
C        -1.73292118541687    2.99426365055980    0.57361984741917
C        -1.97792375565224    2.27601319053007    1.79257443711222
C        -0.73586346017748    2.27605796196335    2.56437721159150
C         0.24855867527885    2.99440658812450    1.80478814124398
C        -3.36811588624536    0.71954479524200    0.57222088608528
C        -3.36811589238500   -0.71954473382942    0.57222086236115
C        -2.78259844556594   -1.16761822559290    1.79680649834886
C        -2.63180842104684    0.00000004059234    2.74927337481605
C        -2.78259846524983    1.16761827268600    1.79680649228089
C        -1.73292118091411   -2.99426363984846    0.57361983926690
C        -0.36245593981820   -3.43915722006234    0.57806491179421
C         0.24855865337435   -2.99440657457825    1.80478814576875
C        -0.73586346915627   -2.27605797388556    2.56437723428086
C        -1.97792377105104   -2.27601313461474    1.79257443341638
C        -0.23995669099490   -3.00930611202542   -1.83157927869604
C         0.75339153667847   -2.28965153553823   -2.58499645614515
C         1.97931580768772   -2.28967784083180   -1.82330546980942
C         1.74374490374512   -3.00931791141341   -0.59899434872676
C         0.36980687231015   -3.44982169245600   -0.60039779217000
C         2.79693874157951   -1.16630747662000   -1.82264920012526
C         2.41786620056709   -0.00000003023750   -2.58060087587482
C         2.79693872073780    1.16630742778765   -1.82264919809640
C         3.41020633199014    0.72165812478094   -0.59659501559640
C         3.41020634722267   -0.72165816705388   -0.59659502698463
C         1.97931580600504    2.28967779552682   -1.82330544009060
C         0.75339153060038    2.28965152261579   -2.58499647023929
C        -0.23995668507914    3.00930607362621   -1.83157926765302
C         0.36980686551687    3.44982167192381   -0.60039779349580
C         1.74374491170808    3.00931788154089   -0.59899434826180
C        -1.56251476386529    2.58320832670971   -1.83951636294326
C        -1.93928165342625    1.41633650255934   -2.59970170651648
C        -2.93218260139979    0.69371740172713   -1.84311719166233
C        -3.15973008820676    1.41448470386529   -0.61551833656055
C        -2.32195371749472    2.57942412798723   -0.61653264683234
C        -2.93218258887627   -0.69371736690526   -1.84311719244403
C        -1.93928162842237   -1.41633648694099   -2.59970171180406
C        -1.56251475281209   -2.58320829422495   -1.83951632703655
C        -2.32195372010636   -2.57942411513075   -0.61653263961993
C        -3.15973005820169   -1.41448465269285   -0.61551832708062
C        -0.98020230699782   -0.72166041258625   -3.32460695778833
C        -0.98020229115491    0.72166043991647   -3.32460696449473
C         0.39067397669070    1.16631441031812   -3.31777748057659
C         1.23812896500688   -0.00000000981741   -3.31364904517817
C         0.39067396626608   -1.16631441675272   -3.31777747928295
Cl       -1.63994214875715   -0.00000004754940    5.35638845660348
Cl       -4.08062823751975   -0.00000002657481    3.84011059856216
62
 energy: -137.582477603294 gnorm: 0.003258584950 xtb: 6.4.1 (a3dbbd7)
C        -1.30496077936367    0.00000000023692    3.57729457927532
C        -0.38253812012502   -1.16631792288869    3.28561248875394
C         0.97364808254708   -0.71962648737029    3.26891947313666
C         0.97364807328960    0.71962649524815    3.26891946279893
C        -0.38253812771422    1.16631792950798    3.28561250240859
C         2.33600392242523   -2.58307730256805    0.58371108481335
C         3.18455829003708   -1.41623265112498    0.58440307626639
C         2.94657245993716   -0.69357590650863    1.80884575879486
C         1.94704033822580   -1.41481103300116    2.55769218411889
C         1.57592248642899   -2.57890042750022    1.80656016487855
C         3.18455828525688    1.41623262817819    0.58440307878872
C         2.33600392699208    2.58307729457746    0.58371109345532
C         1.57592249298815    2.57890041869234    1.80656017004952
C         1.94704032695535    1.41481101846306    2.55769217861764
C         2.94657245158088    0.69357588714139    1.80884576287006
C        -0.36281164533523    3.43904755348170    0.57862465949409
C        -1.73340805617972    2.99449877130420    0.57442769199401
C        -1.97758076745964    2.27541810977682    1.79317427035756
C        -0.73656614465431    2.27541263649951    2.56421678749296
C         0.24801938938736    2.99451823844279    1.80554665048717
C        -3.36694327247906    0.71962592768214    0.57205964331101
C        -3.36694326780346   -0.71962588240666    0.57205963844978
C        -2.78119484376867   -1.16629099393389    1.79534624754164
C        -2.63417998691114    0.00000002936990    2.75158726247944
C        -2.78119485352008    1.16629104482255    1.79534624489766
C        -1.73340806633967   -2.99449874931815    0.57442769328144
C        -0.36281167980659   -3.43904755111511    0.57862466041569
C         0.24801936739325   -2.99451824182550    1.80554665734535
C        -0.73656615739999   -2.27541263376399    2.56421679757392
C        -1.97758077517734   -2.27541807195308    1.79317427148509
C        -0.24031422736240   -3.00884872161154   -1.83074211159386
C         0.75284075649380   -2.28923118060253   -2.58418365260286
C         1.97883118110489   -2.28924203660354   -1.82244096225776
C         1.74317422465903   -3.00885633970869   -0.59830109364034
C         0.36944935135315   -3.44991454703312   -0.59978887583760
C         2.79618128362274   -1.16611053859681   -1.82224996493684
C         2.41748403598782   -0.00000001691150   -2.58025736453222
C         2.79618127698500    1.16611049902028   -1.82224995494749
C         3.40992291734943    0.72141861395122   -0.59653797890429
C         3.40992292316984   -0.72141864830212   -0.59653798450953
C         1.97883119061952    2.28924200198863   -1.82244094813762
C         0.75284076552500    2.28923116702060   -2.58418365757449
C        -0.24031421732067    3.00884869840305   -1.83074211549934
C         0.36944936151017    3.44991453767180   -0.59978887818683
C         1.74317423646578    3.00885633001039   -0.59830109355760
C        -1.56262743569150    2.58307280896577   -1.83872963129595
C        -1.93908233721422    1.41623050534574   -2.59917495762600
C        -2.93149167719923    0.69356794929938   -1.84350822596582
C        -3.16032745916633    1.41480933869956   -0.61568314017565
C        -2.32242961216615    2.57887548131814   -0.61568847766785
C        -2.93149166203777   -0.69356792516682   -1.84350823722507
C        -1.93908232751482   -1.41623048132772   -2.59917495503320
C        -1.56262744611272   -2.58307279297137   -1.83872961287056
C        -2.32242961788357   -2.57887546110084   -0.61568845901505
C        -3.16032744903094   -1.41480930223583   -0.61568313724979
C        -0.98010690721456   -0.72141674238370   -3.32424720281260
C        -0.98010690079665    0.72141675502175   -3.32424721155280
C         0.39065601236565    1.16610864722139   -3.31688384956410
C         1.23798884318917   -0.00000000604754   -3.31311113242677
C         0.39065600504048   -1.16610865541053   -3.31688385500245
Cl       -1.60512759441063   -0.00000003732117    5.36567331782002
Cl       -4.10445579818438   -0.00000004483548    3.81300110547326
62
 energy: -137.582499034282 gnorm: 0.001904737186 xtb: 6.4.1 (a3dbbd7)
C        -1.30555923455661    0.00000000983796    3.57761644986375
C        -0.38291997011427   -1.16604931303988    3.28621703809522
C         0.97286747227035   -0.71941587266294    3.26874671128505
C         0.97286746680494    0.71941588004967    3.26874670728460
C        -0.38291997756328    1.16604932724795    3.28621704761247
C         2.33537066964787   -2.58190462898467    0.58302427120752
C         3.18412744600682   -1.41564656688127    0.58358967622157
C         2.94539801925781   -0.69338083252020    1.80795179934017
C         1.94593615781719   -1.41414962767948    2.55708115431942
C         1.57522471142355   -2.57742021936319    1.80575574143437
C         3.18412744819849    1.41564654539705    0.58358967699201
C         2.33537068454029    2.58190461632286    0.58302427175067
C         1.57522472578056    2.57742021348830    1.80575574203148
C         1.94593616069297    1.41414962112746    2.55708115534613
C         2.94539801833473    0.69338081490609    1.80795180123870
C        -0.36287980547453    3.43727983483013    0.57876509386176
C        -1.73301045915874    2.99263107939819    0.57456199845494
C        -1.97779776399212    2.27459810326152    1.79361836209547
C        -0.73682582397380    2.27460008598107    2.56471916811444
C         0.24773659569047    2.99265787051435    1.80530798961210
C        -3.36623220877271    0.71941586347407    0.57260483616377
C        -3.36623220699178   -0.71941582262305    0.57260482663939
C        -2.78145036739291   -1.16605124818289    1.79589808832399
C        -2.63401767116255    0.00000002239291    2.75217291728755
C        -2.78145037731449    1.16605128662797    1.79589809060131
C        -1.73301047001178   -2.99263105941515    0.57456199928660
C        -0.36287983470812   -3.43727982704614    0.57876509745547
C         0.24773657625424   -2.99265786470695    1.80530799551361
C        -0.73682583363574   -2.27460007495347    2.56471917441089
C        -1.97779777556541   -2.27459806871189    1.79361836375935
C        -0.23994158761618   -3.00768404311670   -1.83067397178793
C         0.75304740846538   -2.28856529332941   -2.58428047025540
C         1.97875619541558   -2.28857094952341   -1.82267791873107
C         1.74289973108569   -3.00769024402437   -0.59861541102250
C         0.36928388574350   -3.44823354435982   -0.59955465314796
C         2.79612802668903   -1.16588256076606   -1.82272331876967
C         2.41754599950087   -0.00000001631806   -2.58068776692118
C         2.79612802547974    1.16588253079340   -1.82272331687317
C         3.40971821163519    0.72121836884169   -0.59714293195400
C         3.40971821468026   -0.72121839925551   -0.59714293810968
C         1.97875621128407    2.28857092729089   -1.82267791371907
C         0.75304741983610    2.28856528363537   -2.58428047443412
C        -0.23994156867706    3.00768403280494   -1.83067397394915
C         0.36928390360262    3.44823353867019   -0.59955465857715
C         1.74289975115192    3.00769022750736   -0.59861541554039
C        -1.56176890421661    2.58190529416716   -1.83851020309467
C        -1.93819018954424    1.41564415251002   -2.59921872193691
C        -2.93018305884901    0.69337590700446   -1.84290622568248
C        -3.15918199926708    1.41415880082384   -0.61502853041568
C        -2.32137509236740    2.57742730355311   -0.61543788789956
C        -2.93018305925042   -0.69337588588459   -1.84290623002321
C        -1.93819019190992   -1.41564414548803   -2.59921872425025
C        -1.56176891831705   -2.58190528289992   -1.83851019181925
C        -2.32137510668017   -2.57742728425950   -0.61543788385032
C        -3.15918199992903   -1.41415876706363   -0.61502852835625
C        -0.97951021504462   -0.72121837649243   -3.32443864368835
C        -0.97951020881063    0.72121838060997   -3.32443864400054
C         0.39107101257171    1.16588478712199   -3.31713632651800
C         1.23831324049011   -0.00000000775347   -3.31342256164176
C         0.39107100719492   -1.16588479688456   -3.31713632992789
Cl       -1.60968391986930   -0.00000005157051    5.36492076430838
Cl       -4.10164955126740   -0.00000005051727    3.81655469370997
62
 energy: -137.582502024371 gnorm: 0.001643203921 xtb: 6.4.1 (a3dbbd7)
C        -1.30589536213893    0.00000000825678    3.57726752977409
C        -0.38255378076913   -1.16616512413256    3.28593482368343
C         0.97251083140843   -0.71954363071224    3.26848716749970
C         0.97251083084122    0.71954363433188    3.26848717039618
C        -0.38255377709261    1.16616514094452    3.28593483394525
C         2.33517901642767   -2.58175442385973    0.58299285110508
C         3.18392918954422   -1.41548634626309    0.58353737085046
C         2.94543768478709   -0.69330386502602    1.80765696964239
C         1.94591325557102   -1.41428543839029    2.55720562561958
C         1.57504415646534   -2.57703361848271    1.80589272098614
C         3.18392919763775    1.41548632434719    0.58353737156822
C         2.33517903294217    2.58175440865011    0.58299284862485
C         1.57504417357291    2.57703361259624    1.80589271827168
C         1.94591326316298    1.41428543059919    2.55720562743218
C         2.94543768490644    0.69330384790906    1.80765697170054
C        -0.36287646079772    3.43714859834705    0.57877418687947
C        -1.73307252784176    2.99275470782031    0.57468217241026
C        -1.97776823002329    2.27492756331311    1.79393586079259
C        -0.73709589533463    2.27492404772702    2.56483374354414
C         0.24766618370419    2.99274175826304    1.80542804930784
C        -3.36584743564448    0.71954594675003    0.57281880849397
C        -3.36584743126280   -0.71954591593445    0.57281880393484
C        -2.78130495802599   -1.16616442851706    1.79545208267334
C        -2.63357026674034    0.00000001318721    2.75232802072141
C        -2.78130496280344    1.16616446271892    1.79545209200224
C        -1.73307254790802   -2.99275469046088    0.57468217375041
C        -0.36287648389380   -3.43714859506450    0.57877419116798
C         0.24766616483537   -2.99274175742789    1.80542805181347
C        -0.73709590816831   -2.27492403275158    2.56483374136754
C        -1.97776824025877   -2.27492754119056    1.79393585924812
C        -0.23996662203067   -3.00739205250012   -1.83055013684521
C         0.75296675363888   -2.28838117585415   -2.58422665866068
C         1.97873230148545   -2.28837987767974   -1.82258635370087
C         1.74279751428536   -3.00739022261557   -0.59854450313392
C         0.36923684570521   -3.44810511784598   -0.59947242333484
C         2.79610363670238   -1.16583565444217   -1.82282904285152
C         2.41760068083361   -0.00000001038048   -2.58080648251794
C         2.79610364325551    1.16583563033493   -1.82282904164089
C         3.40979330835541    0.72108006903497   -0.59724395589441
C         3.40979330887457   -0.72108009588446   -0.59724395849472
C         1.97873231856004    2.28837986086794   -1.82258635720115
C         0.75296677070951    2.28838116712008   -2.58422666061944
C        -0.23996660061634    3.00739205218845   -1.83055014168742
C         0.36923687106686    3.44810511550860   -0.59947242661541
C         1.74279753461406    3.00739021022672   -0.59854450663953
C        -1.56166237504520    2.58175484574317   -1.83834020251211
C        -1.93807585460257    1.41548835078552   -2.59905866016802
C        -2.92994309346078    0.69330371329822   -1.84305825012193
C        -3.15925362887549    1.41428304063570   -0.61493101800467
C        -2.32139305980471    2.57703372273382   -0.61519120250582
C        -2.92994309633037   -0.69330369598943   -1.84305825850712
C        -1.93807586568615   -1.41548834233479   -2.59905866414774
C        -1.56166239530106   -2.58175483996348   -1.83834020347920
C        -2.32139307753425   -2.57703370491161   -0.61519120136922
C        -3.15925363831625   -1.41428301698796   -0.61493102202187
C        -0.97946628710982   -0.72108014703771   -3.32454108263881
C        -0.97946628374174    0.72108014581310   -3.32454107792030
C         0.39116028382715    1.16583460557465   -3.31715850946458
C         1.23837919625221   -0.00000000599899   -3.31352319099968
C         0.39116027783613   -1.16583461320039   -3.31715851028432
Cl       -1.61162777709819   -0.00000001417962    5.36354524981988
Cl       -4.09972294200953   -0.00000005569381    3.81753595168057
62
 energy: -137.582496574496 gnorm: 0.002181928683 xtb: 6.4.1 (a3dbbd7)
C        -1.30660868771634    0.00000000666342    3.57697979616169
C        -0.38236615248589   -1.16551560523531    3.28515030523685
C         0.97238653357061   -0.71954952796563    3.26812543023924
C         0.97238653747819    0.71954952860369    3.26812543638744
C        -0.38236614006691    1.16551561988557    3.28515030761129
C         2.33514740027367   -2.58175003545197    0.58287959215247
C         3.18392323768792   -1.41544463106031    0.58338570874864
C         2.94561313571514   -0.69326124223639    1.80733335206204
C         1.94598988800961   -1.41436317732541    2.55713147189504
C         1.57497393599944   -2.57674165461101    1.80587560631908
C         3.18392324935811    1.41544460847914    0.58338570792653
C         2.33514741799906    2.58175001822599    0.58287958598396
C         1.57497395488772    2.57674164864577    1.80587559962270
C         1.94598989868106    1.41436316901149    2.55713147203019
C         2.94561313699298    0.69326122547336    1.80733335329215
C        -0.36287417000527    3.43708394047194    0.57878441245956
C        -1.73317580078398    2.99302514962644    0.57480397538955
C        -1.97794098907231    2.27557707111107    1.79429199569442
C        -0.73725339653912    2.27482180155289    2.56474509838163
C         0.24763519396449    2.99267481174254    1.80546903603078
C        -3.36575990316224    0.71972468726203    0.57314647576921
C        -3.36575989610377   -0.71972465857447    0.57314647474217
C        -2.78178979732562   -1.16698861712394    1.79536937780708
C        -2.63387713249784    0.00000000782057    2.75226653672779
C        -2.78178979929082    1.16698864983987    1.79536939163879
C        -1.73317582750373   -2.99302513281306    0.57480397893292
C        -0.36287418921258   -3.43708393867172    0.57878441840390
C         0.24763517472792   -2.99267481228784    1.80546903757857
C        -0.73725341245712   -2.27482178529424    2.56474509485905
C        -1.97794099904660   -2.27557705653577    1.79429199363975
C        -0.24001699003139   -3.00705340630212   -1.83044579451296
C         0.75287505264672   -2.28789624367142   -2.58403314426224
C         1.97886276930668   -2.28867325436417   -1.82266038166847
C         1.74276068560516   -3.00739211262904   -0.59853809855110
C         0.36916715047811   -3.44804479784691   -0.59942448329391
C         2.79670201263513   -1.16663450083788   -1.82310620649451
C         2.41822359351976   -0.00000000630857   -2.58055083067703
C         2.79670202498393    1.16663448127085   -1.82310620730114
C         3.41007150222541    0.72110460882381   -0.59746819743952
C         3.41007150054066   -0.72110463343663   -0.59746819606643
C         1.97886278629249    2.28867324124801   -1.82266039192423
C         0.75287507325614    2.28789623468269   -2.58403314612486
C        -0.24001696662468    3.00705341329554   -1.83044580198837
C         0.36916718080211    3.44804479789113   -0.59942448669261
C         1.74276070630632    3.00739210299138   -0.59853810265945
C        -1.56165901384494    2.58161399390135   -1.83814289861523
C        -1.93812611997841    1.41535606776075   -2.59882825384839
C        -2.92994192816779    0.69326126476663   -1.84302301554890
C        -3.15937039467695    1.41441038788548   -0.61472018372417
C        -2.32150660647448    2.57685302185756   -0.61494815169137
C        -2.92994193406439   -0.69326124713027   -1.84302302500103
C        -1.93812613707612   -1.41535605710071   -2.59882825705261
C        -1.56165903765712   -2.58161398925038   -1.83814290543800
C        -2.32150662652375   -2.57685300208613   -0.61494815061358
C        -3.15937040877803   -1.41441036721784   -0.61472019027704
C        -0.97954299030236   -0.72088373749456   -3.32439092143554
C        -0.97954298878745    0.72088373318513   -3.32439091502065
C         0.39128928180767    1.16500566756562   -3.31658743166473
C         1.23896881417230   -0.00000000574700   -3.31322906823340
C         0.39128927447317   -1.16500567478608   -3.31658742915427
Cl       -1.61201936666916    0.00000000766121    5.36276001727955
Cl       -4.09928925592853   -0.00000007389262    3.81757216269623
62
 energy: -137.582500588330 gnorm: 0.001179453880 xtb: 6.4.1 (a3dbbd7)
C        -1.30626408255844    0.00000000726354    3.57729127220203
C        -0.38252515833403   -1.16574295084445    3.28552130921711
C         0.97249557233429   -0.71952747895134    3.26831923155337
C         0.97249557448220    0.71952747923054    3.26831923493396
C        -0.38252515043865    1.16574296228342    3.28552131029646