62
 energy: -137.549826563170 gnorm: 0.036880900344 xtb: 6.4.1 (a3dbbd7)
C        -1.30139022210970    0.01493896922609    3.53648955391289
C        -0.35812768112486   -1.14407228275855    3.29413566472705
C         0.95174744851106   -0.71543120586849    3.27142160311485
C         0.97855827437205    0.71944211468886    3.27690971255948
C        -0.37647419550962    1.17769231235132    3.31070604227379
C         2.30676085104021   -2.56327008751187    0.57491158549336
C         3.15411683241742   -1.39954051925193    0.57230141478263
C         2.93762720237484   -0.70196470426892    1.79604240666609
C         2.08445960402336   -1.51869724231854    2.72973793305766
C         1.58092126330476   -2.58920209139730    1.80072891816555
C         3.16544554505614    1.38939893137760    0.56538543875451
C         2.32650227969516    2.55485487903568    0.57173350338248
C         1.56696598972125    2.55888561697720    1.79463533100903
C         1.93408429351183    1.40924351732181    2.54702804265824
C         2.92742637048875    0.66639124733485    1.78996595176748
C        -0.36205672235114    3.43310824133291    0.58809748098185
C        -1.73962585150358    2.99850134733925    0.58497632064834
C        -1.97587486577779    2.29155408269247    1.80359124404532
C        -0.74030172103372    2.27520011172976    2.57980577285591
C         0.24583595954812    2.98406686130856    1.80410182046126
C        -3.39766881021446    0.72493350637014    0.56859688455061
C        -3.38399739843418   -0.70739410817455    0.57281475531696
C        -2.76280264466391   -1.13334578970471    1.82003486331848
C        -2.41491839424606    0.00155267324989    2.54851152124456
C        -2.78333296031836    1.16688218050807    1.80685753867918
C        -1.71044204524597   -2.98327319681414    0.58577442942594
C        -0.34046204406273   -3.42127443683971    0.57737801487185
C         0.27415662381193   -2.98836021717577    1.80276227452371
C        -0.74198552144137   -2.28322950126535    2.57388298626789
C        -1.93281263185737   -2.27879985185661    1.82355153086924
C        -0.24343082289930   -2.99893858181685   -1.84140265506118
C         0.74008385768357   -2.27947967554326   -2.60336360980083
C         1.96026123885938   -2.27520241903737   -1.83562987379044
C         1.72607996748861   -2.98663346411354   -0.61376063872830
C         0.36594300398140   -3.42871287309211   -0.61206072643103
C         2.77317308292785   -1.15387097915271   -1.83562842914323
C         2.40304165297623    0.00729157754130   -2.60835661626924
C         2.78042454463581    1.16605174321195   -1.84563004191465
C         3.38818413535355    0.71859559964149   -0.62135204321705
C         3.37766936624385   -0.71247750074368   -0.61477904545635
C         1.96586853535224    2.28700846375069   -1.83404329191755
C         0.74027757991398    2.28754255921668   -2.58364369828890
C        -0.24630323748359    3.00184782852488   -1.82200310752398
C         0.36200283130213    3.43332337804506   -0.59381526654510
C         1.73229379611677    2.98941491328925   -0.60074553611524
C        -1.56652292962458    2.57939237017098   -1.82061009945121
C        -1.94561572744912    1.41560819028953   -2.58125185406671
C        -2.94083198795922    0.69881591365313   -1.82887857946204
C        -3.17447842281461    1.41635234054088   -0.60450561687813
C        -2.32454517120059    2.58150643055372   -0.60269080503811
C        -2.93450063255212   -0.68998997909282   -1.82168417114301
C        -1.94474989817025   -1.40941708798345   -2.57891926783500
C        -1.56133034597787   -2.57149045662334   -1.82239601008287
C        -2.30204478892752   -2.56702206670115   -0.58975777729867
C        -3.16057451760983   -1.40062470414460   -0.59436559430390
C        -0.99470405617029   -0.71593529456564   -3.30920720065965
C        -0.99392566338515    0.72434873806117   -3.30824490019383
C         0.37528325142442    1.16916709308820   -3.31828110514846
C         1.22060017125250    0.00772811412940   -3.32668612226922
C         0.37379611148961   -1.15869902416307   -3.32567552480402
Cl       -2.02830543018725   -0.00241774931629    5.20741070882018
Cl        3.06971802465820   -2.20832631885343    4.11017292777926
62
 energy: -137.552267940329 gnorm: 0.015183110171 xtb: 6.4.1 (a3dbbd7)
C        -1.29762730228582    0.01140013476765    3.52690281355643
C        -0.35765575387682   -1.15634322946505    3.29989809739463
C         0.95145508171483   -0.71574028263751    3.27020706857177
C         0.97441235648273    0.72350761855083    3.26957706087670
C        -0.37911208215649    1.18614098305248    3.30570520563367
C         2.31347752818175   -2.57198627173287    0.57498915819797
C         3.15751452281329   -1.40270805639601    0.57578700360818
C         2.94552960028234   -0.69585188055148    1.79799668610911
C         2.08287174854496   -1.51852034729842    2.72397004265761
C         1.57791411148202   -2.59793811538438    1.79810397626458
C         3.16709953431158    1.40011796430136    0.57112524501627
C         2.32472912706759    2.56842146579631    0.57556399740333
C         1.56899988201468    2.57288122671933    1.80392622403164
C         1.93993269835047    1.42095116116397    2.55689886364602
C         2.93101143164061    0.67694801036139    1.79310667964041
C        -0.36566520431013    3.44392875106076    0.58722684246130
C        -1.74360535506680    3.00671208693437    0.58529751631251
C        -1.98633830924424    2.29941195039142    1.80538432474227
C        -0.74377535868294    2.28602039144550    2.57170194677088
C         0.24391125223229    3.00316616308552    1.80701063613619
C        -3.40695485798109    0.73003139538900    0.57082607520843
C        -3.39233224135461   -0.70536397346170    0.57625042355346
C        -2.76602042615938   -1.13215181704277    1.81922276693901
C        -2.42013774358477    0.00309128585209    2.54676507747451
C        -2.78943432913979    1.16991611386326    1.80425192447935
C        -1.71535643604855   -2.99274766594677    0.58380793261055
C        -0.34775555158525   -3.44308374856438    0.57353237926030
C         0.26652158001017   -2.99913263921144    1.79459702167590
C        -0.74830001838525   -2.29547861522480    2.57378221274563
C        -1.94083543679677   -2.28583081991769    1.82552381765663
C        -0.24389505518381   -3.01067471251308   -1.83945620933225
C         0.74363128918257   -2.28779893670853   -2.59884403119219
C         1.97069405667250   -2.28697073622124   -1.83962907731694
C         1.73313592743692   -3.00234596109339   -0.61413950893544
C         0.36971058866631   -3.45090866498672   -0.61444339580208
C         2.78365146997000   -1.16371397212007   -1.83744818960863
C         2.40716939815537    0.00390979633538   -2.59997654826511
C         2.78713155916338    1.16666229651284   -1.84101609611967
C         3.39616417114652    0.71868733419578   -0.61559170783765
C         3.38939210334332   -0.71656835572488   -0.61267380026835
C         1.96824340929055    2.28948497187990   -1.83243819830681
C         0.74241835840035    2.29039116352329   -2.58439002542017
C        -0.24861139531003    3.00926420095733   -1.82206407019309
C         0.36180946383900    3.44710481760579   -0.59720475390381
C         1.73303642284297    3.00116625288008   -0.60102823726972
C        -1.57205886289648    2.58514048331011   -1.82335665776096
C        -1.95023353147350    1.41951309565410   -2.58498290651772
C        -2.94582323609763    0.70185765441107   -1.83045365672560
C        -3.18322347733834    1.42337518681093   -0.60712307132376
C        -2.33216585963125    2.58811248689428   -0.60465786855732
C        -2.93936128888551   -0.68795479619183   -1.82248712441818
C        -1.94696330117846   -1.41035003993573   -2.57894854479514
C        -1.56368549763271   -2.57548795154956   -1.82277663378717
C        -2.30797561232464   -2.57120653397923   -0.59190970800429
C        -3.16620810821770   -1.39977145666560   -0.59413909991891
C        -0.99461559315001   -0.71686478231099   -3.31152731581304
C        -0.99522853178544    0.72516839134443   -3.31162192432038
C         0.37652325991718    1.16928450443437   -3.31761707692493
C         1.22266094009438    0.00500328319699   -3.32266943036053
C         0.37558620459194   -1.16267850320276   -3.32170317991957
Cl       -1.97433702066132   -0.00987827606313    5.21818491522958
Cl        3.06412604781386   -2.21717304417686    4.10027908120234
62
 energy: -137.552570994524 gnorm: 0.005079474436 xtb: 6.4.1 (a3dbbd7)
C        -1.29893617011863    0.01063590575270    3.52384242778817
C        -0.35742426112058   -1.15798223558198    3.29813180460876
C         0.95073142571433   -0.71430707054400    3.26876571542327
C         0.97105318900694    0.72500502023448    3.26337266758136
C        -0.38067763378094    1.18871546807020    3.30147940197502
C         2.31540517141991   -2.57411221980184    0.57496828493769
C         3.15739522440223   -1.40333176680360    0.57729940455512
C         2.94749356456092   -0.69369935277319    1.79832511984952
C         2.08163020008617   -1.51799178936463    2.72391950587119
C         1.57560541129592   -2.59947308401651    1.79692294034980
C         3.16650041564879    1.40354641208087    0.57366364939628
C         2.32254111643262    2.57291852692526    0.57753798290003
C         1.56957398991733    2.57687894037304    1.80858359602417
C         1.94351780805130    1.42583870791508    2.56266463621200
C         2.93095027817418    0.68033490485785    1.79318432638196
C        -0.36754952370683    3.44722795260223    0.58651441370659
C        -1.74441561257141    3.00933960320335    0.58460992393062
C        -1.99003923337427    2.30143497937510    1.80546666505031
C        -0.74496963409921    2.28991560562205    2.56696477340878
C         0.24268838861006    3.01028178538749    1.80801841301946
C        -3.40976954689732    0.73141964142892    0.57152936667821
C        -3.39526254880426   -0.70532048802074    0.57727468075745
C        -2.76709634944485   -1.13152228807447    1.81834245746943
C        -2.42490682235168    0.00300457260849    2.54819109250054
C        -2.79067300019516    1.16975332873066    1.80144004910387
C        -1.71670987710616   -2.99670818049446    0.58290376820584
C        -0.35069810591247   -3.45052874707293    0.57240999032465
C         0.26351630029090   -3.00238486764988    1.79091170112817
C        -0.75057367525433   -2.29720501180065    2.57080244143489
C        -1.94437498198727   -2.28858511972536    1.82647781120399
C        -0.24319192260813   -3.01484918367079   -1.83785235062262
C         0.74512401132783   -2.29026819424794   -2.59693081024293
C         1.97388180145024   -2.28988543281267   -1.84111574393828
C         1.73642633902359   -3.00888605002817   -0.61389031791311
C         0.37246747682342   -3.45877557382042   -0.61509940618946
C         2.78622494124661   -1.16639497413616   -1.83787678510815
C         2.40772212149556    0.00315479119592   -2.59571980786592
C         2.78843484687370    1.16646394938207   -1.83766313705002
C         3.39909297265705    0.71780813415113   -0.61254365320865
C         3.39492593433751   -0.71789380352606   -0.61141760624404
C         1.96780640191530    2.28919380051828   -1.83051111016424
C         0.74303577302962    2.29057656218705   -2.58373056160313
C        -0.25008497883999    3.01226604684978   -1.82145523592755
C         0.36136201750005    3.45278153881009   -0.59897426516963
C         1.73265509140649    3.00520476433947   -0.60039794225201
C        -1.57407820257724    2.58702272063752   -1.82514794905938
C        -1.95159696551069    1.42075369188712   -2.58685497108120
C        -2.94687753354749    0.70236712317122   -1.83133726726024
C        -3.18569580563919    1.42563587466501   -0.60884799567452
C        -2.33498713935344    2.58985654190391   -0.60609266727196
C        -2.94026647467314   -0.68741853717560   -1.82279474592971
C        -1.94635815576665   -1.41064069594047   -2.57838294265773
C        -1.56321701830637   -2.57628880133163   -1.82247618511156
C        -2.30908933311602   -2.57271835134226   -0.59278919026892
C        -3.16715718478042   -1.39937066726937   -0.59427959230566
C        -0.99410277319397   -0.71699047827223   -3.31221938629836
C        -0.99568041072125    0.72527035623208   -3.31308391047454
C         0.37665778607252    1.16919054436203   -3.31625457026198
C         1.22309692498897    0.00414494651999   -3.32070282307770
C         0.37645154968595   -1.16373898522090   -3.31959741194159
Cl       -1.94346727341338   -0.00764170997880    5.22903924928070
Cl        3.06113202255760   -2.22948064507967    4.09356704926477
62
 energy: -137.552596195666 gnorm: 0.001902101170 xtb: 6.4.1 (a3dbbd7)
C        -1.29960763297312    0.01063327593498    3.52310869837495
C        -0.35728031119690   -1.15774930934267    3.29697026492299
C         0.95049378406364   -0.71383657302651    3.26859477319588
C         0.96986500084993    0.72505890096818    3.26146902031189
C        -0.38087266657610    1.18893050982650    3.30042364943037
C         2.31500860168451   -2.57360655192734    0.57500743563329
C         3.15654819098373   -1.40290613699949    0.57778015772162
C         2.94759664706224   -0.69350792586578    1.79859172548229
C         2.08118624857478   -1.51785247732107    2.72475625364410
C         1.57474439982741   -2.59896796223416    1.79663347763625
C         3.16560684718558    1.40352885486289    0.57406712945007
C         2.32151632493081    2.57310029370114    0.57787832373379
C         1.56930499540388    2.57669351376293    1.80931028424349
C         1.94425547691028    1.42665363244189    2.56414831573118
C         2.93043483941854    0.68049781446291    1.79291935695884
C        -0.36798413449195    3.44715772626673    0.58618899553112
C        -1.74409236942354    3.00931669344043    0.58410439732637
C        -1.99022322913652    2.30135624521905    1.80537329403674
C        -0.74499637953582    2.29047996881393    2.56615467214334
C         0.24226656349159    3.01094331571662    1.80800376070143
C        -3.40921637423422    0.73139627645232    0.57157573795396
C        -3.39498478547482   -0.70553890313379    0.57718767391694
C        -2.76702756619558   -1.13131598697510    1.81810489522478
C        -2.42629825898522    0.00270443265714    2.54954782534759
C        -2.79022415231088    1.16934463320250    1.80055478219993
C        -1.71684565673913   -2.99735782036467    0.58266203213282
C        -0.35135669776623   -3.45079275968563    0.57238658605271
C         0.26313030138164   -3.00252766604753    1.79030734449230
C        -0.75084697051853   -2.29664541766570    2.56967845900071
C        -1.94502598063531   -2.28900991883338    1.82681128014388
C        -0.24293881911500   -3.01508080992930   -1.83741550220450
C         0.74525456101196   -2.29010371759080   -2.59666321558838
C         1.97364787473593   -2.28934609556204   -1.84111802046690
C         1.73652664718401   -3.00958608648078   -0.61351869125087
C         0.37296855648197   -3.45904793158588   -0.61512866125707
C         2.78571190601653   -1.16615071107216   -1.83763848192805
C         2.40729260439737    0.00324704098677   -2.59477795315147
C         2.78806248088590    1.16632880711330   -1.83679599886228
C         3.39911310396937    0.71734506187128   -0.61187344516901
C         3.39572726111847   -0.71768929941130   -0.61084182496312
C         1.96724334040481    2.28863253651932   -1.82988506567892
C         0.74314182969897    2.29011073806895   -2.58341088779095
C        -0.25037303087263    3.01257770578071   -1.82119103485413
C         0.36114039348059    3.45352132211197   -0.59946120496648
C         1.73233023160632    3.00537852984088   -0.60007392232494
C        -1.57405496910292    2.58702569823339   -1.82572763908743
C        -1.95142874840698    1.42074389596716   -2.58725160728769
C        -2.94652235713355    0.70218597104437   -1.83154437750897
C        -3.18525933364512    1.42565864442077   -0.60929191875518
C        -2.33509785629633    2.58962086653616   -0.60654090826239
C        -2.93993700242811   -0.68748990865344   -1.82288526553279
C        -1.94573014026063   -1.41071082205233   -2.57824902816722
C        -1.56275775372008   -2.57608156600579   -1.82240094795236
C        -2.30880602957811   -2.57279585104551   -0.59295851409842
C        -3.16663592820324   -1.39919052624365   -0.59445072312730
C        -0.99393688632377   -0.71698323189829   -3.31240630798179
C        -0.99567109456714    0.72512256051444   -3.31336608060801
C         0.37659235985687    1.16907717158741   -3.31585278473424
C         1.22300543084236    0.00404863442200   -3.32043117461572
C         0.37660196565347   -1.16363585905913   -3.31927029152267
Cl       -1.93546143841609   -0.00638783591920    5.23155476338004
Cl        3.06034813238096   -2.23297717441354    4.09165108179139
62
 energy: -137.552599758221 gnorm: 0.000718794295 xtb: 6.4.1 (a3dbbd7)
C        -1.30000945551124    0.01068087184614    3.52288005336548
C        -0.35715579734990   -1.15757080692849    3.29629813426047
C         0.95050656014974   -0.71374541697070    3.26868070943088
C         0.96925268261221    0.72484571729575    3.26059484519534
C        -0.38078008589157    1.18867572640169    3.29994168873737
C         2.31439927087058   -2.57279266512375    0.57507592391418
C         3.15590051070722   -1.40235916102381    0.57807840566155
C         2.94763878033211   -0.69362363080500    1.79892405201494
C         2.08122459871028   -1.51799695030291    2.72568545483660
C         1.57434357531048   -2.59832640064843    1.79648757587310
C         3.16494816521235    1.40307816393465    0.57408332254489
C         2.32091657269013    2.57270811064608    0.57789428429100
C         1.56895104920049    2.57610221017276    1.80926834303513
C         1.94439854598022    1.42686445848028    2.56466894197587
C         2.93008142292266    0.68027025295060    1.79269708842859
C        -0.36814001861413    3.44666384819744    0.58600721670224
C        -1.74371263306822    3.00894847120133    0.58371412233530
C        -1.99001410157379    2.30109674006454    1.80534590514558
C        -0.74491075634300    2.29051386969045    2.56610420912689
C         0.24205062564552    3.01069706039398    1.80791516568821
C        -3.40829056292154    0.73126380564781    0.57153314641010
C        -3.39424348216688   -0.70567813237564    0.57696496439912
C        -2.76680729429789   -1.13114633835972    1.81802723323826
C        -2.42684498689980    0.00247072226898    2.55072825817216
C        -2.78978273085351    1.16915188045844    1.80020420674995
C        -1.71682388347164   -2.99741721305759    0.58255291408348
C        -0.35162329070040   -3.45011405182246    0.57252098278799
C         0.26320854502400   -3.00228551522567    1.79028503309999
C        -0.75086799965937   -2.29606520142082    2.56924679952830
C        -1.94521881563593   -2.28903391155403    1.82707939540638
C        -0.24285913977804   -3.01478058398397   -1.83725680932980
C         0.74521106077862   -2.28964627679851   -2.59667283916118
C         1.97307762927000   -2.28853620680752   -1.84091748679597
C         1.73601608391930   -3.00928536075330   -0.61311996296395
C         0.37298306818253   -3.45826118888055   -0.61508863912862
C         2.78501904568200   -1.16566783440801   -1.83737693519767
C         2.40689350977705    0.00335096573627   -2.59450150143243
C         2.78767331442334    1.16629486354047   -1.83662039448852
C         3.39880433144426    0.71708144856377   -0.61172743957380
C         3.39575026407869   -0.71722429983990   -0.61042839274228
C         1.96686234700530    2.28820768579744   -1.82967092273495
C         0.74320224758192    2.28968388405055   -2.58328014964430
C        -0.25040978120966    3.01245198114528   -1.82102011724555
C         0.36100721906756    3.45346388967506   -0.59965099858467
C         1.73214380134475    3.00503039386462   -0.59988037391335
C        -1.57375445738413    2.58680692867096   -1.82601848260824
C        -1.95114359977946    1.42060332680912   -2.58736875012375
C        -2.94614460801893    0.70201281130734   -1.83161347601819
C        -3.18459246846334    1.42540815397599   -0.60944482147030
C        -2.33487427689014    2.58919575323100   -0.60670898147359
C        -2.93961518008301   -0.68763204822972   -1.82294605923696
C        -1.94533608292440   -1.41077408191372   -2.57826877749129
C        -1.56250549945461   -2.57584262507564   -1.82241712555425
C        -2.30846379310726   -2.57262452297216   -0.59297026371599
C        -3.16613936410277   -1.39905783818284   -0.59460811070372
C        -0.99394101250311   -0.71699404218091   -3.31256964812575
C        -0.99565416269033    0.72497952859022   -3.31346587106066
C         0.37653192025369    1.16899480587985   -3.31578575286930
C         1.22289181020364    0.00402349424620   -3.32053088823351
C         0.37663149479080   -1.16342794152063   -3.31932612644778
Cl       -1.93257215426392   -0.00594398706879    5.23200124949374
Cl        3.05988376967132   -2.23421915409680    4.09085144028501
62
 energy: -137.552600427808 gnorm: 0.000206236069 xtb: 6.4.1 (a3dbbd7)
C        -1.29990161045759    0.01069854306350    3.52305359714396
C        -0.35717918799062   -1.15767989260743    3.29653280765922
C         0.95056786421142   -0.71384586193816    3.26869715274038
C         0.96946100837512    0.72484532283879    3.26092010538906
C        -0.38074457750654    1.18865755848997    3.30008308073377
C         2.31452271907535   -2.57292883461277    0.57507387773230
C         3.15612019346254   -1.40243981335118    0.57800899423857
C         2.94768916650928   -0.69365158653049    1.79890938569278
C         2.08141465053490   -1.51812334685909    2.72562267268668
C         1.57451934073060   -2.59847949546837    1.79651553230051
C         3.16517023227633    1.40312452955568    0.57404309360210
C         2.32113260065169    2.57273736898793    0.57784101830824
C         1.56900969676485    2.57622138329746    1.80914600266240
C         1.94426691655571    1.42679026414616    2.56439216428316
C         2.93021357729283    0.68028772709154    1.79276218366859
C        -0.36807683808649    3.44673077705082    0.58607623714979
C        -1.74380822136879    3.00899999230712    0.58380003499187
C        -1.99005486951446    2.30114247995352    1.80537447722081
C        -0.74495389631118    2.29048725861787    2.56626244867114
C         0.24212248736581    3.01067525715057    1.80795721263478
C        -3.40846789025686    0.73129488491946    0.57152588223700
C        -3.39432659155085   -0.70562184238865    0.57699157606197
C        -2.76682770444472   -1.13116526925123    1.81805189433988
C        -2.42659790803418    0.00252854784744    2.55047727476475
C        -2.78994940054309    1.16927149130975    1.80035939443929
C        -1.71680610631210   -2.99733059852952    0.58259139456346
C        -0.35151795546558   -3.45017101890343    0.57251873995967
C         0.26326217697553   -3.00233698773899    1.79038772851587
C        -0.75086245994978   -2.29623454834792    2.56949936027463
C        -1.94513996620843   -2.28897743100776    1.82703892172964
C        -0.24290539179139   -3.01479543458451   -1.83734448106044
C         0.74522657741802   -2.28972065115768   -2.59671955312338
C         1.97319469114679   -2.28870352833547   -1.84093916296984
C         1.73600455411477   -3.00921483213306   -0.61317859120147
C         0.37290888172243   -3.45830523553103   -0.61510074076833
C         2.78519388936018   -1.16577343106292   -1.83743874202445
C         2.40701709643160    0.00330344937312   -2.59465732318712
C         2.78780271086567    1.16634082181735   -1.83681255793990
C         3.39886421319300    0.71718364379686   -0.61184470938751
C         3.39565843935415   -0.71725001461940   -0.61051858520325
C         1.96699067388909    2.28833645454659   -1.82980472286728
C         0.74319008177670    2.28979800492587   -2.58335430582435
C        -0.25037105763422    3.01241761728717   -1.82106162641593
C         0.36104808040616    3.45338225494687   -0.59956014929348
C         1.73222887109807    3.00505851768710   -0.59994104295107
C        -1.57379632276520    2.58684004354122   -1.82591952978237
C        -1.95121641379680    1.42062383132669   -2.58730866431885
C        -2.94626620109949    0.70206791419439   -1.83158993027121
C        -3.18476625501743    1.42543239114020   -0.60937642508195
C        -2.33491958080053    2.58928252852028   -0.60661651688996
C        -2.93972176503416   -0.68761646853110   -1.82294276918912
C        -1.94547904471043   -1.41077051537238   -2.57830765111437
C        -1.56261178618193   -2.57591374087136   -1.82243716262886
C        -2.30854632098503   -2.57262387191521   -0.59293171383160
C        -3.16629904764373   -1.39909458286450   -0.59458735210761
C        -0.99398643286465   -0.71700289956537   -3.31255670916750
C        -0.99567524402520    0.72501380007083   -3.31343163382839
C         0.37654813440669    1.16902432738180   -3.31587745347318
C         1.22292731059569    0.00402758536533   -3.32058572634215
C         0.37662529236839   -1.16346709665209   -3.31939449468785
Cl       -1.93380864784587   -0.00619874765358    5.23157857812859
Cl        3.05985491449878   -2.23364055776155    4.09113217055574
