64
 energy: -146.697455940976 gnorm: 0.050210424777 xtb: 6.4.1 (a3dbbd7)
C        -1.30723941951190    0.02272211697940    3.57305461522792
C        -0.37771716858001   -1.13798093811284    3.25354855916230
C         0.90376421678058   -0.72199584429363    3.18336460790150
C         0.94420974404151    0.72673171246191    3.22441720505550
C        -0.39979277531241    1.18709341108938    3.28581537724429
C         2.28732552665726   -2.54599235753201    0.56771557294528
C         3.14671979816181   -1.39926565341072    0.56567210563430
C         2.93353837868161   -0.70393257778288    1.79583932311025
C         2.08068866815924   -1.52071138953888    2.72538822557979
C         1.55617642927761   -2.58618949888031    1.79618337988633
C         3.15920297319615    1.38510883131833    0.56100145599772
C         2.31598043736381    2.55148545190613    0.56689044822193
C         1.55403786207548    2.56276251190670    1.78440971760420
C         1.91293223286830    1.40622887945839    2.53243966128943
C         2.92536381547184    0.66262579572805    1.78435481643692
C        -0.37132212051750    3.42595961419759    0.56859667281299
C        -1.73643910977115    2.97822883418059    0.56013902014797
C        -1.99043495612337    2.28093481537101    1.78824990863345
C        -0.75234600719968    2.29165209808396    2.56655016867891
C         0.23256102618933    2.98498155878458    1.79331423078087
C        -3.33998733711908    0.72081008427811    0.57086963514749
C        -3.30192204601570   -0.70236867696259    0.57467558169637
C        -2.72040621411811   -1.14971856149542    1.81148657682957
C        -2.63801923464366    0.01875294323650    2.76844034868928
C        -2.78191983602470    1.17200916887847    1.81029920057902
C        -1.69477053627043   -2.93547035959623    0.57427380336517
C        -0.34221219742747   -3.38435973229115    0.57608968574133
C         0.26185380698088   -2.98665541555437    1.81423795509430
C        -0.79870402153636   -2.47362982179044    2.76039477847899
C        -1.94929671146825   -2.25937157578249    1.81323530309530
C        -0.23149914247591   -2.96962170408282   -1.85245998556999
C         0.75228038577451   -2.26335573784973   -2.62678294405212
C         1.96363862980232   -2.26081208016233   -1.85300580030511
C         1.71998517305634   -2.95785891082093   -0.62232187724142
C         0.36352092603293   -3.38742814880669   -0.61260896670992
C         2.78350338283579   -1.14867751453966   -1.84897908638686
C         2.41145832167357    0.01105269279845   -2.62136038971455
C         2.78531289876887    1.16539993225188   -1.85232273208891
C         3.38805618265445    0.71871517116679   -0.62580639382820
C         3.37460048383375   -0.71106156655861   -0.61743412943719
C         1.96854631341526    2.28266632798495   -1.84330732184487
C         0.75112793060180    2.28761104391855   -2.60218754982909
C        -0.23774751247794    2.99873231725298   -1.84295079369917
C         0.36051058987285    3.42480034090649   -0.60760270739208
C         1.72951093191282    2.97993654906567   -0.60964513132396
C        -1.55415183556873    2.57528671235434   -1.85323408783606
C        -1.92974056853520    1.42169339140447   -2.62201673677885
C        -2.91176504445836    0.70479791743367   -1.84684472884981
C        -3.13231067086113    1.40782491521408   -0.61540537976167
C        -2.30698101686452    2.57199319619625   -0.62882736582271
C        -2.90146492417146   -0.67662144562344   -1.84765162378084
C        -1.92741369875460   -1.39265131413766   -2.62811095745096
C        -1.54414647345153   -2.54190215328801   -1.85272821195229
C        -2.26868866484188   -2.52841602937794   -0.61452137433165
C        -3.10659375026394   -1.37740512950698   -0.61271639938112
C        -0.97796726629315   -0.70602219530348   -3.36184131082538
C        -0.97912722059430    0.73425494367708   -3.35502339687622
C         0.39025491213604    1.17626124771797   -3.34874430305354
C         1.23750346541985    0.01369858550627   -3.35295962505730
C         0.38916768900255   -1.15013034848772   -3.36170178014677
Cl       -1.61232612731178   -0.03900773773074    5.36392285822839
Cl       -4.09365390244392   -0.03781931190407    3.83992738210536
Cl        2.97809914787699   -2.18889340332205    4.14577381491712
Cl       -1.17640322876774   -3.58780939089697    4.12953110693900
64
 energy: -146.702496624093 gnorm: 0.021336429552 xtb: 6.4.1 (a3dbbd7)
C        -1.30145927297709    0.01578074869389    3.55865013676750
C        -0.36703821441184   -1.14276443304901    3.24858454270442
C         0.91335910798681   -0.71965549094849    3.19944906535672
C         0.95077572820498    0.73220741402621    3.22977248147487
C        -0.39540807531231    1.19006690889284    3.27888393750432
C         2.30024189862336   -2.55884847368440    0.56962174013345
C         3.15318463591260   -1.39925017991257    0.57215603225633
C         2.94245200417902   -0.69608158926022    1.79782672489419
C         2.07939474706686   -1.52187673976205    2.72141267184411
C         1.56361338527570   -2.59947741940902    1.79457050047644
C         3.16494631771721    1.40096037000388    0.56888534678259
C         2.32325114021947    2.57216267762774    0.57159204987334
C         1.56464182639718    2.58075144075111    1.79462296367442
C         1.92608253244677    1.42146746145220    2.54403287782943
C         2.92996659616839    0.67626079033851    1.78798775383949
C        -0.36784872081013    3.44481869344673    0.57029099161597
C        -1.73844633889752    3.00079177607161    0.56423469201992
C        -1.98992269897036    2.29537499772224    1.78959600527411
C        -0.74911907718967    2.30381304043691    2.56402965038437
C         0.23806172230117    3.00695204133915    1.79860960919507
C        -3.35352620339151    0.72777691551750    0.56904264230787
C        -3.32730431846501   -0.70497496018333    0.57024168347675
C        -2.73601694011826   -1.15282138291046    1.79790483378335
C        -2.63516267809100    0.01622110342611    2.75388293672726
C        -2.78520349721480    1.18138257898127    1.80157572562401
C        -1.70745402320779   -2.95705648697011    0.57034280350929
C        -0.34616922740304   -3.41006321397739    0.57211160283156
C         0.26407814220020   -3.01325995975564    1.80641655283833
C        -0.79719567288336   -2.47622646379390    2.74658497660046
C        -1.95883748215894   -2.26897514644210    1.80231153308874
C        -0.23693786996110   -2.99276331607673   -1.85248721497240
C         0.75269831520014   -2.27805185590209   -2.61620991805568
C         1.97372579947838   -2.27613841513934   -1.85057356161002
C         1.73037204112438   -2.98360285389356   -0.62215366610566
C         0.36862809014565   -3.42015923465699   -0.61796616143434
C         2.79083260801570   -1.15611336545395   -1.84539584905343
C         2.41540348781290    0.00878782686556   -2.60932652407441
C         2.79258583735517    1.17028824108435   -1.84565855918252
C         3.39823425521260    0.72258770215370   -0.61855368688809
C         3.38908885732081   -0.71166860262097   -0.61426245172088
C         1.97308188475366    2.29086514818910   -1.83898817316918
C         0.75110841697398    2.29381237982976   -2.59821198349827
C        -0.24040791644422    3.01143824264716   -1.84098948516097
C         0.36432383393742    3.44579417209529   -0.60829107426720
C         1.73565720989594    3.00059263720757   -0.60829685303675
C        -1.56184934066176    2.58797706582692   -1.85068373519310
C        -1.93787624178781    1.42510155642906   -2.61316726451905
C        -2.92660082338171    0.70504653083553   -1.84886243446915
C        -3.15000412574301    1.41940382819872   -0.61938798035216
C        -2.31843658359078    2.58637352836978   -0.62611891243594
C        -2.92163151706238   -0.68130489758256   -1.85007492433330
C        -1.93731268467518   -1.40316238752385   -2.61772958027534
C        -1.55522561975346   -2.56308038320101   -1.85322531652287
C        -2.29241678368158   -2.54916838488600   -0.61876792738053
C        -3.13233319889189   -1.39104742042465   -0.61771414333299
C        -0.98223083443571   -0.71087502486078   -3.34890550996409
C        -0.98265653278454    0.73190139568786   -3.34382487885268
C         0.38830992238809    1.17534899331255   -3.33940526662221
C         1.23600419007704    0.01023994750030   -3.34135562808319
C         0.38773177714864   -1.15652257726690   -3.34834106096182
Cl       -1.57386460498406   -0.03466615323102    5.35205075550839
Cl       -4.10176136886517   -0.01862079000605    3.81046699778209
Cl        2.99325729536803   -2.17970284995035    4.13398493929447
Cl       -1.18051357790101   -3.60469111494042    4.10220198018451
64
 energy: -146.703003240426 gnorm: 0.008187518868 xtb: 6.4.1 (a3dbbd7)
C        -1.29841691256379    0.01246175870366    3.54497899759764
C        -0.36196019622556   -1.14497552847267    3.24169162342894
C         0.91800125604181   -0.71826746840809    3.20684626531556
C         0.95305420741909    0.73442548519540    3.23060670527328
C        -0.39235792432331    1.19182221286880    3.27142776246716
C         2.30570226857842   -2.56407496675118    0.57098642840525
C         3.15407234792470   -1.39827016143895    0.57495947588049
C         2.94479750527425   -0.69199808060807    1.79639879512760
C         2.07880052709552   -1.52190406863951    2.72118438488319
C         1.56570824718031   -2.60047744416382    1.79252245254486
C         3.16690599217557    1.40825450870052    0.57269542928234
C         2.32590069660883    2.58144426628169    0.57396644816467
C         1.56954808102505    2.58902570091449    1.80018306400088
C         1.93256051390998    1.42902964240193    2.54985991210083
C         2.93003438091576    0.68269343668660    1.78835765734182
C        -0.36657083476757    3.45452835355683    0.57018719100996
C        -1.73936209539260    3.01205967875019    0.56509340919538
C        -1.98741041235134    2.30114643752179    1.78803204136918
C        -0.74684052803400    2.31005068777691    2.56055524306188
C         0.24068028168986    3.01854944545865    1.80028753666113
C        -3.35841288895705    0.73016242012597    0.56801848591074
C        -3.33946731030326   -0.70758061173148    0.56873026124494
C        -2.74217961625693   -1.15443498705903    1.78971596613207
C        -2.62760376597904    0.01415930833781    2.74424975691574
C        -2.78257529697147    1.18446560795782    1.79321938370998
C        -1.71277221669322   -2.96698331304957    0.56855983462735
C        -0.34758050496754   -3.42192038531012    0.57011470034761
C         0.26445613028610   -3.02186173191507    1.79928291878238
C        -0.79621569527820   -2.47590318176813    2.73917224603590
C        -1.96100369601590   -2.27225820962755    1.79484855785533
C        -0.23924838704836   -3.00256479796043   -1.85119057610902
C         0.75231468902889   -2.28396085978131   -2.60938274969057
C         1.97743846232086   -2.28261706774002   -1.84773976141319
C         1.73516377085650   -2.99739118276538   -0.62104641958220
C         0.37209304434596   -3.43786557937955   -0.62045999533497
C         2.79191211961173   -1.15904635886867   -1.84290293379534
C         2.41609573384608    0.00763067279683   -2.60181487616357
C         2.79470014210286    1.17215604032354   -1.84069828243279
C         3.40273479208825    0.72325604996202   -0.61443104134246
C         3.39615145275629   -0.71191004714610   -0.61294699262661
C         1.97470119193165    2.29384882152113   -1.83525583370112
C         0.75083225719370    2.29582224349186   -2.59441669656733
C        -0.24205775446597    3.01656380874932   -1.83908318868721
C         0.36598803531185    3.45712559135018   -0.60900124838691
C         1.73823782104849    3.01064595428277   -0.60710959549694
C        -1.56508808629783    2.59268426333738   -1.84840980769566
C        -1.94089949318101    1.42561228502328   -2.60776175844959
C        -2.93133428842446    0.70375847020956   -1.84931057130501
C        -3.15890634206564    1.42451483391444   -0.62158894166518
C        -2.32458093464576    2.59186248238464   -0.62476969172596
C        -2.92960710413752   -0.68407364627920   -1.85015315232884
C        -1.94040604934964   -1.40811136779517   -2.61120949965340
C        -1.55949203377921   -2.57231342279825   -1.85231078997817
C        -2.30509486647377   -2.55996210054681   -0.62044244485384
C        -3.14526482044042   -1.39958705155049   -0.61962042746004
C        -0.98326981511347   -0.71253222856577   -3.34022865978622
C        -0.98341928598988    0.73022602375240   -3.33627858131173
C         0.38742037895101    1.17430556054682   -3.33180182025653
C         1.23482807882548    0.00875322302031   -3.33355457277402
C         0.38728781202687   -1.15847165076685   -3.33913196113609
Cl       -1.60499121661760   -0.03089669322104    5.32921980395481
Cl       -4.07150325733526   -0.00331448742528    3.83128515678621
Cl        3.01122025214020   -2.18192470289799    4.12115204948030
Cl       -1.18652729926507   -3.61591530418875    4.08466293874498
64
 energy: -146.703140405237 gnorm: 0.004307878247 xtb: 6.4.1 (a3dbbd7)
C        -1.29885735524248    0.01155088108323    3.54697753749742
C        -0.36178953763986   -1.14438863125091    3.23855509383858
C         0.91843602702656   -0.71791441849793    3.20765769510584
C         0.95259762749819    0.73408617799431    3.22935576712260
C        -0.39175548633977    1.19059822279750    3.26794850498140
C         2.30595674367212   -2.56459824879265    0.57208936015622
C         3.15302761461566   -1.39758994150547    0.57573063434293
C         2.94453619243900   -0.69091146892120    1.79508162522957
C         2.07809146314630   -1.52154879391150    2.72160017637718
C         1.56513654359707   -2.59866214024252    1.79228714518272
C         3.16666009385593    1.40968583982638    0.57366470561817
C         2.32546461611193    2.58290615752426    0.57482938435879
C         1.56961712125589    2.59007377932847    1.80188584372491
C         1.93345857111179    1.43035772434593    2.55093965907300
C         2.92912323559795    0.68407041921755    1.78800115633893
C        -0.36721684830632    3.45617098452989    0.57048318766479
C        -1.74001688226807    3.01366630182964    0.56555455173088
C        -1.98673234925814    2.30098022953618    1.78781687069301
C        -0.74701059898769    2.31039596298381    2.55977472104119
C         0.24020925594278    3.02044751250292    1.80089924716305
C        -3.35813048129394    0.73003427380897    0.56745178863432
C        -3.34141112425319   -0.70847693426905    0.56867987631145
C        -2.74316308779371   -1.15324091606547    1.78791555957498
C        -2.62940518095508    0.01343124182022    2.74515121849207
C        -2.78003846607509    1.18297947575907    1.78951452711600
C        -1.71385387238538   -2.96764904536975    0.56926132430271
C        -0.34808195028136   -3.42327266884359    0.57058134754238
C         0.26369681385150   -3.02154813358482    1.79714657316452
C        -0.79654917673648   -2.47393730263698    2.73807616433762
C        -1.96107473976351   -2.27125869745471    1.79335241585285
C        -0.23972666589710   -3.00368753774593   -1.84982471470387
C         0.75179982637019   -2.28442208935680   -2.60669959964604
C         1.97748577992611   -2.28335972287057   -1.84584244853486
C         1.73552201649219   -3.00064871139694   -0.61970796388928
C         0.37289427468367   -3.44190413250878   -0.62016982659040
C         2.79084551654911   -1.15929460784102   -1.84175588770495
C         2.41555420353855    0.00736205661731   -2.59919591351046
C         2.79426656836618    1.17238175419729   -1.83856555518594
C         3.40331752693166    0.72280575103192   -0.61305063152984
C         3.39767837941199   -0.71184439843516   -0.61245260216886
C         1.97445890040565    2.29395538260330   -1.83327803808483
C         0.75042309826777    2.29572108776994   -2.59246035747729
C        -0.24282155879701    3.01701375606028   -1.83782056283684
C         0.36563177538601    3.45964627360150   -0.60863207549741
C         1.73808677307427    3.01263124347784   -0.60615401276995
C        -1.56564124337505    2.59288752491119   -1.84718617196082
C        -1.94108558623186    1.42520651271970   -2.60622710136056
C        -2.93118199459151    0.70284669810000   -1.84952105016057
C        -3.16086000434462    1.42524896943931   -0.62236254683227
C        -2.32622868578153    2.59187368188624   -0.62409473601390
C        -2.93038790010904   -0.68476719684328   -1.84983148544069
C        -1.94006552318531   -1.40901576486331   -2.60904941815616
C        -1.55985895428096   -2.57355124486652   -1.85123251865466
C        -2.30834712370322   -2.56204053307689   -0.62009400724203
C        -3.14787458359596   -1.40200328161517   -0.61974256375285
C        -0.98294106979472   -0.71250663955438   -3.33740633842483
C        -0.98310043925652    0.72963654963892   -3.33389443005665
C         0.38725504920150    1.17388126119722   -3.32878255815244
C         1.23435480095389    0.00855717723629   -3.33087459428962
C         0.38735861997977   -1.15829411794546   -3.33584897897190
Cl       -1.56183606314336   -0.03087670062309    5.33805387585264
Cl       -4.09824428636916    0.00351678555266    3.79985166783347
Cl        3.01940118289884   -2.18541343173234    4.11451217718380
Cl       -1.19013585132272   -3.61830361102187    4.08007731809068
64
 energy: -146.703212588129 gnorm: 0.001960693953 xtb: 6.4.1 (a3dbbd7)
C        -1.29935983865461    0.01219761192486    3.54699501898281
C        -0.36251808835204   -1.14474981663285    3.24040639008577
C         0.91777627990541   -0.71855754972304    3.20697613331035
C         0.95184970912517    0.73344347227268    3.22924619720329
C        -0.39211662457155    1.19071931754494    3.26934160689655
C         2.30459792538329   -2.56329748281067    0.57197668608849
C         3.15256889350570   -1.39760983997782    0.57516958339360
C         2.94399980588050   -0.69169938450293    1.79510510863828
C         2.07813383580680   -1.52163322894959    2.72169714395016
C         1.56489370008170   -2.59859708936187    1.79301135753290
C         3.16607952904341    1.40797979971292    0.57277502708063
C         2.32470596531748    2.58064326577008    0.57417685511437
C         1.56836701960747    2.58802703831059    1.80062198664479
C         1.93187703924250    1.42867568084401    2.54963413349892
C         2.92901414501851    0.68274814527389    1.78792526153075
C        -0.36751043968846    3.45411996996728    0.57017906167458
C        -1.73974319970109    3.01137956973724    0.56502203311730
C        -1.98727747186949    2.30027784733042    1.78799901508880
C        -0.74742793088913    2.30943784469393    2.56029754563850
C         0.23962457047883    3.01807545349887    1.80023284425545
C        -3.35696248241468    0.72957129490141    0.56774601467483
C        -3.33882644951666   -0.70812615564680    0.56941742348428
C        -2.74245573832172   -1.15362368439195    1.78997032162996
C        -2.62888002876745    0.01400254972376    2.74578973089490
C        -2.78053914774291    1.18294668665183    1.79060474446637
C        -1.71246098119487   -2.96529205938525    0.56974202475152
C        -0.34749971742895   -3.42039760399528    0.57104234379404
C         0.26393207934886   -3.01995918656854    1.79843568752904
C        -0.79640373742994   -2.47399425318603    2.73947847267611
C        -1.96040907946032   -2.27082288203897    1.79485917245285
C        -0.23913890472837   -3.00112621591238   -1.85006152855935
C         0.75183002792889   -2.28274553394134   -2.60805926302800
C         1.97661592199194   -2.28163661251277   -1.84629329406849
C         1.73431864693810   -2.99753089178690   -0.61976421830956
C         0.37238432196516   -3.43794279460655   -0.61965724330137
C         2.79041495629526   -1.15851457296103   -1.84234286080604
C         2.41527214118897    0.00756964902858   -2.60080450079113
C         2.79366701584927    1.17188458977434   -1.83957841034920
C         3.40226918613882    0.72242129658254   -0.61393467986451
C         3.39630318687919   -0.71169506210690   -0.61273182566721
C         1.97404643605358    2.29304605048528   -1.83404247043324
C         0.75047825547313    2.29504301469051   -2.59333391184235
C        -0.24245872825566    3.01565844211352   -1.83833851104316
C         0.36526834069486    3.45717781862796   -0.60872134923831
C         1.73750763426923    3.01027032503025   -0.60647414453148
C        -1.56478685557742    2.59164106820045   -1.84772689206114
C        -1.94029682356130    1.42491556835471   -2.60746407771424
C        -2.92983781357168    0.70303314011071   -1.84949366371912
C        -3.15898414314710    1.42422485489803   -0.62193742249541
C        -2.32490355403381    2.59038872169408   -0.62450549198480
C        -2.92836878968669   -0.68405543018006   -1.84962576385921
C        -1.93904036509346   -1.40773236819750   -2.61024727361647
C        -1.55866548948260   -2.57121343819506   -1.85134886691181
C        -2.30565001120329   -2.55950220358788   -0.61959756049519
C        -3.14489611095115   -1.40025518559071   -0.61907589519614
C        -0.98258880226754   -0.71199784602124   -3.33931934424478
C        -0.98282307594811    0.72993418945793   -3.33565866254537
C         0.38749373922500    1.17405980212257   -3.33052944493871
C         1.23461109851441    0.00889474023411   -3.33270376437157
C         0.38752944856041   -1.15766748732555   -3.33787918414949
Cl       -1.57541394476826   -0.03186566540545    5.33572482653085
Cl       -4.09066311135268    0.00170690580325    3.80962509528261
Cl        3.01699077117316   -2.18578700170306    4.11587469500109
Cl       -1.18859260645176   -3.61681061087640    4.08315198917203
64
 energy: -146.703216426240 gnorm: 0.000379626891 xtb: 6.4.1 (a3dbbd7)
C        -1.29961214559920    0.01215701317033    3.54650167875032
C        -0.36248445775504   -1.14506136499636    3.24031119908524
C         0.91796311027467   -0.71873917432225    3.20741647407268
C         0.95160168098033    0.73322099139611    3.22924057495887
C        -0.39187585600582    1.19069458985806    3.26907192225590
C         2.30438761335180   -2.56319355379284    0.57220252572221
C         3.15224911647383   -1.39745778050778    0.57524222359589
C         2.94387441483507   -0.69159124367759    1.79480945017108
C         2.07799549542154   -1.52167221940454    2.72187608191517
C         1.56490790289412   -2.59843798407681    1.79327063278118
C         3.16595528986786    1.40791858582596    0.57279678074212
C         2.32446312632013    2.58041137752791    0.57414898902311
C         1.56807023953149    2.58771443277865    1.80070523985953
C         1.93172604637350    1.42866557209784    2.54965375253851
C         2.92893827323337    0.68286503123077    1.78800198609916
C        -0.36766566969027    3.45399876162711    0.57010429676427
C        -1.73978992137306    3.01132793517901    0.56498648483662
C        -1.98738139278883    2.30046998096991    1.78818621888024
C        -0.74753509394906    2.30952856751706    2.56035486572546
C         0.23943924186362    3.01802814870663    1.80019738952609
C        -3.35668205604894    0.72937420250767    0.56771895331665
C        -3.33890309944482   -0.70842343445642    0.56970687116078
C        -2.74302488655609   -1.15382206834325    1.79024288377065
C        -2.62830626672914    0.01399337623778    2.74569291702100
C        -2.78019277798449    1.18286788668279    1.78985615487393
C        -1.71237491495860   -2.96495278384560    0.56992251511086
C        -0.34742610729306   -3.42005156484433    0.57113752840424
C         0.26394330910728   -3.01984461144561    1.79812176152296
C        -0.79634879374672   -2.47360525045082    2.73936868405215
C        -1.96029865276950   -2.27073239415372    1.79475544853690
C        -0.23909133279839   -3.00078556380210   -1.85005136099678
C         0.75178945011912   -2.28244141329717   -2.60795717649807
C         1.97656697279778   -2.28138807213209   -1.84611014541520
C         1.73406136967185   -2.99747423861033   -0.61951908278172
C         0.37253063673727   -3.43785967620460   -0.61961102176789
C         2.79023027179281   -1.15841592563571   -1.84239495087363
C         2.41517730483035    0.00752917268912   -2.60077131783099
C         2.79353458904898    1.17183675650552   -1.83947717932549
C         3.40219287961507    0.72218252356051   -0.61384274198849
C         3.39646942167674   -0.71159248038092   -0.61267691311961
C         1.97395954060016    2.29283369677321   -1.83392019706176
C         0.75045290538401    2.29485989610013   -2.59333641211331
C        -0.24250128334543    3.01541345006556   -1.83829964076380
C         0.36514110265094    3.45707796085372   -0.60873141025162
C         1.73741230680946    3.01010388775023   -0.60639791751811
C        -1.56467409903474    2.59140065487608   -1.84764331756120
C        -1.94018541230354    1.42476334241598   -2.60755353598178
C        -2.92956297526252    0.70289596748950   -1.84969203659570
C        -3.15897765038299    1.42418227585687   -0.62200166120564
C        -2.32493747232461    2.58994315565928   -0.62441569272727
C        -2.92813139762041   -0.68398939987744   -1.84956606259872
C        -1.93872075671340   -1.40760343324676   -2.61013459314599
C        -1.55842552540843   -2.57096684486317   -1.85133320600881
C        -2.30577115351494   -2.55930981055847   -0.61948976484515
C        -3.14473072647050   -1.40042880427449   -0.61892955281383
C        -0.98248829167215   -0.71188517354994   -3.33949960809235
C        -0.98271867377763    0.72988347741559   -3.33586883549483
C         0.38757298837226    1.17406876389113   -3.33067998863059
C         1.23465702503586    0.00890601447733   -3.33290050443548
C         0.38763694318365   -1.15752735003169   -3.33800515142323
Cl       -1.57867607616579   -0.03245834642057    5.33419472647984
Cl       -4.08820099549346    0.00378296625865    3.81224321208209
Cl        3.01835132605455   -2.18623606946665    4.11489611761558
Cl       -1.18863443912766   -3.61727579799681    4.08287445054566
64
 energy: -146.703216962237 gnorm: 0.000138325881 xtb: 6.4.1 (a3dbbd7)
C        -1.29970061428130    0.01214619068428    3.54670262855769
C        -0.36249759512977   -1.14508548864053    3.24017770422193
C         0.91795685210394   -0.71875438094393    3.20732967890302
C         0.95155572461366    0.73318584663506    3.22925916740075
C        -0.39185295129396    1.19067618616377    3.26908360127567
C         2.30440722521541   -2.56324489340842    0.57222586757418
C         3.15224153669268   -1.39747606802542    0.57523164559227
C         2.94385015613544   -0.69159710511664    1.79474689102232
C         2.07797727014237   -1.52169612860020    2.72188855613281
C         1.56496343778019   -2.59847230144072    1.79331897821907
C         3.16597521044994    1.40791382250518    0.57281724659151
C         2.32444472240449    2.58037430264471    0.57415198222832
C         1.56802037985641    2.58764438618527    1.80072624565685
C         1.93169801119342    1.42865378773443    2.54964183945092
C         2.92896750197606    0.68287048132263    1.78804684591787
C        -0.36768761255062    3.45397398868467    0.57013032363363
C        -1.73980916251503    3.01134320431982    0.56503647504068
C        -1.98743074935399    2.30054526430552    1.78830707827038
C        -0.74758456082530    2.30955972193779    2.56044850981740
C         0.23940837848115    3.01799809412573    1.80023394120646
C        -3.35662181694135    0.72931735729243    0.56771558262119
C        -3.33892154122508   -0.70849137868322    0.56978278377321
C        -2.74313273686993   -1.15383207800377    1.79036349080345
C        -2.62843131542594    0.01400428593283    2.74582706974433
C        -2.78008462215312    1.18281675101214    1.78973668530761
C        -1.71238119132684   -2.96494147274197    0.56997182723584
C        -0.34742583627886   -3.42006468611897    0.57115416273140
C         0.26395639103640   -3.01986700125807    1.79806766460463
C        -0.79634872935266   -2.47355110611811    2.73931153946782
C        -1.96028956334698   -2.27073662854608    1.79475830310625
C        -0.23908624978353   -3.00076126492427   -1.85007410214233
C         0.75179676987881   -2.28242062393608   -2.60796850082258
C         1.97657469874320   -2.28136331016469   -1.84610847835485
C         1.73400948184391   -2.99746080245577   -0.61948776698071
C         0.37255452123976   -3.43784457626497   -0.61959757537165
C         2.79022298920780   -1.15841315481178   -1.84243220663473
C         2.41516854783542    0.00753220228796   -2.60079045096897
C         2.79352056621065    1.17184518796957   -1.83948234391126
C         3.40217661554115    0.72215237072186   -0.61382220815846
C         3.39648847000714   -0.71156865380842   -0.61266376881150
C         1.97394052223508    2.29282234657026   -1.83391623807357
C         0.75043647811482    2.29485482508279   -2.59334199945598
C        -0.24251419456545    3.01539409213976   -1.83827465837413
C         0.36511224909343    3.45703706968608   -0.60869073765961
C         1.73739371955774    3.01006652009720   -0.60636510126528
C        -1.56467026542302    2.59138741446850   -1.84761161561731
C        -1.94019689660970    1.42476796883606   -2.60757204902911
C        -2.92955731706965    0.70288813053358   -1.84973268972472
C        -3.15894857098279    1.42418226017063   -0.62198410970953
C        -2.32493740177396    2.58987888759584   -0.62435216017151
C        -2.92811010955644   -0.68397511694545   -1.84954609250860
C        -1.93870194016215   -1.40759370866750   -2.61012126410865
C        -1.55839527356076   -2.57095468689940   -1.85134549724798
C        -2.30576869347295   -2.55927651653035   -0.61945989721753
C        -3.14465596814041   -1.40045055213801   -0.61888132011641
C        -0.98250615993281   -0.71187935143210   -3.33956650727540