66
 energy: -155.821707030013 gnorm: 0.065416974963 xtb: 6.4.1 (a3dbbd7)
C        -1.30311608688485   -0.00107687857719    3.56155354844545
C        -0.39199232467963   -1.15713773491285    3.23036408192564
C         0.87813605525960   -0.72990366216369    3.10958712136931
C         0.87811090781389    0.72716450839079    3.10991747611713
C        -0.39147059179625    1.15507309049118    3.23034524600658
C         2.27778286752241   -2.54163933083632    0.55857279814033
C         3.11809725623573   -1.38200546820834    0.55252717826718
C         2.91828987628698   -0.67906276267705    1.78743724720151
C         2.07333021845012   -1.51705654381891    2.71411656166865
C         1.55541188908824   -2.59283635835595    1.79144852709920
C         3.11750605462141    1.38105426419329    0.55334649461282
C         2.27729568547820    2.54061011734986    0.56044016425178
C         1.55541106915298    2.59192556079729    1.79378371520812
C         2.07338909713584    1.51496906151013    2.71550451610231
C         2.91831987364508    0.67781334415576    1.78807022946592
C        -0.33891765652214    3.39440589791000    0.56755636381340
C        -1.69512394912800    2.94794597993630    0.56204987260597
C        -1.94780316733789    2.27575234651286    1.80203590801114
C        -0.80320947349325    2.49530610171019    2.75382660638861
C         0.26386044668650    3.00205789543010    1.80784418945943
C        -3.28112137166727    0.70929381285030    0.56550843000321
C        -3.28114246069507   -0.71065588080695    0.56503728802924
C        -2.71601004213227   -1.16659545742247    1.80746844792580
C        -2.62453462855485   -0.00113628539425    2.76384214096067
C        -2.71588076521234    1.16509221407435    1.80809075305263
C        -1.69502265995677   -2.94846885173059    0.56012787996908
C        -0.33881865699500   -3.39497107443749    0.56493451949855
C         0.26386135213458   -3.00253195215934    1.80500738345230
C        -0.80266755927385   -2.49645625347251    2.75141188821836
C        -1.94734980698766   -2.27680169560920    1.80024739466265
C        -0.23568609689597   -2.98329181421157   -1.86675818006789
C         0.74190426623665   -2.27521865482956   -2.64482005344276
C         1.95095736865398   -2.26870197309237   -1.86936994433810
C         1.71207563494304   -2.95662509869602   -0.63242891762356
C         0.36149745979909   -3.39686933449171   -0.62573259859548
C         2.76186796333411   -1.15216776558235   -1.86978236460941
C         2.39450962405663    0.00012368960892   -2.64706200169913
C         2.76175717622673    1.15202571681660   -1.86920411024454
C         3.34221625720445    0.71344938072808   -0.63258336788215
C         3.34249830354850   -0.71372925089695   -0.63304897581597
C         1.95044495977723    2.26798918272628   -1.86761132409880
C         0.74159046537897    2.27414814306764   -2.64267468117125
C        -0.23568359478002    2.98153356864709   -1.86429311942089
C         0.36101714096554    3.39541709136174   -0.62338918857924
C         1.71146514468617    2.95530814024142   -0.63049292141732
C        -1.54823992221071    2.55621431739517   -1.86600083581058
C        -1.92958247610401    1.40755239053250   -2.64235399199103
C        -2.89814690967883    0.68985258423627   -1.85948421317630
C        -3.09835543640761    1.38696978901292   -0.62090174906269
C        -2.27005647376739    2.54438516690006   -0.62675426128305
C        -2.89833894067885   -0.69070199717578   -1.86005037915641
C        -1.92979800410147   -1.40814962984305   -2.64349013514928
C        -1.54852773360748   -2.55773806405111   -1.86800783643540
C        -2.27050890592695   -2.54558563206251   -0.62850794369239
C        -3.09877378998552   -1.38816761976520   -0.62168572699727
C        -0.98727751577164   -0.71989497303743   -3.38604038772253
C        -0.98719648766710    0.71980442903513   -3.38529072873977
C         0.38076262299366    1.16386751709552   -3.38456582546606
C         1.22599478589716   -0.00001762266626   -3.38614195667933
C         0.38084991890556   -1.16419125139123   -3.38589343266779
Cl       -1.61484380807243    0.00383510514388    5.34543763598651
Cl       -4.08057838728712    0.00181305953016    3.81835154800959
Cl        2.97118649759928   -2.12585651610281    4.14961709238996
Cl        2.96865848622293    2.12133886669083    4.15384770668523
Cl       -1.18028216932027    3.57587389511194    4.14087101819801
Cl       -1.17696328406279   -3.58039944944925    4.13597573647809
66
 energy: -155.830731353624 gnorm: 0.027736370440 xtb: 6.4.1 (a3dbbd7)
C        -1.29305664991763   -0.00112100768414    3.52740286516466
C        -0.37687292115346   -1.17012101698008    3.23414212731430
C         0.89150912613670   -0.73019245815329    3.13150786633272
C         0.89156466965793    0.72759350183656    3.13149856375782
C        -0.37652096028347    1.16780345830181    3.23375034323017
C         2.29070644362832   -2.56047141173436    0.55872606375268
C         3.12795905612024   -1.39128502804630    0.55849889909957
C         2.92001426408647   -0.68323692308278    1.78545819061056
C         2.07308138227661   -1.52693310469094    2.70986548040726
C         1.56245835904973   -2.61271792552356    1.78801355805151
C         3.12784224417286    1.39031001811882    0.55921529416564
C         2.29051966964580    2.55943984658929    0.56026326751018
C         1.56246594349473    2.61146686503916    1.78976659400945
C         2.07324853503758    1.52488123470131    2.71084098769987
C         2.92037157456838    0.68186571507965    1.78600642805430
C        -0.34461579588043    3.42299265262896    0.56560720864896
C        -1.70693778999333    2.97063042845789    0.56317916157950
C        -1.95773928069805    2.28876474819971    1.79794872238351
C        -0.80170915766733    2.50733806013366    2.74883171506298
C         0.26425331744350    3.03414241288806    1.80268199019419
C        -3.31060304309604    0.71454062174298    0.56602240615875
C        -3.31055415161496   -0.71589362157111    0.56568395686162
C        -2.73239430552544   -1.17139305012198    1.79677660985007
C        -2.62959312630450   -0.00108299468148    2.74857081053390
C        -2.73217910273654    1.16967283967374    1.79711558139849
C        -1.70682401461012   -2.97150047941097    0.56165227869170
C        -0.34451246166700   -3.42382402695233    0.56356602125861
C         0.26426258651343   -3.03508704968511    1.80059009003110
C        -0.80143824982065   -2.50913275783207    2.74727660729365
C        -1.95750413656901   -2.29024005481188    1.79670603923809
C        -0.24017344311160   -3.00273885344316   -1.86478952210577
C         0.74580620690762   -2.28688036792441   -2.63229473275476
C         1.96484083049220   -2.28285841560160   -1.86620125858868
C         1.72398368996852   -2.98613304190855   -0.63397395631677
C         0.36607591601739   -3.42888536671505   -0.62961836707986
C         2.77823843800133   -1.16088301564987   -1.86477259881751
C         2.40611432556950    0.00012529595443   -2.63202025964715
C         2.77817635524354    1.16076692208804   -1.86421190312737
C         3.36507476075186    0.71554101265110   -0.62857797871143
C         3.36513678098987   -0.71598094670234   -0.62897235604294
C         1.96457725425721    2.28253381520926   -1.86478545471583
C         0.74563944916430    2.28660085419705   -2.63076667026689
C        -0.24023850037731    3.00197965415479   -1.86295137008125
C         0.36579846816507    3.42787781678716   -0.62770474015641
C         1.72370199698831    2.98525544309307   -0.63232176812776
C        -1.55784918473009    2.57410566826497   -1.86324615577744
C        -1.93925667401143    1.41438040924980   -2.62871782198764
C        -2.91840980281772    0.69291005941752   -1.85721057124749
C        -3.12578035015552    1.40086919265325   -0.62238549921091
C        -2.29147161125412    2.56226667920996   -0.62631559075700
C        -2.91844931336790   -0.69340361651221   -1.85762186749176
C        -1.93929994538809   -1.41456310103771   -2.62955426914447
C        -1.55786009098007   -2.57480930927838   -1.86472728476728
C        -2.29160145613600   -2.56322741203538   -0.62771303300977
C        -3.12587644145853   -1.40182567743122   -0.62303738759439
C        -0.98910565403309   -0.72110095084793   -3.36824601624492
C        -0.98907616340629    0.72131297691334   -3.36772590666041
C         0.38187025394062    1.16681809877012   -3.36839194503647
C         1.22888151464621    0.00014467443446   -3.36899247335725
C         0.38191800642420   -1.16663834117340   -3.36924462441701
Cl       -1.54341955342020    0.00182404672236    5.31654801301526
Cl       -4.09443375859562    0.00014032571055    3.79464392410534
Cl        2.97125746223696   -2.13506980107756    4.14408840400820
Cl        2.96977349798510    2.13113674024621    4.14698430466029
Cl       -1.18834281169056    3.61810865383206    4.11143647499794
Cl       -1.18638688881192   -3.62258622338364    4.10791009075579
66
 energy: -155.832076221688 gnorm: 0.009280025681 xtb: 6.4.1 (a3dbbd7)
C        -1.28821070621288   -0.00123787020650    3.50599521983932
C        -0.36997765348415   -1.17474566763850    3.22525483521221
C         0.89860673682907   -0.72864393807269    3.14252937550222
C         0.89863814856750    0.72611778086254    3.14255844762763
C        -0.36985617950625    1.17222841853985    3.22498882265238
C         2.29709310129925   -2.56937999493610    0.56014316718297
C         3.13213932815645   -1.39521349462935    0.56339385917067
C         2.92012259073010   -0.68546553116959    1.78454313404643
C         2.07303193420301   -1.53155971647227    2.70981455690623
C         1.56387250551069   -2.61759887483718    1.78468832453181
C         3.13210872933596    1.39418661160777    0.56399442489743
C         2.29698474541135    2.56830216000510    0.56135455216909
C         1.56378779360109    2.61599384779494    1.78595433211857
C         2.07306268287443    1.52948704955162    2.71054023611603
C         2.92027829286318    0.68394219309543    1.78491730554152
C        -0.34845103831884    3.43810929938690    0.56334600771597
C        -1.71392984886917    2.98223757231776    0.56228781030545
C        -1.96340895232730    2.29378275143684    1.79149104825443
C        -0.80201426302663    2.50993569753265    2.74063614539513
C         0.26326682962984    3.04618945326586    1.79503072873368
C        -3.32764529259644    0.71772144381116    0.56565045262634
C        -3.32760087184514   -0.71901959380174    0.56535395858214
C        -2.74010768159169   -1.17288907575529    1.78723441382988
C        -2.62314191185157   -0.00109296708182    2.73800756523751
C        -2.74003900607872    1.17109654895408    1.78760440728029
C        -1.71385547865642   -2.98336327541236    0.56098572473871
C        -0.34837048306226   -3.43917408050207    0.56174885678524
C         0.26334859575267   -3.04763872301344    1.79352343515979
C        -0.80191670490199   -2.51215918931043    2.73955025400185
C        -1.96328518207300   -2.29549223126278    1.79050700503163
C        -0.24239877785421   -3.01164001688581   -1.86139643829745
C         0.74800316501321   -2.29177402753481   -2.62183200591594
C         1.97137600079722   -2.28955509080848   -1.86103520251554
C         1.73039712914696   -3.00414275579873   -0.63278731785862
C         0.36934726068969   -3.44848676228924   -0.63128085233921
C         2.78516114557029   -1.16516612387081   -1.85853381115199
C         2.41110495784475    0.00013960037468   -2.61957436474118
C         2.78513902774832    1.16513153630476   -1.85807087045043
C         3.37831187594607    0.71580703837466   -0.62444480201058
C         3.37836362502978   -0.71632264807686   -0.62476116622696
C         1.97131531937382    2.28952276119629   -1.86000013697570
C         0.74796281307110    2.29202742575798   -2.62079792361851
C        -0.24244840987465    3.01153511533248   -1.86003118347693
C         0.36923300897369    3.44781388884171   -0.62972135180482
C         1.73030899847810    3.00353837943996   -0.63143503990480
C        -1.56187126989079    2.58218694489271   -1.86022799225024
C        -1.94293012987236    1.41715209128834   -2.61927266564200
C        -2.92811601141943    0.69416549114861   -1.85562379092809
C        -3.14214330522430    1.40943984234170   -0.62397521714005
C        -2.30534863287062    2.57187455088969   -0.62668213028395
C        -2.92826835901537   -0.69439056016214   -1.85598221850044
C        -1.94298528649181   -1.41700476954143   -2.61990637141470
C        -1.56182117175136   -2.58234243027691   -1.86137067734622
C        -2.30534747063321   -2.57262311632516   -0.62783834664493
C        -3.14216982320132   -1.41020183739345   -0.62458353919015
C        -0.98830727105828   -0.72089413422256   -3.35365718710770
C        -0.98824448181444    0.72137893247781   -3.35331739473746
C         0.38293057233832    1.16726329263195   -3.35388485952979
C         1.22992512209876    0.00026588185607   -3.35389664031446
C         0.38291010610472   -1.16672040334516   -3.35439222697331
Cl       -1.55044759106038   -0.00014136798155    5.29072601804885
Cl       -4.05521149670766   -0.00118686923738    3.83142226544321
Cl        2.97979307399370   -2.15468119608853    4.13338612098486
Cl        2.97922951235712    2.15159256145538    4.13497972316731
Cl       -1.19540746906281    3.64972204939112    4.08014779963429
Cl       -1.19484092883674   -3.65361648695102    4.07770694746514
66
 energy: -155.832207362705 gnorm: 0.005304340441 xtb: 6.4.1 (a3dbbd7)
C        -1.28824146975460   -0.00126278539696    3.50689135350988
C        -0.36978316186428   -1.17389537738647    3.21984136581998
C         0.89944189157575   -0.72746923673759    3.14498257887022
C         0.89945918142756    0.72504443101477    3.14516484921895
C        -0.36975351659832    1.17141041520968    3.21990820292992
C         2.29722855697911   -2.57021651883954    0.56152548498708
C         3.13207888982303   -1.39547183084003    0.56543855814052
C         2.91972376171688   -0.68591001921526    1.78464834175127
C         2.07222067909094   -1.53181388284429    2.71058227913702
C         1.56228190261075   -2.61575652333070    1.78393919044705
C         3.13204061800714    1.39439465111936    0.56601612579237
C         2.29713535747993    2.56910000966828    0.56263189715196
C         1.56217546067535    2.61402994960540    1.78504711965132
C         2.07218597694144    1.52972487931604    2.71122045424075
C         2.91974132575007    0.68428956955500    1.78494405615960
C        -0.35010595001887    3.43978784037232    0.56323106014106
C        -1.71588092831533    2.98301602503109    0.56256420300268
C        -1.96502356181234    2.29255987127742    1.78957790196380
C        -0.80303491669892    2.50722230866041    2.73789368954854
C         0.26179352573999    3.04518686353822    1.79207428397815
C        -3.33083653055347    0.71827904984927    0.56518894404837
C        -3.33078408421855   -0.71953087861292    0.56487699655047
C        -2.74123195839661   -1.17095128930742    1.78414553941154
C        -2.62503071369746   -0.00110666836221    2.73927414338865
C        -2.74129689256793    1.16918087932656    1.78462942319618
C        -1.71581014776721   -2.98422894184147    0.56129207767649
C        -0.35002469254850   -3.44095275286711    0.56175912712678
C         0.26189598435569   -3.04685941074450    1.79076311825369
C        -0.80299121087884   -2.50949827412991    2.73688491320836
C        -1.96492525201588   -2.29431166991168    1.78860813546822
C        -0.24290220706421   -3.01231582281891   -1.85930750598352
C         0.74821580073970   -2.29176548032725   -2.61786418359820
C         1.97171949024940   -2.29014755156142   -1.85796802221971
C         1.73088553005300   -3.00825609687163   -0.63105643848934
C         0.36982987975782   -3.45267245334666   -0.63070607561310
C         2.78511776566165   -1.16574517631412   -1.85534001022228
C         2.41105182514310    0.00014985140962   -2.61487124005651
C         2.78508662666100    1.16573174826907   -1.85487345423433
C         3.38100642964663    0.71533125464214   -0.62235645518924
C         3.38107217892113   -0.71588748864774   -0.62265839671711
C         1.97169151938486    2.29016692586847   -1.85702134083146
C         0.74818657190105    2.29213823321979   -2.61693901423146
C        -0.24297070342619    3.01234355420348   -1.85804820502990
C         0.36975475501489    3.45208998480470   -0.62923465533840
C         1.73083048271279    3.00770324021734   -0.62977681713534
C        -1.56205594494823    2.58275193199664   -1.85858659263400
C        -1.94266139426157    1.41717700960706   -2.61652175859496
C        -2.92908751739219    0.69414373344137   -1.85527041544389
C        -3.14560578289019    1.41138977021893   -0.62462984137885
C        -2.30910763938061    2.57321020872251   -0.62646360431980
C        -2.92918447730658   -0.69427649372377   -1.85559846064167
C        -1.94266841082835   -1.41692476661831   -2.61711169907207
C        -1.56197717856059   -2.58277776310663   -1.85966710643156
C        -2.30903682396295   -2.57387716400157   -0.62756772495865
C        -3.14558142934541   -1.41207946179143   -0.62524250873913
C        -0.98718400212414   -0.72043189705350   -3.34884722335611
C        -0.98714212053804    0.72101950034671   -3.34854397547684
C         0.38330258918872    1.16676142170142   -3.34853010935162
C         1.22977189734441    0.00031138498029   -3.34839290953540
C         0.38328717069366   -1.16611706306653   -3.34897390581141
Cl       -1.49672322571426   -0.00119999333378    5.30181197085042
Cl       -4.07963281215802   -0.00168604504418    3.80435277294024
Cl        2.98565569659036   -2.16687961334939    4.12586706670052
Cl        2.98554776844749    2.16422672108683    4.12685004048218
Cl       -1.19802363759723    3.65820708154828    4.06858273305840
Cl       -1.19808120678139   -3.66148051721735    4.06664320847729
66
 energy: -155.832313126861 gnorm: 0.002210717418 xtb: 6.4.1 (a3dbbd7)
C        -1.28888965446531   -0.00124161262267    3.50561652742948
C        -0.37009418059729   -1.17418682172406    3.22141822417590
C         0.89914944652773   -0.72777986784770    3.14576669239863
C         0.89917612875915    0.72540594074105    3.14600320541840
C        -0.37005049263771    1.17177376577309    3.22163694739903
C         2.29627759305267   -2.56886724718530    0.56137206411029
C         3.13142955949098   -1.39482269572458    0.56494475540414
C         2.91962126060849   -0.68564620340792    1.78477223192021
C         2.07216735615266   -1.53120722682859    2.71078518329018
C         1.56203182508891   -2.61480466217199    1.78430489585364
C         3.13142483957016    1.39375646233764    0.56555426887257
C         2.29620925170481    2.56776248097597    0.56252671228328
C         1.56196678980178    2.61312727589017    1.78547536448235
C         2.07217384904783    1.52912743851094    2.71144875223311
C         2.91972931599841    0.68404558335249    1.78510399298527
C        -0.34945556283483    3.43777348351167    0.56333756327390
C        -1.71481447490271    2.98169053988194    0.56266469171647
C        -1.96394062755415    2.29218651384764    1.79021102499375
C        -0.80245245844974    2.50666187913807    2.73869162765883
C         0.26218857684198    3.04343042856608    1.79249156437227
C        -3.32884795463445    0.71805437005880    0.56550649834702
C        -3.32879087958049   -0.71931964128983    0.56517093717261
C        -2.74053386005599   -1.17148010433837    1.78514586253801
C        -2.62412807612877   -0.00111806773353    2.73910929089332
C        -2.74060057299701    1.16970711462736    1.78567068646377
C        -1.71474299382587   -2.98289544599181    0.56133628991576
C        -0.34937525662654   -3.43893376480631    0.56179855784520
C         0.26226400608656   -3.04508261227921    1.79111541372606
C        -0.80239621199662   -2.50885850635727    2.73760566558178
C        -1.96384406719932   -2.29393179519010    1.78918430906799
C        -0.24260143708969   -3.01097540047834   -1.85973972980833
C         0.74786289477432   -2.29082479270907   -2.61908495275783
C         1.97071620905362   -2.28904806418226   -1.85847309169689
C         1.72997216346673   -3.00605948115782   -0.63111947845636
C         0.36963071460479   -3.45029776642341   -0.63064480503212
C         2.78392224904201   -1.16512236315060   -1.85594832257851
C         2.41005964953112    0.00015274725806   -2.61619382211309
C         2.78388354338503    1.16510163447510   -1.85544684879980
C         3.37941545879969    0.71511809438332   -0.62274814412174
C         3.37946814222908   -0.71566601555036   -0.62306714950210
C         1.97066227738770    2.28902673180210   -1.85745878531734
C         0.74781610646367    2.29112395160835   -2.61807851383855
C        -0.24267073598700    3.01090773782157   -1.85839963552535
C         0.36954455781446    3.44967418248603   -0.62910811288887
C         1.72990247601652    3.00547364107844   -0.62978144809510
C        -1.56133928268493    2.58154546215783   -1.85882103101296
C        -1.94197816138687    1.41665276737783   -2.61743837888143
C        -2.92756258119366    0.69389257778220   -1.85518083544551
C        -3.14351526523119    1.41050870185220   -0.62423831125139
C        -2.30751745271668    2.57198724359472   -0.62631583013352
C        -2.92766782493190   -0.69408115564143   -1.85554038522445
C        -1.94198784486658   -1.41645201848718   -2.61807767679813
C        -1.56127859327128   -2.58165786435132   -1.85997308239660
C        -2.30746338592224   -2.57269092616546   -0.62747259415527
C        -3.14350817378873   -1.41123957535963   -0.62487937894132
C        -0.98720969365202   -0.72036586815314   -3.35048184221477
C        -0.98717920676976    0.72092181635533   -3.35015215453050
C         0.38308555017850    1.16655093511579   -3.35020790608910
C         1.22946078191546    0.00030104470634   -3.35015702359801
C         0.38308435900808   -1.16595049680080   -3.35071021894840
Cl       -1.51961871997220   -0.00117269730566    5.29632343417582
Cl       -4.07218965020971   -0.00153891689851    3.81319535982273
Cl        2.98676613969131   -2.16706819989922    4.12497800858335
Cl        2.98662270233708    2.16438839376398    4.12604245666191
Cl       -1.19623142779157    3.65562805085156    4.07112271476738
Cl       -1.19617342418047   -3.65874772220398    4.06919127096300
66
 energy: -155.832319261642 gnorm: 0.000857565009 xtb: 6.4.1 (a3dbbd7)
C        -1.28905509900325   -0.00125289356533    3.50526678921399
C        -0.37011390497081   -1.17428544316890    3.22135863620751
C         0.89929210688709   -0.72778274991601    3.14701065719909
C         0.89930819739444    0.72544749217718    3.14730201960694
C        -0.37009943394486    1.17189090016592    3.22173008986105
C         2.29583688777273   -2.56850708827930    0.56153236972904
C         3.13115029690904   -1.39466591861709    0.56516556362966
C         2.91930692013285   -0.68561720824616    1.78494411167950
C         2.07188335395214   -1.53108883275041    2.71107669227836
C         1.56157871228773   -2.61428874703237    1.78441910266395
C         3.13121390785978    1.39361289570174    0.56578698517468
C         2.29588806172880    2.56745429858740    0.56269396494982
C         1.56155517925447    2.61262223669846    1.78557539090280
C         2.07187344967035    1.52902288031050    2.71175178910974
C         2.91936261121469    0.68401456454221    1.78526218465424
C        -0.34960006074554    3.43732132017984    0.56325634018605
C        -1.71485708181102    2.98137810724864    0.56265490091204
C        -1.96397320143427    2.29197665631345    1.79011580381063
C        -0.80249466336602    2.50594364129410    2.73851588444968
C         0.26200904953537    3.04277071297017    1.79214013034516
C        -3.32880883740992    0.71806293010684    0.56542868287189
C        -3.32873845486112   -0.71932526453861    0.56509064654837
C        -2.74072986365127   -1.17149796345032    1.78499994757817
C        -2.62344113255409   -0.00111956814132    2.73898105659474
C        -2.74080726164912    1.16971677652720    1.78554232164566
C        -1.71479164996420   -2.98260893348886    0.56132210546607
C        -0.34953044596707   -3.43851243836774    0.56171788108775
C         0.26206104614068   -3.04446935177150    1.79078427181286
C        -0.80244564643513   -2.50813388580789    2.73742489266668
C        -1.96389674538058   -2.29374897069948    1.78908892930816
C        -0.24258043822760   -3.01066891922680   -1.85981168252253
C         0.74785513088054   -2.29052729119077   -2.61913488430698
C         1.97050930504961   -2.28875311302270   -1.85829091189186
C         1.72962145989282   -3.00583003677593   -0.63089151576121
C         0.36958046534537   -3.45001818567530   -0.63062928082394
C         2.78363814198236   -1.16501992072330   -1.85573203560047
C         2.40985316448428    0.00016311683948   -2.61604243187769
C         2.78363812122060    1.16501325037264   -1.85521419931312
C         3.37938704503909    0.71497990158555   -0.62249508720321
C         3.37933779576189   -0.71551021389768   -0.62281220143570
C         1.97048170523168    2.28873167382351   -1.85725770934752
C         0.74781916771299    2.29080779886217   -2.61809663198136
C        -0.24264037771263    3.01056838771590   -1.85844496344347
C         0.36952438512143    3.44937841195708   -0.62907480713668
C         1.72960230106434    3.00526087234052   -0.62953621311893
C        -1.56112556984651    2.58125354013653   -1.85887305543228
C        -1.94170263041936    1.41648482955263   -2.61761092419841
C        -2.92725724298247    0.69379864045290   -1.85535354646035
C        -3.14332460758371    1.41045798849703   -0.62435010728657
C        -2.30757031354947    2.57168935522592   -0.62637461367718
C        -2.92728183621705   -0.69398151746069   -1.85568697817764
C        -1.94168480874428   -1.41628940203690   -2.61825923279514
C        -1.56107008580730   -2.58138786178101   -1.86004317257431
C        -2.30750339051592   -2.57240077753673   -0.62753338680254
C        -3.14328485291599   -1.41119063860113   -0.62498814538295
C        -0.98701971525076   -0.72031283690552   -3.35077806575057
C        -0.98700046363753    0.72087138092286   -3.35043549517073
C         0.38318594004776    1.16645750996969   -3.35038731063842
C         1.22952041877435    0.00030691334082   -3.35029509339282
C         0.38319150972116   -1.16585788900229   -3.35091445891148
Cl       -1.52262793093108   -0.00140450641957    5.29568928349167
Cl       -4.07008082348026   -0.00151775494624    3.81562683956170
Cl        2.98830832528709   -2.16873044150794    4.12355784763125
Cl        2.98818067230259    2.16611547973936    4.12458289793280
Cl       -1.19573073126101    3.65554563192789    4.07070356351813
Cl       -1.19564994513085   -3.65849014026807    4.06893112478027
66
 energy: -155.832320089316 gnorm: 0.000315465542 xtb: 6.4.1 (a3dbbd7)
C        -1.28921659319161   -0.00125270108131    3.50491925661799
C        -0.37008845505510   -1.17431738774499    3.22108948742749
C         0.89945225156892   -0.72779365604122    3.14790897138769
C         0.89947711388284    0.72549468607735    3.14823101397609
C        -0.37008619083887    1.17194794768925    3.22160190365694
C         2.29583540385159   -2.56848827212775    0.56166719872932
C         3.13107301480662   -1.39463833397268    0.56532165934294
C         2.91897131762806   -0.68559068685875    1.78499874537128
C         2.07166218516499   -1.53102015669281    2.71123748964431
C         1.56140138129107   -2.61407246803155    1.78452312319575
C         3.13109146518388    1.39358220387985    0.56596751258654
C         2.29579041481243    2.56739380864435    0.56283835673203
C         1.56135736525685    2.61240232250453    1.78571264226698
C         2.07169179383341    1.52895755433740    2.71193651372342
C         2.91918491113315    0.68401041897721    1.78538233798062
C        -0.34973068752613    3.43721344236787    0.56323644028473
C        -1.71493724143795    2.98133401885004    0.56273499017583
C        -1.96404086831318    2.29192912874897    1.79011442797045
C        -0.80252736595514    2.50549973946949    2.73838899322293
C         0.26192341742957    3.04250374936264    1.79191292384869
C        -3.32888113983224    0.71808132079763    0.56539819204913
C        -3.32882189918354   -0.71933253090344    0.56505609362139
C        -2.74091457849126   -1.17148800859251    1.78488750262430
C        -2.62330477267106   -0.00111159836867    2.73894236373202
C        -2.74098535710792    1.16970900597470    1.78544190015064
C        -1.71487366681930   -2.98255653651699    0.56137821298379
C        -0.34965304686863   -3.43840179041934    0.56168034725312
C         0.26198715673750   -3.04422828283250    1.79053663056544
C        -0.80247239350659   -2.50767751433027    2.73726184018431
C        -1.96398389554968   -2.29371125894949    1.78907412960533
C        -0.24258453891379   -3.01057658213779   -1.85983421413745
C         0.74786657417338   -2.29042300547353   -2.61912485071874
C         1.97045482773092   -2.28865410101130   -1.85816938937631
C         1.72950644826036   -3.00583152548789   -0.63069189486795
C         0.36961580754415   -3.44994781383108   -0.63058175340869
C         2.78351134563775   -1.16501144662461   -1.85560923237070
C         2.40972219404498    0.00015917721772   -2.61592437700277
C         2.78346963778920    1.16500688483158   -1.85508986272401
C         3.37921121632617    0.71487719450629   -0.62230060053221
C         3.37927488954983   -0.71541692369727   -0.62262887883603
C         1.97040234458995    2.28863370381154   -1.85714048062415
C         0.74782552143858    2.29069843786396   -2.61809980632633
C        -0.24263260261306    3.01048694636315   -1.85847601695028
C         0.36953923027608    3.44932585758353   -0.62902040600226