62
Properties=species:S:1:pos:R:3 energy:=T -137.582502296677=T gnorm:=T 0.000180456659=T xtb:=T 6.4.1=T (a3dbbd7)=T pbc="F F F"
C       -1.30590991       0.00000001       3.57755255
C       -0.38263143      -1.16611771       3.28596362
C        0.97256967      -0.71952510       3.26854093
C        0.97256967       0.71952510       3.26854093
C       -0.38263143       1.16611771       3.28596362
C        2.33524239      -2.58179091       0.58297317
C        3.18401003      -1.41551902       0.58355335
C        2.94545752      -0.69332100       1.80773013
C        1.94587485      -1.41427512       2.55713156
C        1.57508084      -2.57710943       1.80584669
C        3.18401004       1.41551900       0.58355335
C        2.33524241       2.58179090       0.58297317
C        1.57508085       2.57710942       1.80584669
C        1.94587485       1.41427511       2.55713156
C        2.94545752       0.69332098       1.80773013
C       -0.36288601       3.43718058       0.57877483
C       -1.73308464       2.99275670       0.57466682
C       -1.97781182       2.27494720       1.79391702
C       -0.73706061       2.27492461       2.56486970
C        0.24767810       2.99273368       1.80541665
C       -3.36595109       0.71952686       0.57280217
C       -3.36595109      -0.71952683       0.57280216
C       -2.78138107      -1.16621289       1.79553663
C       -2.63386083       0.00000001       2.75246180
C       -2.78138108       1.16621292       1.79553664
C       -1.73308466      -2.99275669       0.57466682
C       -0.36288603      -3.43718058       0.57877483
C        0.24767808      -2.99273368       1.80541665
C       -0.73706062      -2.27492460       2.56486970
C       -1.97781183      -2.27494718       1.79391702
C       -0.23996105      -3.00745061      -1.83058449
C        0.75298872      -2.28842833      -2.58426258
C        1.97873950      -2.28844917      -1.82263331
C        1.74283510      -3.00747113      -0.59857009
C        0.36923287      -3.44813339      -0.59946751
C        2.79619164      -1.16592847      -1.82283967
C        2.41766192      -0.00000001      -2.58076752
C        2.79619165       1.16592845      -1.82283967
C        3.40984279       0.72111316      -0.59722780
C        3.40984279      -0.72111319      -0.59722781
C        1.97873952       2.28844915      -1.82263331
C        0.75298873       2.28842832      -2.58426258
C       -0.23996103       3.00745061      -1.83058449
C        0.36923289       3.44813339      -0.59946751
C        1.74283511       3.00747112      -0.59857009
C       -1.56168513       2.58180187      -1.83838731
C       -1.93812947       1.41553617      -2.59910665
C       -2.93002815       0.69332228      -1.84304373
C       -3.15920125       1.41426648      -0.61493046
C       -2.32139714       2.57710661      -0.61523663
C       -2.93002816      -0.69332227      -1.84304374
C       -1.93812948      -1.41553616      -2.59910665
C       -1.56168515      -2.58180186      -1.83838731
C       -2.32139716      -2.57710659      -0.61523663
C       -3.15920125      -1.41426645      -0.61493047
C       -0.97950261      -0.72110646      -3.32453402
C       -0.97950261       0.72110646      -3.32453402
C        0.39114817       1.16579529      -3.31713672
C        1.23840141      -0.00000001      -3.31346443
C        0.39114817      -1.16579530      -3.31713672
Cl      -1.61064735       0.00000002       5.36393970
Cl      -4.10046163      -0.00000004       3.81690126
