64
Properties=species:S:1:pos:R:3 energy:=T -146.703216963582=T gnorm:=T 0.000139355399=T xtb:=T 6.4.1=T (a3dbbd7)=T pbc="F F F"
C       -1.29970061       0.01214619       3.54670263
C       -0.36249760      -1.14508549       3.24017770
C        0.91795685      -0.71875438       3.20732968
C        0.95155572       0.73318585       3.22925917
C       -0.39185295       1.19067619       3.26908360
C        2.30440723      -2.56324489       0.57222587
C        3.15224154      -1.39747607       0.57523165
C        2.94385016      -0.69159711       1.79474689
C        2.07797727      -1.52169613       2.72188856
C        1.56496344      -2.59847230       1.79331898
C        3.16597521       1.40791382       0.57281725
C        2.32444472       2.58037430       0.57415198
C        1.56802038       2.58764439       1.80072625
C        1.93169801       1.42865379       2.54964184
C        2.92896750       0.68287048       1.78804685
C       -0.36768761       3.45397399       0.57013032
C       -1.73980916       3.01134320       0.56503648
C       -1.98743075       2.30054526       1.78830708
C       -0.74758456       2.30955972       2.56044851
C        0.23940838       3.01799809       1.80023394
C       -3.35662182       0.72931736       0.56771558
C       -3.33892154      -0.70849138       0.56978278
C       -2.74313274      -1.15383208       1.79036349
C       -2.62843132       0.01400429       2.74582707
C       -2.78008462       1.18281675       1.78973669
C       -1.71238119      -2.96494147       0.56997183
C       -0.34742584      -3.42006469       0.57115416
C        0.26395639      -3.01986700       1.79806766
C       -0.79634873      -2.47355111       2.73931154
C       -1.96028956      -2.27073663       1.79475830
C       -0.23908625      -3.00076126      -1.85007410
C        0.75179677      -2.28242062      -2.60796850
C        1.97657470      -2.28136331      -1.84610848
C        1.73400948      -2.99746080      -0.61948777
C        0.37255452      -3.43784458      -0.61959758
C        2.79022299      -1.15841315      -1.84243221
C        2.41516855       0.00753220      -2.60079045
C        2.79352057       1.17184519      -1.83948234
C        3.40217662       0.72215237      -0.61382221
C        3.39648847      -0.71156865      -0.61266377
C        1.97394052       2.29282235      -1.83391624
C        0.75043648       2.29485483      -2.59334200
C       -0.24251419       3.01539409      -1.83827466
C        0.36511225       3.45703707      -0.60869074
C        1.73739372       3.01006652      -0.60636510
C       -1.56467027       2.59138741      -1.84761162
C       -1.94019690       1.42476797      -2.60757205
C       -2.92955732       0.70288813      -1.84973269
C       -3.15894857       1.42418226      -0.62198411
C       -2.32493740       2.58987889      -0.62435216
C       -2.92811011      -0.68397512      -1.84954609
C       -1.93870194      -1.40759371      -2.61012126
C       -1.55839527      -2.57095469      -1.85134550
C       -2.30576869      -2.55927652      -0.61945990
C       -3.14465597      -1.40045055      -0.61888132
C       -0.98250616      -0.71187935      -3.33956651
C       -0.98274238       0.72989073      -3.33592419
C        0.38756436       1.17409589      -3.33073025
C        1.23466536       0.00891587      -3.33296215
C        0.38765559      -1.15752925      -3.33807317
Cl      -1.57718799      -0.03272179       5.33457882
Cl      -4.08935682       0.00426809       3.81109836
Cl       3.01837432      -2.18603936       4.11497230
Cl      -1.18861968      -3.61726350       4.08303532
