65
Properties=species:S:1:pos:R:3 energy:=T -151.240353573737=T gnorm:=T 0.000075080322=T xtb:=T 6.4.1=T (a3dbbd7)=T pbc="F F F"
C       -1.29698492       0.00283927       3.53109135
C       -0.37072590      -1.16578583       3.23290887
C        0.90112970      -0.72974752       3.17671717
C        0.90849247       0.72818965       3.18107765
C       -0.38817806       1.17987343       3.27005082
C        2.30010724      -2.56950865       0.56916757
C        3.14255072      -1.39709306       0.57491633
C        2.93406658      -0.69672089       1.78955909
C        2.06976923      -1.52807143       2.71392174
C        1.56159875      -2.61194927       1.79006429
C        3.15814657       1.41134688       0.56196270
C        2.32058869       2.58368104       0.55821152
C        1.56135396       2.59590648       1.78245711
C        1.93975374       1.43509760       2.53875382
C        2.90855149       0.68908199       1.78352453
C       -0.34915362       3.44400722       0.57020563
C       -1.71632610       2.98639100       0.56663514
C       -1.96691052       2.29296367       1.79244449
C       -0.80214865       2.49351559       2.73357354
C        0.25349445       3.05219557       1.79651324
C       -3.32977893       0.72040538       0.56889220
C       -3.32800974      -0.71621083       0.56941073
C       -2.74032249      -1.16681585       1.79095667
C       -2.62504216       0.00282588       2.74708177
C       -2.74264365       1.17147405       1.79001640
C       -1.71382994      -2.97833316       0.56646056
C       -0.34911436      -3.43444490       0.56763093
C        0.26151481      -3.03832879       1.79632153
C       -0.80228834      -2.49839374       2.74117639
C       -1.96333007      -2.28843096       1.79387963
C       -0.23841801      -3.00706024      -1.85320565
C        0.75358826      -2.28634997      -2.61048173
C        1.97537019      -2.28553374      -1.84936967
C        1.73244345      -3.00348027      -0.62269332
C        0.37201043      -3.44666960      -0.62354740
C        2.78893841      -1.15979322      -1.84322811
C        2.41632121       0.00501972      -2.60677324
C        2.79511569       1.17149728      -1.85024255
C        3.39741877       0.72302487      -0.61951477
C        3.39202686      -0.71273096      -0.61707889
C        1.98090272       2.29571107      -1.85256705
C        0.75542820       2.29402686      -2.60950279
C       -0.23544057       3.01297290      -1.84818386
C        0.37589289       3.45751756      -0.62344851
C        1.74281794       3.01703444      -0.62656965
C       -1.55596746       2.58486353      -1.85309474
C       -1.93499477       1.42017310      -2.61140377
C       -2.92245224       0.69712434      -1.85103510
C       -3.14119559       1.41330697      -0.62050005
C       -2.30558654       2.57477016      -0.62222899
C       -2.92274284      -0.69066941      -1.85137153
C       -1.93687863      -1.41304318      -2.61306215
C       -1.55709761      -2.57784319      -1.85476137
C       -2.30532108      -2.56891604      -0.62307636
C       -3.14076121      -1.40785257      -0.62079045
C       -0.97965541      -0.71602712      -3.34386301
C       -0.97993109       0.72436136      -3.34352509
C        0.39069823       1.17050547      -3.34133905
C        1.23696342       0.00460037      -3.34040167
C        0.38935860      -1.16186634      -3.34275766
Cl      -1.56019795      -0.04479237       5.32595205
Cl      -4.08423164       0.00558588       3.80922013
Cl       3.00069472      -2.17574251       4.11962801
Cl      -1.19336054      -3.64681796       4.07691013
Cl      -1.20900507       3.68234700       4.05958245
