156
 energy: -497.564282290595 gnorm: 7.532374617320 xtb: 6.4.1 (a3dbbd7)
C        -1.23626340000000    0.00000000000000    3.32997640000000
C        -0.38202640000000   -1.17575640000000    3.32997640000000
C         1.00015810000000   -0.72665740000000    3.32997640000000
C         1.00015810000000    0.72665740000000    3.32997640000000
C        -0.38202640000000    1.17575640000000    3.32997640000000
C         2.34433560000000   -2.60145750000000    0.59464210000000
C         3.19857260000000   -1.42570110000000    0.59464210000000
C         2.96246730000000   -0.69904370000000    1.83090550000000
C         1.96230920000000   -1.42570110000000    2.59495830000000
C         1.58028280000000   -2.60145750000000    1.83090550000000
C         3.19857260000000    1.42570110000000    0.59464210000000
C         2.34433560000000    2.60145750000000    0.59464210000000
C         1.58028280000000    2.60145750000000    1.83090550000000
C         1.96230920000000    1.42570110000000    2.59495830000000
C         2.96246730000000    0.69904370000000    1.83090550000000
C        -0.36750900000000    3.48258920000000    0.59464210000000
C        -1.74969350000000    3.03349030000000    0.59464210000000
C        -1.98579880000000    2.30683290000000    1.83090550000000
C        -0.74953540000000    2.30683290000000    2.59495830000000
C         0.25062270000000    3.03349030000000    1.83090550000000
C        -3.42570570000000    0.72665740000000    0.59464210000000
C        -3.42570570000000   -0.72665740000000    0.59464210000000
C        -2.80757400000000   -1.17575640000000    1.83090550000000
C        -2.42554760000000    0.00000000000000    2.59495830000000
C        -2.80757400000000    1.17575640000000    1.83090550000000
C        -1.74969350000000   -3.03349030000000    0.59464210000000
C        -0.36750900000000   -3.48258920000000    0.59464210000000
C         0.25062270000000   -3.03349030000000    1.83090550000000
C        -0.74953540000000   -2.30683290000000    2.59495830000000
C        -1.98579880000000   -2.30683290000000    1.83090550000000
C        -0.25062270000000   -3.03349030000000   -1.83090550000000
C         0.74953540000000   -2.30683290000000   -2.59495830000000
C         1.98579880000000   -2.30683290000000   -1.83090550000000
C         1.74969350000000   -3.03349030000000   -0.59464210000000
C         0.36750900000000   -3.48258920000000   -0.59464210000000
C         2.80757400000000   -1.17575640000000   -1.83090550000000
C         2.42554760000000    0.00000000000000   -2.59495830000000
C         2.80757400000000    1.17575640000000   -1.83090550000000
C         3.42570570000000    0.72665740000000   -0.59464210000000
C         3.42570570000000   -0.72665740000000   -0.59464210000000
C         1.98579880000000    2.30683290000000   -1.83090550000000
C         0.74953540000000    2.30683290000000   -2.59495830000000
C        -0.25062270000000    3.03349030000000   -1.83090550000000
C         0.36750900000000    3.48258920000000   -0.59464210000000
C         1.74969350000000    3.03349030000000   -0.59464210000000
C        -1.58028280000000    2.60145750000000   -1.83090550000000
C        -1.96230920000000    1.42570110000000   -2.59495830000000
C        -2.96246730000000    0.69904370000000   -1.83090550000000
C        -3.19857260000000    1.42570110000000   -0.59464210000000
C        -2.34433560000000    2.60145750000000   -0.59464210000000
C        -2.96246730000000   -0.69904370000000   -1.83090550000000
C        -1.96230920000000   -1.42570110000000   -2.59495830000000
C        -1.58028280000000   -2.60145750000000   -1.83090550000000
C        -2.34433560000000   -2.60145750000000   -0.59464210000000
C        -3.19857260000000   -1.42570110000000   -0.59464210000000
C        -1.00015810000000   -0.72665740000000   -3.32997640000000
C        -1.00015810000000    0.72665740000000   -3.32997640000000
C         0.38202640000000    1.17575640000000   -3.32997640000000
C         1.23626340000000    0.00000000000000   -3.32997640000000
C         0.38202640000000   -1.17575640000000   -3.32997640000000
C        -1.76086815247998    0.00000000000000    4.78849957557021
F        -0.76911826531252    0.00000000000000    5.67468926254662
F        -2.50968386795825   -1.06794314680471    5.04863888333743
F        -2.50968386795825    1.06794314680471    5.04863888333743
C        -0.54413818249354   -1.67468516033722    4.78849957845317
F        -0.23767107904745   -0.73147481112462    5.67468925997942
F        -1.79120914301982   -2.05683909935453    5.04863874564184
F         0.24013968171955   -2.71686350152345    5.04863903502921
C         1.42457227037960   -1.03501233722714    4.78849957248258
F         0.62223011468481   -0.45207589682711    5.67468926529602
F         1.40265511061956   -2.33913928186680    5.04863905501621
F         2.65809836182651   -0.61117154425495    5.04863869666890
C         4.58877084110522   -2.05459160147071    0.86730597290559
F         4.59709252483521   -2.78118520641283    1.98125951001435
F         4.97417519512416   -2.85850196315549   -0.11965482382298
F         5.53562669678859   -1.13053295630600    1.00324569798425
C         2.82790274436383   -2.05459160758554    3.71645040671519
F         3.82797483682855   -2.78118494419178    3.22571836876305
F         3.37293748548841   -1.13053297859378    4.50255013394648
F         2.11749631416700   -2.85850222732984    4.50254863174647
C         4.25247495652193    1.01957928511255    2.62817407757680
F         4.45020405360857    2.32910962270745    2.75037677428973
F         5.33704498641440    0.51936149478962    2.04303305824599
F         4.21414295278389    0.51936236815949    3.85992636334022
C        -2.84103082519036    3.32439911178427    2.62817407941587
F        -2.23127406184888    4.50005340761388    2.75037746012491
F        -4.01248672303644    3.55720929213525    2.04303264409737
F        -3.10404037880940    2.89718378306489    3.85992609894427
C         0.34440953624153    4.35941144868709    2.62817404748705
F        -0.83992598883967    4.95213069234126    2.75037577510431
F         1.15529636597892    5.23632261667420    2.04303359185445
F         0.80829780400759    4.16837989546168    3.85992670963205
C        -4.03961820246674   -1.67468514775899    2.62817407948106
F        -4.96930660042402   -0.73147479244129    2.75037763231441
F        -4.62303373288711   -2.71686348978894    2.04303253910982
F        -3.71458666614022   -2.05683907990832    3.85992603200073
C        -0.53602450593361   -4.99908416128281    0.86730591619822
F        -1.22448605650957   -5.23152837615597    1.98125850960180
F        -1.18149064144157   -5.61404773804446   -0.11965571789346
F         0.63540201352706   -5.61404743764837    1.00324736766175
C        -1.08016271022039   -3.32439912180418    3.71645041587937
F        -1.46215754230407   -4.50005299330749    3.22571838851551
F        -0.03290491502764   -3.55721032900471    4.50254840735999
F        -2.06425285383526   -2.89718320022386    4.50255037491024
C         2.84103082519036   -3.32439911178427   -2.62817407941587
F         2.23127406184888   -4.50005340761388   -2.75037746012495
F         3.10404037880944   -2.89718378306489   -3.85992609894426
F         4.01248672303643   -3.55720929213529   -2.04303264409737
C         2.50473491433418   -4.35941144902977   -0.86730593917895
F         2.08438487052912   -4.95213043104453   -1.98125838386969
F         3.81390519137296   -4.16837996597314   -1.00324768478856
F         2.34400857369757   -5.23632280881804    0.11965581818547
C         4.03961820246674   -1.67468514775899   -2.62817407948106
F         4.96930660042401   -0.73147479244129   -2.75037763231445
F         3.71458666614023   -2.05683907990836   -3.85992603200072
F         4.62303373288714   -2.71686348978891   -2.04303253910981
C         4.03961820246674    1.67468514775899   -2.62817407948106
F         4.96930660042402    0.73147479244129   -2.75037763231441
F         3.71458666614022    2.05683907990832   -3.85992603200073
F         4.62303373288711    2.71686348978894   -2.04303253910982
C         2.84103082519036    3.32439911178427   -2.62817407941587
F         2.23127406184888    4.50005340761388   -2.75037746012491
F         3.10404037880940    2.89718378306489   -3.85992609894427
F         4.01248672303644    3.55720929213525   -2.04303264409737
C        -2.82790274436383    2.05459160758554   -3.71645040671519
F        -3.82797483682855    2.78118494419178   -3.22571836876305
F        -2.11749631416700    2.85850222732984   -4.50254863174647
F        -3.37293748548841    1.13053297859378   -4.50255013394648
C        -3.37204091334889    3.72927672645244   -0.86730596148276
F        -4.06564647311728    3.51265957144659   -1.98125763710228
F        -2.78580317558591    4.91533944031226   -1.00324916143779
F        -4.25569947457670    3.84739838595791    0.11965645964809
C        -4.25247495652193   -1.01957928511255   -2.62817407757680
F        -4.45020405360857   -2.32910962270745   -2.75037677428973
F        -4.21414295278389   -0.51936236815949   -3.85992636334022
F        -5.33704498641440   -0.51936149478962   -2.04303305824599
C        -2.28376457660886   -3.72927671755932   -2.62817408867206
F        -3.59030321655004   -3.51265997057978   -2.75037870097715
F        -1.79618325340527   -3.84739782561575   -3.85992562899768
F        -2.14318168460923   -4.91533956626621   -2.04303190988614
C        -4.58877084110522   -2.05459160147071   -0.86730597290559
F        -4.59709252483521   -2.78118520641283   -1.98125951001435
F        -5.53562669678859   -1.13053295630600   -1.00324569798425
F        -4.97417519512416   -2.85850196315549    0.11965482382298
C        -1.42457227037960    1.03501233722714   -4.78849957248258
F        -0.62223011468481    0.45207589682711   -5.67468926529602
F        -2.65809836182651    0.61117154425495   -5.04863869666891
F        -1.40265511061956    2.33913928186680   -5.04863905501621
C         0.54413818249354    1.67468516033722   -4.78849957845317
F         0.23767107904745    0.73147481112462   -5.67468925997942
F        -0.24013968171955    2.71686350152345   -5.04863903502921
F         1.79120914301982    2.05683909935453   -5.04863874564184
C         0.54413818249354   -1.67468516033722   -4.78849957845317
F         0.23767107904745   -0.73147481112462   -5.67468925997942
F        -0.24013968171955   -2.71686350152345   -5.04863903502921
F         1.79120914301982   -2.05683909935453   -5.04863874564184
156
 energy: -502.801441003846 gnorm: 5.772820494446 xtb: 6.4.1 (a3dbbd7)
C        -1.23657204480842    0.00186702975546    3.32191354840407
C        -0.38187200147533   -1.16721948347095    3.30918310453407
C         0.99516787207196   -0.71846220130968    3.31583527442454
C         1.00009285484772    0.72889464458481    3.33209663771409
C        -0.38072419484390    1.17787828816832    3.32991438456529
C         2.34290009013411   -2.60067762296624    0.59863297759391
C         3.20043377811223   -1.42750199208826    0.59599856570111
C         2.96296818396889   -0.70129709326881    1.83229780323997
C         1.96116437630470   -1.42483484335710    2.58330396606094
C         1.58130809126289   -2.60179266491603    1.82982355136737
C         3.19687661605772    1.42854352066354    0.59191595202560
C         2.34469109704198    2.59983415387293    0.59643377830784
C         1.58540367669818    2.59558536466278    1.83162041261842
C         1.95927847163384    1.42918054393706    2.59273720460576
C         2.96486352690127    0.70157681103271    1.83203272376822
C        -0.37135441365592    3.47964669916257    0.59124910772860
C        -1.74225905747294    3.03413996097004    0.59577889605764
C        -1.98778891983351    2.30962118070863    1.83226428044637
C        -0.74838534651656    2.30438685447143    2.59577682021999
C         0.25012645524017    3.03918860996766    1.83209380793235
C        -3.42532471020489    0.72624399623274    0.59548144844449
C        -3.42386798041280   -0.72298937109553    0.59473978050435
C        -2.81182229963278   -1.17572339626394    1.83112859502392
C        -2.42662095726835    0.00379942319490    2.59099520854595
C        -2.80922555287048    1.16968162381301    1.83052501258650
C        -1.75084974621921   -3.02802881819470    0.59546632440150
C        -0.36909675133520   -3.48478638434626    0.59576747524295
C         0.25133230818648   -3.03392275313185    1.83165956018754
C        -0.74877142508037   -2.30511061824410    2.58372335329339
C        -1.98384401828925   -2.31154892496645    1.82875924069914
C        -0.24514812497527   -3.03358057107076   -1.82970679401714
C         0.74916350347135   -2.31025218140267   -2.59273568412502
C         1.97829445126767   -2.30340001490315   -1.82776478949422
C         1.74579040022895   -3.03105714600954   -0.58982614614306
C         0.36675595358388   -3.48336016603746   -0.60001851342195
C         2.80355416388941   -1.16645004154640   -1.82546914361137
C         2.42920669612053    0.00007252701581   -2.59452268135219
C         2.80430028426491    1.16791178741318   -1.82540975224243
C         3.42664374044489    0.72602526480447   -0.59323378677616
C         3.42529759222027   -0.72350398956167   -0.59722339330226
C         1.97803616362799    2.30638643942258   -1.82502003413719
C         0.74892806552804    2.31100176590063   -2.59335308454016
C        -0.24935638586760    3.03290804741205   -1.82871990648236
C         0.36682529222389    3.48187908716270   -0.59636077557280
C         1.74885258769209    3.03540694166744   -0.59373621726265
C        -1.57811305528353    2.60404731218582   -1.83126313176235
C        -1.96181135392608    1.42560458370380   -2.58465196565157
C        -2.96355598311788    0.70261462314752   -1.83017436575482
C        -3.19901754073016    1.42267135045390   -0.59344122195542
C        -2.34861907582319    2.60337922588922   -0.59579240946011
C        -2.95810027178103   -0.69827676546133   -1.83063741911208
C        -1.96437398968321   -1.42659098869601   -2.59519127856324
C        -1.58254124452013   -2.60195188401079   -1.83085194398308
C        -2.34300739011411   -2.60402188456824   -0.59136919180955
C        -3.19703217739774   -1.42602712052507   -0.59204533057486
C        -0.99991667767428   -0.72462565119310   -3.33229696890957
C        -0.99663111976719    0.72059702323272   -3.32183276466016
C         0.38566853593266    1.17414790038965   -3.32423320729742
C         1.23564413095089    0.00080369904738   -3.33350148709590
C         0.38193528976734   -1.17475234199717   -3.33035391367587
C        -1.78040009437414    0.00644807303473    4.76350602060766
F        -0.80334743312561    0.06274955231711    5.70867823334491
F        -2.57978547258804   -0.99073638525476    5.05484444215038
F        -2.51155390728577    1.07246328550533    5.05254634208624
C        -0.55508726756370   -1.67223217679946    4.73238958521262
F        -0.25300257461353   -0.76763636571384    5.72422818265292
F        -1.75780864878581   -2.10802873262552    5.08416603570693
F         0.19379590674103   -2.74423895565141    5.10682594956745
C         1.42625105201395   -1.04252680596336    4.73463067164619
F         0.68217783424897   -0.40568485342328    5.71715393721062
F         1.45824649078218   -2.32458073858285    5.10378020555510
F         2.66029347794643   -0.57289754520490    5.08198373270514
C         4.58842023078659   -2.05175809711242    0.86708966025230
F         4.61907916751918   -2.78430678525594    1.95216976656714
F         4.98000604332256   -2.85903901780757   -0.11762425240574
F         5.53855747837537   -1.13355996917059    1.00079535642773
C         2.82500986680153   -2.05235463872311    3.69480204842907
F         3.81259439478853   -2.78427429990338    3.25811662042493
F         3.41609458192974   -1.13664543526617    4.49758816284710
F         2.15781517097912   -2.91064388858346    4.48132265433060
C         4.25228965781003    1.02151358396895    2.62554491999799
F         4.45169094199824    2.33092726402036    2.75143118693535
F         5.33870960293413    0.52282146131041    2.04561100395818
F         4.21680217354119    0.52180765470720    3.86260469249656
C        -2.84282638949336    3.32332018822633    2.62725641754382
F        -2.26769129286564    4.49152824387931    2.75139627749826
F        -4.01442871894530    3.55661173929022    2.04717602600746
F        -3.10504538694156    2.89749313415071    3.86185903144342
C         0.34591146584179    4.35950432975459    2.62731952013489
F        -0.80529663931132    4.96666006804329    2.75141329204989
F         1.15754767660055    5.23811769906030    2.04254392508781
F         0.80934674411583    4.16849495694063    3.86225459350724
C        -4.04099148175700   -1.67294014372231    2.62540742774601
F        -4.97109266515389   -0.73121001533386    2.75125138282238
F        -4.62367120856829   -2.71828775685020    2.04745156638992
F        -3.72070232198372   -2.05897736247433    3.86062685619493
C        -0.53597863934362   -4.99871873687992    0.86447645293574
F        -1.22046662105624   -5.25337025354355    1.95224470629814
F        -1.18164033283532   -5.61635738820604   -0.12084687385159
F         0.63348466140708   -5.61696554138837    1.00550850444921
C        -1.08071233538317   -3.32033763272084    3.69278537438768
F        -1.47040557712478   -4.48676282340957    3.25794760418634
F        -0.03138118851376   -3.62148356222568    4.48231588985952
F        -2.09523663518613   -2.92932978302854    4.49709201884889
C         2.84527240592274   -3.28366872461561   -2.59205741940351
F         2.22563785382639   -4.50504753507005   -2.82453841227736
F         3.08039497677713   -2.92927059611624   -3.90536978219620
F         4.02407106467735   -3.55648428451899   -2.11363025837346
C         2.50652912568568   -4.34891636765910   -0.85257044494286
F         2.06476298467559   -5.00253057841896   -1.93851750590706
F         3.80572216797033   -4.22445040472729   -0.91562216884397
F         2.34704610921697   -5.24013249901818    0.12022785329019
C         4.02949935815129   -1.65860697678391   -2.61719385868375
F         4.97446568839795   -0.76758582537785   -2.75224477643212
F         3.73773786935987   -2.02554639049676   -3.88813644538366
F         4.66487673302373   -2.69920453972968   -2.03699919599246
C         4.02819227190783    1.66166153858558   -2.61228528955600
F         4.97527210954052    0.76761460169553   -2.75305095424448
F         3.73421840486564    2.02817094417431   -3.89362898610794
F         4.66391969312727    2.70539073141056   -2.02796571504262
C         2.82413547525707    3.32203280351805   -2.61172349169767
F         2.23160804070111    4.50351693564287   -2.75262244664209
F         3.08669649820376    2.92727770850953   -3.88874524686864
F         4.00997228297391    3.59782863342061   -2.03107730815073
C        -2.82849037159716    2.05174211492997   -3.69499234649215
F        -3.82499450859534    2.76462689828231   -3.25819395208956
F        -2.14194669145612    2.90059457609476   -4.49301204561916
F        -3.41653602253257    1.14122235565348   -4.49421648717889
C        -3.37138108930326    3.73021640587050   -0.86338860177238
F        -4.07516459700702    3.53253502911732   -1.95272801468932
F        -2.78549436407633    4.91751475766088   -1.00380172476666
F        -4.25774868741708    3.84908042560284    0.11666508928672
C        -4.25016338627971   -1.00530414578409   -2.62627455268218
F        -4.45787108504218   -2.29345523786197   -2.80697915129671
F        -4.21626879395922   -0.52123703426483   -3.86623955650363
F        -5.32583893895003   -0.46871268567488   -2.12622291713770
C        -2.27732306098610   -3.73136306365729   -2.62723463674052
F        -3.56734435872104   -3.54450053023720   -2.76503807249923
F        -1.79623875269431   -3.84907784543264   -3.86233919832311
F        -2.14354278125101   -4.91785314723786   -2.04385512451345
C        -4.58918496949218   -2.04848979200250   -0.85146258413829
F        -4.62634241018634   -2.81083024758329   -1.92826503926007
F        -5.55616791949792   -1.17767593602160   -0.92049627751324
F        -4.97608476308989   -2.86221422349786    0.11792452553911
C        -1.41912660988749    1.05798922867852   -4.73985054945491
F        -0.67790067693991    0.43023886785804   -5.70661550891309
F        -2.66331115233523    0.56367458231531   -5.08891717570687
F        -1.46012205259780    2.31094783728282   -5.08101020377186
C         0.54237028670203    1.68355987257803   -4.77166594655444
F         0.29336652701397    0.75714637540930   -5.69948924415231
F        -0.14417532142253    2.76212399005698   -5.05524445820745
F         1.79716974275172    2.05639080029641   -5.05600097629584
C         0.54336447728582   -1.67905426530411   -4.78398570316670
F         0.25408601072731   -0.77254586731052   -5.68280999225980
F        -0.24019043512687   -2.71883306723957   -5.05087252610699
F         1.79240646263224   -2.05691737318430   -5.05362145135776
156
 energy: -507.893947514968 gnorm: 5.273457248288 xtb: 6.4.1 (a3dbbd7)
C        -1.23971343460276    0.00742378711034    3.32044459707315
C        -0.38606474940859   -1.16592433787810    3.30920975859044
C         0.99645010854846   -0.71330457164586    3.31720953818377
C         0.99907237947348    0.73155480728845    3.33213672033249
C        -0.37859185808902    1.18134206888860    3.32527638633972
C         2.34081722159871   -2.60083979584492    0.60306107106616
C         3.20456376225325   -1.43039476720794    0.59815916705247
C         2.96050456627915   -0.70358380789459    1.83154458920823
C         1.96567063315823   -1.42682178509110    2.57543461110080
C         1.58064516720850   -2.60143332424416    1.82530573908571
C         3.19501301444218    1.43068483110048    0.58818895622968
C         2.34434082559293    2.59752801347540    0.59714597069777
C         1.59137355683446    2.58869095692464    1.82964897904885
C         1.95508713082893    1.43384561737223    2.58874357645833
C         2.97061342402663    0.70530026263067    1.83573586194690
C        -0.37620390239430    3.47526640625469    0.58733587455398
C        -1.73304954786781    3.03509487660269    0.59718308515865
C        -1.99095710859965    2.31614720872733    1.83729439933542
C        -0.74645809713988    2.29754086230693    2.59673719961175
C         0.24960577567875    3.04702237581226    1.83712490903123
C        -3.42141454144175    0.72546505815271    0.59540632126291
C        -3.42548515546452   -0.71832170484898    0.59574768530581
C        -2.81792378479829   -1.17594790526338    1.83397551192169
C        -2.42857525114608    0.00946080983919    2.58543924871517
C        -2.81005293278825    1.16214662408077    1.82725436214371
C        -1.75225273887848   -3.02120706254620    0.59519445259446
C        -0.37118438225557   -3.49274535165951    0.59826994517366
C         0.25358944678248   -3.03261422503160    1.83248757501524
C        -0.74973395479582   -2.30972150727045    2.57389506566331
C        -1.98118551140329   -2.31591370334796    1.82309477644669
C        -0.23689301838880   -3.03136367366521   -1.82476462296400
C         0.74681887932646   -2.31474842434641   -2.58926192786335
C         1.97494134952264   -2.30423346201823   -1.82911944921384
C         1.74293765298054   -3.03216563343156   -0.58546088949645
C         0.36491038531865   -3.47994096843627   -0.60652161203930
C         2.80305960569636   -1.15713152860513   -1.82213730839499
C         2.43114787725402   -0.00029200412151   -2.59355432631621
C         2.80749591205700    1.16311488986983   -1.82509271298471
C         3.42398538406324    0.72383684930051   -0.58877428582626
C         3.42646846726448   -0.71831077174531   -0.59982414159929
C         1.97441910692434    2.31104823059316   -1.82412874083683
C         0.74770001168735    2.31505810890298   -2.59157741787163
C        -0.24849838698944    3.03170525122300   -1.82535447073486
C         0.36664984275406    3.48176161469046   -0.59816967308829
C         1.74699231505270    3.03731341807490   -0.59055919436169
C        -1.57425638188961    2.60414072319770   -1.83212059744791
C        -1.96389119739950    1.42754900106206   -2.57663773468184
C        -2.96391265460931    0.70723784055268   -1.82573573741419
C        -3.19832061036889    1.41858711364763   -0.59182495431239
C        -2.35455457347802    2.60907882396958   -0.59829055490892
C        -2.95516491011985   -0.69808507797498   -1.83282941278818
C        -1.96531586048374   -1.42674618467918   -2.59511275268515
C        -1.58613327510730   -2.60646272109367   -1.83407535046356
C        -2.34055045643853   -2.60467774007693   -0.58718009534192
C        -3.19664951357134   -1.42723675406085   -0.58939211291046
C        -0.99991269394596   -0.72347573440903   -3.33294086624137
C        -0.99357188265131    0.71532674554897   -3.31967975733862
C         0.39064714380163    1.17198252578056   -3.31886903352092
C         1.23551528789231    0.00149783375094   -3.33605188133648
C         0.38166760748474   -1.17445871176313   -3.33415387382227
C        -1.79974051892858    0.00181082428529    4.73617953703000
F        -0.83458682057422    0.14460940136524    5.73976319329998
F        -2.61730966985480   -0.94456372440025    5.05911937615588
F        -2.51104392812519    1.07394475549438    5.05508100978957
C        -0.56110806867516   -1.67663254037076    4.65390550678749
F        -0.28230489346282   -0.82703659777483    5.78513049180856
F        -1.72029948152585   -2.12660197844224    5.12340148433822
F         0.15259451726263   -2.72479148087095    5.19211415205822
C         1.42073860324699   -1.06933139679434    4.68082213537997
F         0.75411064431827   -0.34081849429895    5.76496834072700
F         1.47800672067254   -2.25620070651056    5.17622881517044
F         2.62712921726627   -0.53014813002725    5.12902405920624
C         4.58846724206195   -2.04921212099562    0.86861523937338
F         4.63887364607053   -2.78711983342187    1.92563828064148
F         4.98645116407545   -2.85891747072277   -0.11437316248114
F         5.54138939759404   -1.13703967241835    0.99779238986712
C         2.82088288474678   -2.04969912639707    3.67563524197227
F         3.79953527612082   -2.78786707832773    3.28878317528628
F         3.47673245116461   -1.16397916565010    4.47328069539299
F         2.21376788121662   -2.98566010078675    4.42878760682680
C         4.25273194337938    1.02349332931138    2.62329349807403
F         4.45295652710344    2.33269971666693    2.75232737480643
F         5.33993858834249    0.52702883474699    2.04850532333299
F         4.21963568230076    0.52565389167966    3.86432033214562
C        -2.84418948776016    3.32353124871825    2.62691615942097
F        -2.30017934144593    4.48397492112595    2.75228037602807
F        -4.01616150271901    3.55576802706347    2.05203494299392
F        -3.10605806376104    2.89777771274276    3.86370954450788
C         0.34645292969108    4.36012011440844    2.62674807977362
F        -0.77440644181445    4.97965767979979    2.75231471560728
F         1.15958224764677    5.23969863107857    2.04196048542290
F         0.81036748936782    4.16845073278012    3.86444886792865
C        -4.04307425382591   -1.67113164603607    2.62296895729852
F        -4.97276278462887   -0.73092613296564    2.75205653648554
F        -4.62406335046855   -2.71974341809208    2.05256248573979
F        -3.72796020492906   -2.06115410648474    3.86016986290145
C        -0.53637426001687   -4.99857740171215    0.86299460972345
F        -1.21686282133416   -5.27285928889436    1.92597649338093
F        -1.18171259792503   -5.61853785630319   -0.12192459625678
F         0.63096986723974   -5.61978608092611    1.00805870054251
C        -1.07369147337995   -3.31603011054997    3.66850444507007
F        -1.47869392686664   -4.47431133870663    3.28922839742215
F        -0.02906684047440   -3.70921354083793    4.43297267198588
F        -2.13612321258890   -2.96578517388979    4.48704358913807
C         2.85249371029143   -3.24529385192104   -2.55414655913177
F         2.20986946440699   -4.52880095416367   -2.88313133553191
F         3.03892485450339   -3.00046459783262   -3.92848626056471
F         4.01243134903631   -3.57639325720695   -2.16913076421632
C         2.51029592204502   -4.33773278841006   -0.83975039017051
F         2.05115889701265   -5.03703265746034   -1.91468181803544
F         3.79940779958825   -4.25723253913864   -0.86724627859396
F         2.35113752693132   -5.24171953478323    0.11846644046190
C         4.01517172807449   -1.63980877345254   -2.60977147924520
F         4.97981008523692   -0.80128167118805   -2.75373592890426
F         3.78440928489032   -1.96098822052375   -3.91147704187582
F         4.72067177619341   -2.67254070424082   -2.02250806000261
C         4.02124316052373    1.64840429428743   -2.60255049991171
F         4.98163796038031    0.79984037491668   -2.75559098636452
F         3.78775742577335    1.95345606592898   -3.91355474203695
F         4.72816279932843    2.64690974268075   -2.01860935428534
C         2.81092013510161    3.32348359650906   -2.60281166606853
F         2.23039298461754    4.50950647954186   -2.75476758349906
F         3.03894007304220    3.00538112959028   -3.89785561324969
F         3.96769125297329    3.67280978533337   -2.02776982915977
C        -2.82900469093157    2.04321952816313   -3.67259777585298
F        -3.82232820734431    2.75008825662737   -3.28919088491750
F        -2.16840466803511    2.96154283391205   -4.47516358886651
F        -3.48317779068750    1.17493804968093   -4.46438839391116
C        -3.37123401093436    3.73109851201447   -0.86048493938477
F        -4.08363970262889    3.55036610150612   -1.92694212668297
F        -2.78502426301461    4.91946410525288   -1.00431688739543
F        -4.25990054935350    3.85069460126186    0.11292452762906