156
 energy: -518.796411040141 gnorm: 0.393826281042 xtb: 6.4.1 (a3dbbd7)
C        -1.29017203896460    0.03403093960985    3.48527746483125
C        -0.40838205608613   -1.23059320730516    3.53759986493445
C         1.04692065890165   -0.71850284272218    3.50628828602839
C         0.98291867004592    0.75677409103093    3.26440503741516
C        -0.35768458247215    1.18198669588207    3.25092514633143
C         2.29389158706320   -2.55214409454791    0.62063286474425
C         3.30509213777042   -1.47208461995330    0.62139038083109
C         2.90890991942327   -0.68458750796255    1.79830353687648
C         2.06120249338174   -1.49162368623539    2.68284101648993
C         1.52819911682778   -2.53719706068125    1.75607153437685
C         3.17052361237933    1.45756118759772    0.57210706571169
C         2.33876255914470    2.57700465472749    0.60416466860402
C         1.60501473550954    2.55869801750933    1.80351760585521
C         1.91767963856606    1.43354004049461    2.55123522381407
C         3.06890151951673    0.75100310603233    1.89561808199376
C        -0.39537508777384    3.43094690329850    0.58199588339012
C        -1.65954008101739    2.98335050210817    0.59265761033350
C        -2.05529421284041    2.41078166788764    1.91146702557764
C        -0.72954447672190    2.26659784447527    2.56768331064312
C         0.25697152267583    3.15625259207719    1.90186272722033
C        -3.40874204104884    0.68179331361733    0.59245931192353
C        -3.38386754843103   -0.66818080566227    0.57935283065436
C        -2.91055936806816   -1.19335704966468    1.88383441971586
C        -2.38297938735332    0.04424158894389    2.50946618792492
C        -2.75955154314142    1.11465697993041    1.80577820866720
C        -1.72262983054270   -2.94129419187212    0.58022974160404
C        -0.39118512364556   -3.61162379335995    0.62227048324782
C         0.25886418804595   -3.00071591424196    1.80140652111694
C        -0.79645515793834   -2.43705176814499    2.68122285738409
C        -1.95135606963651   -2.28465662255474    1.76348637335524
C        -0.21274443312930   -2.94680445155809   -1.76518168750193
C         0.71504241880350   -2.28765327487566   -2.52579976444238
C         2.06259358324406   -2.43120950309535   -1.92631435966503
C         1.81485166261530   -3.17882908025733   -0.60886606443392
C         0.34413271372835   -3.41028779305831   -0.61143423311404
C         2.96065558978449   -1.19478323807139   -1.91063151024808
C         2.34707493875681    0.01021373147621   -2.54188963675448
C         2.95192859884515    1.22157998791665   -1.91104561015114
C         3.35408691037490    0.69848380708399   -0.56439074535384
C         3.36717819574123   -0.65808975081326   -0.58847435562816
C         2.03906615439055    2.44077893013865   -1.88822024339025
C         0.71395932675196    2.29524259754624   -2.52499864364062
C        -0.23789668773021    2.98504325759377   -1.79490733715502
C         0.39691512060062    3.47891983006734   -0.58512403655100
C         1.69271920637366    3.04248281949548   -0.55525340708582
C        -1.54233182051779    2.59559953337683   -1.80277461696811
C        -2.06200845269337    1.51432447629866   -2.67993980581014
C        -2.89587677762014    0.71823944980036   -1.73689464149043
C        -3.15396466717527    1.38973594000807   -0.61034316652021
C        -2.44011694843220    2.70960207763972   -0.62515621657104
C        -3.09095737554234   -0.72885271915734   -1.92616549116711
C        -1.89765688560508   -1.38079259923957   -2.53819914366797
C        -1.66160894226627   -2.70724415713444   -1.90487156267638
C        -2.30790422101704   -2.57082888067839   -0.58200090369495
C        -3.34391389567095   -1.50711956057742   -0.62001431413929
C        -0.98734598961414   -0.72370324046072   -3.22342484345021
C        -1.04572442964102    0.73435048783209   -3.51206261696620
C         0.41176597339848    1.22117891929534   -3.46910017233509
C         1.22810518622108   -0.00490625234190   -3.23066158184498
C         0.39533663767791   -1.21883080375229   -3.46575379428167
C        -1.91868698565975    0.21813323211644    4.87476980434746
F        -1.03593637990831    0.66885441811946    5.75746459473698
F        -2.87681411859382   -0.65643827996157    5.09264345672158
F        -2.68952168770384    1.27084670906781    4.95994194228837
C        -0.58818737824178   -1.78161652887462    5.02019228995962
F        -0.39471683373599   -1.11002016556354    6.13950468619942
F        -1.75404084803461   -2.11557259873865    5.49263419867297
F         0.01528147339154   -2.83406330198776    5.51406520093048
C         1.54843703244799   -0.78323914484804    4.97752064179628
F         1.00198341791615    0.10360059618723    5.84880934747999
F         1.68814793029476   -1.91466788121740    5.58462644602695
F         2.69049144950234   -0.17419716348217    5.20830990762564
C         4.72946894770485   -2.06531350103466    0.81730493446646
F         4.89908601636618   -2.88339057911567    1.78081920249860
F         5.11557669359918   -2.85572379775484   -0.11827770115838
F         5.62112480208548   -1.12482426827757    0.92020753649367
C         2.96334798965584   -2.23898920861797    3.71590943869451
F         3.88308235828135   -3.04950325449765    3.32571099979386
F         3.82112987953718   -1.44606219239746    4.33860397868699
F         2.27816609966831   -3.25740466263120    4.25707553275190
C         4.33605994943717    1.09603922473931    2.68075160731749
F         4.46340982407170    2.40646307955819    2.75492833801098
F         5.39573138203053    0.62126891375980    2.08868611970872
F         4.28026009369652    0.63107687832825    3.89310352485578
C        -2.95860406718726    3.35068983780658    2.68879544938699
F        -2.52318345099531    4.56899878665419    2.76706410449261
F        -4.14369185686186    3.46892492122062    2.15689276038072
F        -3.14376353633167    2.93708600234818    3.90417984102657
C         0.44172747109865    4.45048885442678    2.67740570008308
F        -0.62375388185133    5.17523819023327    2.78316653150422
F         1.27666941348348    5.24508349385212    2.02338027579576
F         0.86149058476473    4.16600114432933    3.89760232686933
C        -4.14819114100773   -1.67282893130279    2.67391382500693
F        -5.03098700941731   -0.69415610378810    2.72938020831759
F        -4.64696918183224   -2.76765818723130    2.19603405933776
F        -3.89698661596357   -2.02223770876194    3.88715007747838
C        -0.54043862766394   -5.13170084624163    0.79408149892699
F        -1.30327649146142   -5.55972538935251    1.72150446968802
F        -1.13705768753042   -5.66059344270793   -0.24449934650076
F         0.58632671007939   -5.70314287892573    1.05804661088962
C        -1.16043589892309   -3.55551422429684    3.69659126119923
F        -1.64033573089667   -4.68081981847307    3.31309635378688
F         0.03613921908090   -4.10674637020260    4.09816608983521
F        -2.38170684345777   -3.34706338120703    4.27448141280253
C         2.75711096838636   -3.46340580593072   -2.85591521686937
F         1.99305945310530   -4.58706141688916   -3.27051137990649
F         2.94452106361458   -3.22107733973350   -4.09299886468704
F         3.87764353449550   -4.01031972489435   -2.54506768479343
C         2.52752957444580   -4.53540368487944   -0.69391593692459
F         1.95354103808289   -5.34655870538562   -1.51810952005269
F         3.83469261393549   -4.43042713518448   -0.64926586828383
F         2.42225436801519   -5.26955614650439    0.38710112051316
C         4.22546540722123   -1.62632339180111   -2.68593939228467
F         5.25858204173110   -0.87275759894212   -2.75001414590672
F         4.00846940036671   -1.62726342562075   -4.00319141160539
F         4.98310460875777   -2.51214969753038   -2.04628198770162
C         4.21498035821902    1.65985416813423   -2.66263509454492
F         5.25101890903648    0.92131921591034   -2.75304089213116
F         3.98203305628474    1.71313043346143   -3.97405673751118
F         4.94782632348494    2.53044993898143   -1.92585000351299
C         2.75331538320570    3.59036431248542   -2.63451844346457
F         1.97965754054507    4.67357466354922   -2.67878194283218
F         2.95638538682965    3.44427821082436   -3.89719323962362
F         3.76590285124741    4.09313947711865   -1.97817194188619
C        -2.98626661011415    2.20858268231530   -3.72153804849310
F        -4.03913158980969    2.83241159821665   -3.31834695290376
F        -2.34901050248262    3.28239657925380   -4.22161496714127
F        -3.76582945983318    1.44313506076767   -4.44611073508520
C        -3.42122328798700    3.85815023384931   -0.80266398816551
F        -4.27227990600237    3.78466025019841   -1.75128624384318
F        -2.74214300908220    4.97938591143029   -0.96993711781361
F        -4.28749743381388    3.92613624322349    0.17256291864960
C        -4.32230032207010   -0.91954598873827   -2.81326685300997
F        -4.59964289466369   -2.11426042271537   -3.24847957922567
F        -4.17663255031870   -0.45231334894314   -4.01090777252632
F        -5.35875868466682   -0.25757049920220   -2.34127157601347
C        -2.24581114983102   -3.86212561313591   -2.70204483975732
F        -3.51436745311429   -3.81875248676658   -2.91487943426052
F        -1.72830482951699   -3.90503282877779   -3.90303069542138
F        -2.08134874798235   -4.99015418760131   -2.05921828566735
C        -4.72818688366725   -2.15582360224747   -0.71814412813361
F        -4.92000085620475   -3.08368700446153   -1.60589779004757
F        -5.68560384689429   -1.25259144393164   -0.65574823684617
F        -4.99441896727058   -2.95157448905987    0.27653057063307
C        -1.52710507694566    0.85825693096011   -4.99758142439317
F        -1.00912035660615    0.27585352066698   -6.02325079429728
F        -2.62995680928854    0.17202158061967   -5.25161792640853
F        -1.54963063294496    2.05380389823189   -5.53530046217146
C         0.73278181899519    1.80675276610514   -4.85943075397510
F         0.73852020516873    1.00417101079332   -5.88072134895860
F         0.12590171767015    2.97877073645682   -4.99153134594515
F         1.99873465053791    2.08542859342772   -5.01210217933444
C         0.57453975648911   -1.79526742218274   -4.86952899557013
F         0.37390384874515   -1.04034072021700   -5.88048378168469
F        -0.22481322191831   -2.81197453758596   -5.04672504587263
F         1.82147532296552   -2.03779357754049   -5.13337951846693
