180
 energy: -613.408899038476 gnorm: 0.856748637575 xtb: 6.4.1 (a3dbbd7)
C        -1.26546712460141    0.02644621603002    3.41750813671495
C        -0.39868039805786   -1.20882994608202    3.41907363512075
C         1.02738734958522   -0.73582498576522    3.40785885310333
C         1.01035606090447    0.77473660581599    3.41332648411931
C        -0.39039019836429    1.20514886245897    3.27760740257665
C         2.41403348124763   -2.65360211447958    0.61189591645530
C         3.15162580096838   -1.40522737235775    0.58914459491767
C         3.01979761082049   -0.73067025193043    1.86313437061046
C         1.94228835650242   -1.40923270600267    2.54678549077222
C         1.61192696273241   -2.65696435408719    1.88784479755561
C         3.10118622554951    1.45346354065866    0.58979513862663
C         2.33330673698954    2.54285027137118    0.61539672561534
C         1.56687266910728    2.57996843534407    1.83217775214117
C         1.93121274396590    1.46614271660270    2.54380954836799
C         3.02965083569047    0.76047898391624    1.87753359361213
C        -0.37742520495429    3.54921528388297    0.63125351338265
C        -1.76124928746771    2.99995707269324    0.63078479653912
C        -1.97048160118910    2.33604994861429    1.81419724193884
C        -0.73622300166471    2.30754568536933    2.57283054892658
C         0.25222981383668    3.01610043423331    1.85521000768831
C        -3.49958031416110    0.77171583048411    0.64958382843834
C        -3.49688275417429   -0.72757111355224    0.62135821493375
C        -2.87142649281449   -1.17633442995444    1.90352846932357
C        -2.39678641196778    0.06275010492551    2.52703524892610
C        -2.74032796352360    1.16314191899690    1.85230869184636
C        -1.71222133395881   -3.00208805387937    0.60011701955997
C        -0.37814211758552   -3.56886577501390    0.61179566860641
C         0.20537046247852   -2.96124967546380    1.81795151621535
C        -0.69595086268546   -2.29279943304300    2.50990186321375
C        -2.01125863003491   -2.38620109169924    1.87839990956671
C        -0.18641311465847   -2.98738328173886   -1.78343873919830
C         0.77343988744082   -2.31823750586972   -2.55101175140354
C         1.96249594448150   -2.26532470812184   -1.84802792793107
C         1.78113429081936   -3.11800394143969   -0.65443318229787
C         0.35213759735986   -3.42412670877102   -0.63105009881179
C         2.77051510835189   -1.17301948382936   -1.85087939779459
C         2.38615136576675   -0.03216567462760   -2.57243480794700
C         2.88163800476503    1.20190060066851   -1.90678228657299
C         3.51670186025342    0.75810441793886   -0.61374164180028
C         3.49289827968716   -0.75304733799331   -0.62970786502360
C         1.90199692795781    2.27216661286304   -1.81714884953042
C         0.77982820447088    2.27575687238626   -2.50993796812432
C        -0.24476860377995    3.12055619391206   -1.86818538699192
C         0.36568425208973    3.45007342342474   -0.58179008512467
C         1.78991374459767    3.11952287056840   -0.61192210862017
C        -1.57874384050233    2.57230221114687   -1.74694088938132
C        -2.01087637596463    1.49605751805645   -2.63931531346405
C        -3.02616928740060    0.71271637028093   -1.86719029310949
C        -3.27112894846050    1.50321149842184   -0.61865721956997
C        -2.27040441447066    2.59066399210748   -0.59849512822084
C        -2.90015358071334   -0.70733574480996   -1.81070026876631
C        -1.99519340113314   -1.45343035106803   -2.65312744881631
C        -1.60081015038452   -2.68734830486520   -1.89286272838806
C        -2.37753669832682   -2.67605339256026   -0.60473140277366
C        -3.24366676096282   -1.45370175890754   -0.63941192125917
C        -0.95678302486596   -0.71862242602075   -3.29193773870733
C        -1.00005183461238    0.72599668315124   -3.41325609256769
C         0.42854722309969    1.20173276520211   -3.41809371691474
C         1.25954672506584   -0.01035272867060   -3.27969556351685
C         0.39838656644819   -1.19807502432513   -3.40277919220985
C        -1.87318821753530    0.11415163980326    4.82296660310746
F        -1.11756737266426    0.44271556366904    5.78278228616059
F        -2.69853476923012   -0.78221194993750    5.15767369302030
F        -2.62718933553041    1.19943542179787    4.95741420836232
C        -0.59699520201165   -1.84269562886836    4.79176727991547
F        -0.53826839822568   -1.29065460119244    5.91924476724457
F        -1.75099559092647   -2.36220389467415    5.04812385792586
F         0.01310375571411   -2.97915778439528    4.99686753504764
C         1.56152124616476   -1.11913526663123    4.80138733690333
F         1.19891371850087   -0.70826397079463    5.92919114762667
F         1.72116578881297   -2.36453335985178    5.08111047209120
F         2.80812615798841   -0.87512647913931    5.04743358509521
C         1.45413380907722    1.19674511905707    4.81785311271146
F         0.64657666238117    1.01901937447454    5.78217216289230
F         2.66827915926389    0.95692851852833    5.13211496710930
F         1.42237038382336    2.51445336166880    4.95887973472376
C         3.48909320010344   -3.72145349999406    0.83628940937015
F         4.43261142086659   -3.65061171011842    1.76750937033803
F         4.52211428704396   -3.77201345033228    0.07584552854903
F         3.25869432536310   -4.93662437592399    1.09295077976994
C         4.31501696167666   -1.07313331839025    2.66473424358959
F         4.60697087724932   -2.27084018372114    2.89603854178928
F         5.43170215871468   -0.88769088136041    2.05257544897198
F         4.30976174940375   -0.86860783022008    3.92662279128172
C         2.19264167110346   -3.79473257702321    2.73621425060360
F         3.35748149744532   -3.67613373749506    3.18987019915701
F         1.91548945463676   -4.99405601794755    2.34043899208288
F         1.65743407281496   -3.91161563974894    3.91075771004670
C         4.28422426319629    1.17450610468206    2.65279481345244
F         4.39021899441025    2.49744831501048    2.71320334609660
F         5.41167280509280    0.97123822314701    2.12358113732303
F         4.29054300077167    0.98131385378256    3.90432756770852
C        -0.55076353040984    5.06031609507182    0.90345770896392
F        -1.24105033981541    5.23515651703596    2.00646399198786
F        -1.20129214159926    5.64174850759519   -0.05818245213852
F         0.59330239794294    5.64785176466889    1.04848978139663
C        -4.93615613401307    1.15384488819797    1.02174211458522
F        -5.38462130498222    0.91951385960169    2.29839750097952
F        -5.95855733568085    0.87080176427088    0.35771195109236
F        -5.15842512276854    2.36894483044470    1.43435145435311
C        -4.97685894708223   -1.03644391272435    0.82551486062577
F        -5.69104079419623   -0.73444282042124    1.78638858959141
F        -6.04027367327576   -0.87182809362301    0.12552134029210
F        -5.69504830790745   -2.37388770664591    1.13315145600181
C        -4.04378242541270   -1.58387034761341    2.79915026896793
F        -4.85517477843296   -0.60592302071439    3.32183307746274
F        -4.80193874160197   -2.54073907919888    2.59989807777132
F        -3.88156211036304   -1.80333987212887    4.04883953025726
C        -0.51293997098042   -5.07641456246770    0.83545043854031
F        -1.06212710257013   -5.44008020373080    1.90207494510362
F        -1.10915491268655   -5.66914834948551   -0.13871631999386
F         0.60268357047142   -5.68839034856441    0.97959522805808
C        -2.81230662469371   -3.44050507291102    2.67374158778005
F        -2.24866739310416   -4.55947368129207    2.90102222766029
F        -3.79284467566049   -3.97258795016966    2.05940878687424
F        -2.93527095084441   -3.31295610223256    3.93466758191992
C         2.46516787926488   -4.44067417931856   -1.00660124350845
F         1.97744080858730   -4.94991947711134   -2.12320626850857
F         3.67177600448147   -4.32227328181721   -1.44695082008055
F         2.13336488203049   -5.45869032768658   -0.27589794248458
C         4.02285250289382    1.71860312684848   -2.76692015079596
F         4.79145842842558    0.77301387676004   -3.24621608956192
F         3.63068199456382    2.11429847451605   -3.94598144574289
F         4.55226881183850    2.82477380532107   -2.36826546030361
C         4.97631982626275    1.15450387791595   -0.74251097183323
F         5.77019676238841    0.80894549695543   -1.64476249336832
F         5.22635416839275    2.44011766456456   -0.68649107714970
F         5.77424895706832    0.88330966356888    0.23486520374699
C         4.96668138854158   -1.15671887046174   -0.91228417545418
F         5.36003385313106   -0.94223879519806   -2.15721609466211
F         5.14520668421780   -2.41709309009011   -1.05990078106833
F         5.77883714217174   -0.94533983910734    0.05770201251407
C        -0.38468690986311    4.41649381315314   -2.66013071748890
F         0.70862667190643    5.01900565396642   -2.90118067424648
F        -0.79935108974733    4.27342818488575   -3.85460748850733
F        -1.19940728457891    5.24792207711829   -2.08640630471526
C         2.57283187036751    4.40202910832016   -0.83678020350950
F         2.30547359999637    5.00772501433077   -1.92243938972160
F         3.85219817528950    4.19619837853224   -0.93362471874796
F         2.40814431909777    5.24664981859965    0.13721795139779
C        -2.82643328922938    2.22789121067267   -3.71795808001904
F        -3.64132593865683    3.24419039993706   -3.36283919555145
F        -2.27024202010472    3.19296560943067   -4.38190074165936
F        -3.55278193388141    1.66424358644163   -4.57081866422589
C        -4.31152756131454    0.85911091121337   -2.68361237955518
F        -4.84605404465383    1.92279063493557   -3.01159977314455
F        -4.41389161589075    0.23179374133225   -3.81338427762899
F        -5.39541218590675    0.28901445939507   -2.29585034674179
C        -4.58710356154169    2.24149004405807   -0.86261793350782
F        -4.63260872185358    3.24812754321804   -1.75924456388566
F        -5.66069533706577    1.68582513536704   -1.20434726278172
F        -4.89032096910806    3.22460566234547   -0.06642966405007
C        -2.84938261855234   -1.99197200176932   -3.83710279315308
F        -3.99651715922461   -2.44376132276675   -3.62418931067836
F        -3.36191340610385   -1.12864282841654   -4.61335278585411
F        -2.21927481720832   -2.64783887761058   -4.73849641499654
C        -2.12958984374624   -3.86035371546133   -2.69100026148192
F        -3.28469457057016   -4.05076833274747   -3.13832380571427
F        -1.50862150309128   -4.08887365904645   -3.82552640004884
F        -1.84978205376529   -5.04665074261309   -2.23159464279807
C        -3.34704259664132   -3.86329199145701   -0.75282227120296
F        -4.24792783982259   -4.03870996633422   -1.59208655699186
F        -2.87585852720412   -5.05392459556569   -0.74147058854828
F        -4.10276050287667   -4.16118560439410    0.26892698589727
C        -4.62518444425406   -1.99357040630808   -0.97550961950623
F        -5.02445916518239   -2.58826952002000   -2.20077864273186
F        -5.53898494542561   -1.22306750426124   -1.44555687966008
F        -5.19266636628147   -2.91056244012669   -0.39643887975277
C        -1.46983863652347    0.94286827313409   -4.87003385965140
F        -0.95659614709808    0.29936469255282   -5.89741586401804
F        -2.54639101815820    0.34908653275941   -5.29888680618192
F        -1.45530673059878    2.04633855390348   -5.49103999391717
C         0.67693582222906    1.76376930984726   -4.80632080683032
F         0.69313276677520    0.96058917123737   -5.78681881439699
F         0.11506719844462    2.90001493942270   -5.05877799122640
F         1.92055787205630    2.11350417468552   -5.00150501858880
C         0.59453323055119   -1.76978713018399   -4.81788210542045
F         0.37486279501328   -0.99740859091706   -5.77476969608620
F        -0.17368103094000   -2.78288947256550   -5.05236248419532
F         1.85169653670458   -2.09586485452049   -5.01871505605383
