72
 energy: -177.379340514920 gnorm: 0.273691522268 xtb: 6.4.1 (a3dbbd7)
C        -1.23626340000000    0.00000000000000    3.32997640000000
C        -0.38202640000000   -1.17575640000000    3.32997640000000
C         1.00015810000000   -0.72665740000000    3.32997640000000
C         1.00015810000000    0.72665740000000    3.32997640000000
C        -0.38202640000000    1.17575640000000    3.32997640000000
C         2.34433560000000   -2.60145750000000    0.59464210000000
C         3.19857260000000   -1.42570110000000    0.59464210000000
C         2.96246730000000   -0.69904370000000    1.83090550000000
C         1.96230920000000   -1.42570110000000    2.59495830000000
C         1.58028280000000   -2.60145750000000    1.83090550000000
C         3.19857260000000    1.42570110000000    0.59464210000000
C         2.34433560000000    2.60145750000000    0.59464210000000
C         1.58028280000000    2.60145750000000    1.83090550000000
C         1.96230920000000    1.42570110000000    2.59495830000000
C         2.96246730000000    0.69904370000000    1.83090550000000
C        -0.36750900000000    3.48258920000000    0.59464210000000
C        -1.74969350000000    3.03349030000000    0.59464210000000
C        -1.98579880000000    2.30683290000000    1.83090550000000
C        -0.74953540000000    2.30683290000000    2.59495830000000
C         0.25062270000000    3.03349030000000    1.83090550000000
C        -3.42570570000000    0.72665740000000    0.59464210000000
C        -3.42570570000000   -0.72665740000000    0.59464210000000
C        -2.80757400000000   -1.17575640000000    1.83090550000000
C        -2.42554760000000    0.00000000000000    2.59495830000000
C        -2.80757400000000    1.17575640000000    1.83090550000000
C        -1.74969350000000   -3.03349030000000    0.59464210000000
C        -0.36750900000000   -3.48258920000000    0.59464210000000
C         0.25062270000000   -3.03349030000000    1.83090550000000
C        -0.74953540000000   -2.30683290000000    2.59495830000000
C        -1.98579880000000   -2.30683290000000    1.83090550000000
C        -0.25062270000000   -3.03349030000000   -1.83090550000000
C         0.74953540000000   -2.30683290000000   -2.59495830000000
C         1.98579880000000   -2.30683290000000   -1.83090550000000
C         1.74969350000000   -3.03349030000000   -0.59464210000000
C         0.36750900000000   -3.48258920000000   -0.59464210000000
C         2.80757400000000   -1.17575640000000   -1.83090550000000
C         2.42554760000000    0.00000000000000   -2.59495830000000
C         2.80757400000000    1.17575640000000   -1.83090550000000
C         3.42570570000000    0.72665740000000   -0.59464210000000
C         3.42570570000000   -0.72665740000000   -0.59464210000000
C         1.98579880000000    2.30683290000000   -1.83090550000000
C         0.74953540000000    2.30683290000000   -2.59495830000000
C        -0.25062270000000    3.03349030000000   -1.83090550000000
C         0.36750900000000    3.48258920000000   -0.59464210000000
C         1.74969350000000    3.03349030000000   -0.59464210000000
C        -1.58028280000000    2.60145750000000   -1.83090550000000
C        -1.96230920000000    1.42570110000000   -2.59495830000000
C        -2.96246730000000    0.69904370000000   -1.83090550000000
C        -3.19857260000000    1.42570110000000   -0.59464210000000
C        -2.34433560000000    2.60145750000000   -0.59464210000000
C        -2.96246730000000   -0.69904370000000   -1.83090550000000
C        -1.96230920000000   -1.42570110000000   -2.59495830000000
C        -1.58028280000000   -2.60145750000000   -1.83090550000000
C        -2.34433560000000   -2.60145750000000   -0.59464210000000
C        -3.19857260000000   -1.42570110000000   -0.59464210000000
C        -1.00015810000000   -0.72665740000000   -3.32997640000000
C        -1.00015810000000    0.72665740000000   -3.32997640000000
C         0.38202640000000    1.17575640000000   -3.32997640000000
C         1.23626340000000    0.00000000000000   -3.32997640000000
C         0.38202640000000   -1.17575640000000   -3.32997640000000
C        -1.76086815247998    0.00000000000000    4.78849957557021
F        -0.76911826531252    0.00000000000000    5.67468926254662
F        -2.50968386795825   -1.06794314680471    5.04863888333743
F        -2.50968386795825    1.06794314680471    5.04863888333743
C         2.82790274436383    2.05459160758554    3.71645040671519
F         3.82797483682855    2.78118494419178    3.22571836876305
F         2.11749631416700    2.85850222732984    4.50254863174647
F         3.37293748548841    1.13053297859378    4.50255013394648
C         3.37204091334889   -3.72927672645244    0.86730596148276
F         4.06564647311728   -3.51265957144659    1.98125763710228
F         4.25569947457670   -3.84739838595791   -0.11965645964809
F         2.78580317558591   -4.91533944031226    1.00324916143779
72
 energy: -177.442504980295 gnorm: 0.168712527966 xtb: 6.4.1 (a3dbbd7)
C        -1.25404669094808   -0.00534420997173    3.33242268496737
C        -0.37205075698480   -1.19511206876167    3.33702155541907
C         0.98972862161462   -0.73254907722594    3.32304970474397
C         0.96609065350294    0.70410477987920    3.31550629170384
C        -0.37171261564716    1.18084376203961    3.33859858559610
C         2.38622763510840   -2.62482990888433    0.60368912772789
C         3.18906883840652   -1.38644955571168    0.59090001439614
C         2.94434228004666   -0.69369991993388    1.81574122546901
C         1.95267433122174   -1.43691974022024    2.58471307231230
C         1.56690082606249   -2.60391292963157    1.84429414374055
C         3.17741712713479    1.41674953292321    0.58306575084956
C         2.32839488456787    2.58933787171994    0.58117880110492
C         1.56059564733388    2.59733861819323    1.79439973975204
C         2.00391675015005    1.46245387534669    2.64355627742812
C         2.94466990600454    0.68880210098539    1.79480819770746
C        -0.36679272832696    3.47610088852522    0.58752747288815
C        -1.73863121233198    3.02214434869499    0.59274240322290
C        -1.97076259303923    2.29972628884020    1.82511876111180
C        -0.74691535227721    2.30074631029908    2.58689588382685
C         0.24727789599771    3.02354211365366    1.80881312611835
C        -3.42569924061363    0.72221345048620    0.57854717328555
C        -3.42646580927392   -0.72436572095682    0.57673928356326
C        -2.80734230598587   -1.17264056368482    1.80239064244141
C        -2.44732680294031    0.00178503229788    2.53465677844984
C        -2.80145547202632    1.16619209338696    1.80698663707137
C        -1.74389525186404   -3.01902681884216    0.59555241641935
C        -0.37006512951169   -3.46389905690339    0.59662750130123
C         0.24225054592733   -3.03047692019338    1.83115850512357
C        -0.74572495320646   -2.30306390039331    2.59032119107277
C        -1.98278504398989   -2.29629450629369    1.81995546770291
C        -0.25782339574089   -3.02113860745432   -1.83227590577121
C         0.73545610764321   -2.29595435048481   -2.59572077953071
C         1.96305706614532   -2.29157739241841   -1.83352972023596
C         1.71932335167423   -3.01434721254055   -0.62124782655812
C         0.35977963189460   -3.45773528957439   -0.59980742018788
C         2.79272031087467   -1.16757624697774   -1.83135494673222
C         2.41408832353211   -0.00225509982658   -2.58935434800302
C         2.79436216553023    1.17158085686816   -1.83112573296063
C         3.41440142295459    0.72741039170934   -0.60420185923031
C         3.41522041961332   -0.70997784201990   -0.59796637908675
C         1.97695607140146    2.29769269947370   -1.83185382418934
C         0.74532419460446    2.29734537477941   -2.58937575471860
C        -0.24835543268664    3.02173726450054   -1.82704858394449
C         0.36785186683208    3.47176375753744   -0.60002061430606
C         1.73998048133509    3.02543299352104   -0.60265207653840
C        -1.57408502759577    2.59054842418166   -1.82300773447257
C        -1.95555025033470    1.42034484047696   -2.58480687949623
C        -2.95280011551824    0.69627008093117   -1.82629647421582
C        -3.19015614448664    1.42099570211862   -0.59807663139375
C        -2.33260802307106    2.59110953669947   -0.59305596431431
C        -2.95373594117259   -0.69601184427995   -1.82794229254944
C        -1.95844363712975   -1.41965187333404   -2.58708459698643
C        -1.58103271369742   -2.59141813628741   -1.82658247613153
C        -2.33977205254823   -2.59067154804105   -0.59554748510030
C        -3.19214818489338   -1.42323407334036   -0.60132300049090
C        -1.00139664270114   -0.72293623968213   -3.31947368408734
C        -0.99933417055813    0.72389526228805   -3.31791603904497
C         0.37792858797055    1.16914522386128   -3.31980744539603
C         1.22564189959018   -0.00052971733061   -3.32200136342334
C         0.37374400634679   -1.16952107460012   -3.32463207997323
C        -1.77468303203735   -0.00207857188345    4.81234289091423
F        -0.77620793562963    0.00049578873090    5.69623467366500
F        -2.52364014978002   -1.07246759702359    5.07121850439013
F        -2.52002825861949    1.07245371745944    5.06562784982654
C         2.86691306554053    2.08575977276035    3.75765411086657
F         3.86594231815576    2.80828468028683    3.25444592764796
F         2.14004902698083    2.88489964419613    4.53600482024673
F         3.40095579433288    1.14316729449832    4.53137868105554
C         3.40730735355209   -3.76108322538649    0.87521421679332
F         4.09791318298309   -3.54150070203237    1.99214991546700
F         4.28292147880911   -3.87158783467428   -0.12161221326414
F         2.80222625955947   -4.94043736381734    1.00734257128102
72
 energy: -177.480769691833 gnorm: 0.089846397505 xtb: 6.4.1 (a3dbbd7)
C        -1.29388574576350   -0.01100030434478    3.42989955942589
C        -0.36106338443997   -1.20393204193874    3.28641245369210
C         0.97027670014125   -0.72482613135325    3.28436309735558
C         0.92798314928190    0.68205872997090    3.27837030966493
C        -0.34915296124201    1.17176430774479    3.27452614446726
C         2.45148615842981   -2.69392762347605    0.61946534360989
C         3.16586731519170   -1.35110440116394    0.57673945779751
C         2.92007635436987   -0.68364328311111    1.78453998368346
C         1.94212105971879   -1.43646756528315    2.56476309999069
C         1.54035881302501   -2.55986496112911    1.84689847967073
C         3.15712061783813    1.40758775767466    0.57509097736919
C         2.31063316736083    2.57704132936466    0.56990249009231
C         1.53911647437785    2.59552846881007    1.75327586806457
C         2.06934608794490    1.51544460387590    2.70973264295599
C         2.93539235962707    0.68139148000874    1.75606258358972
C        -0.36872014486885    3.46968247851507    0.57530852995347
C        -1.72989276349029    3.01105654751043    0.58768365995934
C        -1.95860428566312    2.29752699795318    1.82024409150331
C        -0.75010707400127    2.29539632516632    2.55300146944634
C         0.24585001066857    3.01876735416518    1.77838271751962
C        -3.42012581407343    0.71470071218052    0.56564743394711
C        -3.42494805975488   -0.72265801234685    0.56145021888792
C        -2.80053506103625   -1.16574034237921    1.77976556604683
C        -2.46771862980529    0.00483824655379    2.49638806355364
C        -2.78864381092054    1.14719137857634    1.79349704695740
C        -1.73819928197003   -3.00577730014082    0.59176723205491
C        -0.37396439751679   -3.44960860171984    0.59617035667413
C         0.23150368199141   -3.01578749620924    1.81899962997420
C        -0.74647979737361   -2.29665555464965    2.56457829492140
C        -1.98802629405283   -2.29139165837849    1.80377564051276
C        -0.26326005001472   -3.00754521320669   -1.83646720579829
C         0.72431704546079   -2.28676784613443   -2.59832373638383
C         1.93972755491391   -2.27689553881507   -1.83125535754639
C         1.68236681866465   -3.00086060062771   -0.65056340970750
C         0.35532897007206   -3.43270065363609   -0.60780178582011
C         2.77836145973133   -1.15966161384855   -1.83597880792318
C         2.40409495702506   -0.00436227454827   -2.58204990292354
C         2.78287882734339    1.16832492021601   -1.82951042882854
C         3.40953498418023    0.72622566918337   -0.61343149879879
C         3.39561357311768   -0.69510655828250   -0.60270366245555
C         1.96922859282692    2.28893169823992   -1.83256437816085
C         0.74302410331727    2.28939649494322   -2.58378865824778
C        -0.24504643684269    3.01119017308751   -1.82476885558557
C         0.36912616632572    3.46206783430995   -0.60866702137216
C         1.72913427264630    3.01905951160378   -0.61067994547273
C        -1.56757206093365    2.57940454399210   -1.81467139797859
C        -1.94689831565720    1.41472058170477   -2.57453635558086
C        -2.94134564047335    0.69309752735703   -1.82228933296192
C        -3.17910767674567    1.41240286107364   -0.59994301955399
C        -2.32159545950003    2.58035425477608   -0.59376397032616
C        -2.94391770151161   -0.69339351327539   -1.82774285190174
C        -1.95300149022643   -1.41216751576089   -2.58261695217569
C        -1.57958188333092   -2.57887909978446   -1.82477936988023
C        -2.33606409787627   -2.58022002794283   -0.60239965739128
C        -3.18297462176646   -1.42032507539778   -0.60894165786037
C        -1.00000207154343   -0.71792639577183   -3.31113733491662
C        -0.99598526449283    0.72190822725025   -3.30565827121456
C         0.37640682217991    1.16286903206134   -3.30943689108302
C         1.21648771601043    0.00060252732406   -3.31591374224763
C         0.36853762030209   -1.16213255240951   -3.31910574383619
C        -1.80217890539728   -0.00451563997914    4.88943818645328
F        -0.78562513725080   -0.00081946829746    5.75266729356165
F        -2.54872384327646   -1.08328546175569    5.12302153830075
F        -2.54287043847334    1.08064551370017    5.11408082775451
C         2.90630061394427    2.11837118868201    3.80865193057625
F         3.90161807040167    2.83624455125799    3.28761862741184
F         2.15490623075573    2.91082172073449    4.57394035628790
F         3.42608776564527    1.15242576532469    4.56663329447569
C         3.45432794279447   -3.81142988796508    0.88742396637591
F         4.13407204480599   -3.57271332068300    2.00793392185293
F         4.31898677092859   -3.90501963559395   -0.12300357016059
F         2.82436499169253   -4.97979051002067    1.01627283403895
72
 energy: -177.491782377133 gnorm: 0.046337274594 xtb: 6.4.1 (a3dbbd7)
C        -1.30551616646708   -0.00704027530743    3.45869539476302
C        -0.37434518405013   -1.19487495400128    3.29533351523974
C         0.96497254410665   -0.71838552586377    3.27506169404347
C         0.93896266181511    0.69982861726094    3.28224015504257
C        -0.36082355152985    1.17388067549487    3.28845882101374
C         2.46968437940400   -2.71771746236769    0.61847635813091
C         3.16951634939369   -1.37032255394837    0.57281922575013
C         2.91568683959497   -0.68092906424854    1.78059753024157
C         1.93573792106197   -1.43480726868199    2.55363378040551
C         1.55340391605070   -2.57502313709392    1.83605395928815
C         3.14797845346176    1.40925158295163    0.57174577924034
C         2.30624792106116    2.58035433487498    0.56723582263457
C         1.55125177158545    2.60440470335691    1.76965057309982
C         2.07788552490094    1.52918571306205    2.72231529139122
C         2.93553297814637    0.69446114515042    1.77023620526856
C        -0.36884816956190    3.46254791747919    0.56733408762492
C        -1.73151897716611    3.00802069097282    0.57783617489299
C        -1.96069179788476    2.29471191640187    1.81267759171892
C        -0.75721978450155    2.29624227873113    2.55743877028139
C         0.24595223603614    3.01519659162109    1.78029635309976
C        -3.42086291190951    0.71551639830567    0.55707312998395
C        -3.42869899995005   -0.72189918955783    0.55266837083034
C        -2.80357168099695   -1.16300786051888    1.77676735409730
C        -2.46488285804050    0.00402187987934    2.51316576663621
C        -2.78934896034083    1.14601283282361    1.79020507097343
C        -1.74142201973503   -2.99953851006248    0.57921911924070
C        -0.37604147031783   -3.44500853798124    0.58542411104630
C         0.23433807527747   -3.01362616443794    1.80834964990621
C        -0.75112797977591   -2.28923797488213    2.55874201528828
C        -1.99278436714524   -2.28844173919974    1.79543351193192
C        -0.26722232649777   -3.00311136814876   -1.84352679031262
C         0.72039520724511   -2.28367863447649   -2.60539944354237
C         1.93864139201880   -2.27811734612933   -1.83495043639949
C         1.69774897155757   -3.00935446641784   -0.64519324607100
C         0.35729133859722   -3.42943748149293   -0.61307604179564
C         2.77361599584603   -1.16100939441886   -1.84566890125461
C         2.39551590938177   -0.00443675633411   -2.59346050896111
C         2.77484868118551    1.16789197061883   -1.84069910185179
C         3.39237817936241    0.72347457253223   -0.61827476700839
C         3.38960458476580   -0.70339719113632   -0.60937093511407
C         1.96359238396308    2.29009193089083   -1.84477889896274
C         0.73757952923832    2.29095565007572   -2.59786828551434
C        -0.24950564796044    3.01355158587132   -1.83765059099575
C         0.36519126722913    3.46204692533928   -0.61911212874266
C         1.72490788874163    3.01735031469892   -0.61903665422553
C        -1.57092901966180    2.58028675642423   -1.82546002570272
C        -1.95211814413771    1.41644085740870   -2.58595837828122
C        -2.94781732316206    0.69498753790410   -1.83507950116070
C        -3.18200024674229    1.41281072002292   -0.61042249904226
C        -2.32350658140078    2.57991366357916   -0.60329795575141
C        -2.95310954093521   -0.69229750477215   -1.84249563475172
C        -1.96174079883681   -1.41102496315852   -2.59814170832518
C        -1.58509699830242   -2.57615348617501   -1.83719006466366
C        -2.34201852937220   -2.57795775130863   -0.61443923972636
C        -3.19071399200086   -1.41895119455688   -0.62164296739305
C        -1.00818701202347   -0.71630237337529   -3.32642876716474
C        -1.00286640458107    0.72395631756635   -3.31941563041685
C         0.36985910379183    1.16465517324205   -3.32358684078441
C         1.20985577715447    0.00150809191231   -3.33003829426000
C         0.36147620774921   -1.16089515489582   -3.33157994091964
C        -1.82033446197216   -0.00136915478308    4.91979551461105
F        -0.81257853150181    0.00135890335038    5.79472846842721
F        -2.56924997521685   -1.07698904798942    5.16956837539555
F        -2.56486911706616    1.07905772261389    5.16161422918956
C         2.92675281439744    2.13814575212549    3.83609463731220
F         3.93268434933272    2.86216467056849    3.33767530260287
F         2.19436615705790    2.93716348247530    4.61624841197605
F         3.45574763621059    1.18458372220115    4.60629020776000
C         3.48206440835634   -3.84192493047854    0.88680136345602
F         4.17323309943436   -3.61964571017145    2.00614259920054
F         4.35664609876203   -3.95071099916696   -0.11602916693357
F         2.86656824123700   -5.01927083871679    1.01901949933030
72
 energy: -177.496241035326 gnorm: 0.017746905251 xtb: 6.4.1 (a3dbbd7)
C        -1.31844520917330   -0.00154816866977    3.50083595028692
C        -0.38519600242393   -1.18290601044288    3.29204276225382
C         0.95736553868570   -0.70990413744525    3.25733455155544
C         0.94365214254056    0.71460453796462    3.27544598388424
C        -0.36763823042962    1.17506053943417    3.29166145397694
C         2.49146086251748   -2.74660388036333    0.61920066991944
C         3.16938995720200   -1.38629096294463    0.56753025683593
C         2.90766199734174   -0.67692155068767    1.77012226191675
C         1.92655161811909   -1.42984983452966    2.53766544633272
C         1.56274148321858   -2.58045889452917    1.82379295790410
C         3.13691044160114    1.40804216376612    0.57018005789491
C         2.30046654306681    2.58199352403179    0.56552384002212
C         1.56085667524258    2.61186427982804    1.78311250941557
C         2.08818623785055    1.54226098027850    2.73545475889972
C         2.93458371854817    0.70298773452098    1.78176102151669
C        -0.36808995705224    3.45238886742702    0.56078931882133
C        -1.73150953906586    3.00296313506599    0.56946021880753
C        -1.96228719359408    2.29363342685970    1.80824998411045
C        -0.76264725001510    2.29792424160850    2.55877275262393
C         0.24787287179679    3.00973233063371    1.77938995825383
C        -3.41537646846411    0.71544992162340    0.55231478532302
C        -3.42632680972988   -0.71979714639819    0.54823614134908
C        -2.80208741501988   -1.15864248434041    1.77701406478956
C        -2.45756313609544    0.00523731661829    2.52696377440672
C        -2.78649580978791    1.14362070465654    1.79107729067504
C        -1.74303732849461   -2.99435834214322    0.56936873437787
C        -0.37723144700310   -3.44003225267274    0.57714875304073
C         0.23693145463374   -3.00408943063568    1.79653639225065
C        -0.75199832912269   -2.27749429174967    2.54932112274485
C        -1.99526919827200   -2.28580579280939    1.78801581359886
C        -0.26748543583531   -2.99653633885878   -1.84709934062122
C         0.71904808764714   -2.28013184515609   -2.60916681718864
C         1.93924394015649   -2.27971986779633   -1.83733114623000
C         1.70806546372893   -3.01293998544535   -0.64028273512944
C         0.36184852938730   -3.42527797904494   -0.61633933783159
C         2.77093627328108   -1.16280876707291   -1.85564390567547
C         2.38934995831818   -0.00493474501848   -2.60313228669455
C         2.76502626802852    1.16498471536162   -1.84590566030259
C         3.37500421766422    0.71917615065312   -0.61905910432851
C         3.37949658508758   -0.71025773122629   -0.61347428412901
C         1.95719022626391    2.28971726156926   -1.85251850949764
C         0.73317908748862    2.29352235697806   -2.61012951878715
C        -0.25405378733882    3.01604743709970   -1.84935097051523
C         0.36127889487210    3.46011918928161   -0.62750928972238
C         1.72031706961403    3.01469201377133   -0.62450107846709
C        -1.57459241689353    2.58091314835382   -1.83583760429681
C        -1.95718948716309    1.41763857532287   -2.59741993607219
C        -2.95309496015332    0.69614708915342   -1.84537721929064
C        -3.18273629503195    1.41188184390572   -0.61808642967279
C        -2.32429479682425    2.57862126819814   -0.61173199648663
C        -2.96027454423582   -0.69221377849309   -1.85381839906193
C        -1.96775958480177   -1.41072146257541   -2.61057515560019
C        -1.58718748646397   -2.57335477405131   -1.84620621125282
C        -2.34553000005910   -2.57591439736431   -0.62363569687809
C        -3.19438858337463   -1.41690480447531   -0.62977242239774
C        -1.01337186035590   -0.71559287204451   -3.33929381102953
C        -1.00820581822063    0.72570838937800   -3.33295390841188
C         0.36526068141415    1.16690445731969   -3.33674395745260
C         1.20563448210264    0.00287647875777   -3.34296190573611
C         0.35749050333008   -1.15989858760243   -3.34161097586800
C        -1.83858948638544    0.00459909057922    4.95418580290925
F        -0.83791133920106    0.00542152003837    5.83860202656820
F        -2.59012154903925   -1.06931322430690    5.21249390310661
F        -2.58754342316386    1.08118335740115    5.20701923698808
C         2.93969394354517    2.15124274392290    3.86106166909953
F         3.95307262983822    2.87977706311291    3.37863812221455
F         2.22082133150265    2.95629725002386    4.65071008314640
F         3.47518722370211    1.20733155519430    4.64114569982498
C         3.50804952256242   -3.87215564528845    0.88373162971659
F         4.20851925432399   -3.66095335591724    2.00162207410187
F         4.38938194766206   -3.99111470027830   -0.11461329433049
F         2.90394977816650   -5.05698098378437    1.01843951983175
72
 energy: -177.496779702082 gnorm: 0.007476206504 xtb: 6.4.1 (a3dbbd7)
C        -1.32167069137499    0.00184442726231    3.52005583811019
C        -0.38835276184800   -1.17643121911076    3.28821563724622
C         0.95501683874948   -0.70604822450790    3.24904050057190
C         0.94401741202095    0.71930490715345    3.27027679673623
C        -0.36923297134118    1.17656717528979    3.29030335450810
C         2.49814955050991   -2.75673905610058    0.61915990408164
C         3.17063235168652   -1.39245431480434    0.56493598693112
C         2.90650706444749   -0.67597327977574    1.76482619800772
C         1.92381819491157   -1.42613472183453    2.53104197956908
C         1.56570660076675   -2.57909478627373    1.81842029989518
C         3.13450984764592    1.40719846024986    0.56998895250328
C         2.29929921395715    2.58214798975516    0.56511050096311
C         1.56322079781564    2.61312772320428    1.78649137483616
C         2.08980270623788    1.54327429815891    2.73751752473273
C         2.93539964750105    0.70377876137237    1.78511232102741
C        -0.36749525549198    3.44893428425216    0.55913897331276
C        -1.73136803390487    3.00177799202846    0.56745089581080
C        -1.96345475536913    2.29562876955266    1.80845678822970
C        -0.76376510939395    2.30074120743789    2.55943414643464
C         0.24898554324544    3.00755408071421    1.77825503446437
C        -3.41009754238068    0.71539613340594    0.55352771491657
C        -3.42170785822162   -0.71844273147808    0.55005186193520
C        -2.79900203106924   -1.15651782251849    1.78063185633661
C        -2.45204990969599    0.00663616627221    2.53342982487749
C        -2.78385843424575    1.14347624112600    1.79450290923305
C        -1.74296633614493   -2.99408859999517    0.56805834711222
C        -0.37694464817105   -3.43896219136563    0.57579495025709
C         0.23850679225428   -2.99763626378739    1.79256619825664
C        -0.75044415534115   -2.27208469142751    2.54641244305025
C        -1.99468248510835   -2.28576845654308    1.78726600484852
C        -0.26572298989886   -2.99451373748876   -1.84724639991959
C         0.72021814040579   -2.27988097833886   -2.60972645506401
C         1.94129974158046   -2.28138825162633   -1.83838525732305
C         1.71084778417493   -3.01269071366698   -0.63823440607099
C         0.36482210480658   -3.42460519002504   -0.61649895642814
C         2.77191034992567   -1.16413018324627   -1.85967009263992
C         2.38890616039626   -0.00542320499353   -2.60643395318860
C         2.76198216228084    1.16286945090287   -1.84591965898201
C         3.37008039957032    0.71695127373171   -0.61798629192771
C         3.37632424000702   -0.71298291303348   -0.61455442616185
C         1.95553135327138    2.28887579367922   -1.85395657955855
C         0.73242951095162    2.29446327599028   -2.61402581058211
C        -0.25541775493857    3.01692014801261   -1.85324994733805
C         0.35993141827690    3.45924058474297   -0.62971101157623
C         1.71909245184985    3.01284060660431   -0.62543177249348
C        -1.57592487170422    2.58131323068606   -1.83974221318583
C        -1.95903186177298    1.41783867130650   -2.60177257499595
C        -2.95403863172930    0.69611418209461   -1.84724407771283
C        -3.18190701585043    1.41127040461399   -0.61892743519373
C        -2.32429005269403    2.57853577142380   -0.61418797816775
C        -2.96111747705259   -0.69267678288381   -1.85518284438658
C        -1.96826828937705   -1.41133549255358   -2.61309335115223
C        -1.58627147543458   -2.57319051820349   -1.84787548052933
C        -2.34509581759342   -2.57563254283667   -0.62478055952975
C        -3.19337407344571   -1.41593846625345   -0.62948895625085
C        -1.01369158553702   -0.71627400076714   -3.34272723978793
C        -1.00948068870717    0.72593385097457   -3.33793600047694
C         0.36455893502211    1.16765862680340   -3.34156346264765
C         1.20550241412673    0.00313191235959   -3.34724193537279
C         0.35766198426157   -1.16047832775534   -3.34460133703712
C        -1.84594304749583    0.00976361323671    4.96767847503826
F        -0.85035127791017    0.01048125695258    5.85844948292581
F        -2.59999414742879   -1.06324105548721    5.22606551915306
F        -2.59755549632910    1.08532000680438    5.21968225937964
C         2.93704634138293    2.15193216842190    3.86848308139145
F         3.95201626194077    2.88241956607512    3.39131332219442
F         2.21752288777728    2.95785081405783    4.65726886124598
F         3.47212826035943    1.21094832136254    4.65260998650460
C         3.51540992687258   -3.88243083853690    0.87765086174747
F         4.22114874701103   -3.67555730569620    1.99360211462526
F         4.39561226166822   -4.00123873903139   -0.12245865887262
F         2.91516039809996   -5.06993891259410    1.01146648788988
72
 energy: -177.496888126054 gnorm: 0.003606194264 xtb: 6.4.1 (a3dbbd7)
C        -1.32075459735088    0.00294854413927    3.52636923296242
C        -0.38868263614770   -1.17410864274487    3.28634908115023
C         0.95492550810562   -0.70473452923037    3.24571365630825
C         0.94386948457105    0.72013669853106    3.26683323922722
C        -0.36901328269967    1.17701280908124    3.28800359865764
C         2.49841458260005   -2.75852379204287    0.61914757243696
C         3.17243013346339   -1.39424356597047    0.56397261694814
C         2.90815431195767   -0.67578119145089    1.76290552405193