62
 energy: -137.494418047476 gnorm: 0.193691525467 xtb: 6.4.1 (a3dbbd7)
C        -1.29770965891222    0.00000000000000    3.53163224767276
C        -0.37107604425475   -1.17478800586359    3.31058196643012
C         0.97979757550459   -0.72157705231961    3.28110534952822
C         0.97979757550459    0.72157705231961    3.28110534952822
C        -0.37107604425475    1.17478800586360    3.31058196643013
C         2.33544184946295   -2.58264348698296    0.58346340581249
C         3.18207169571150   -1.41543014636129    0.58234433372313
C         2.94373959867916   -0.69404060100004    1.80708186552027
C         1.95046398470883   -1.41556779135961    2.56176558167067
C         1.57767488865866   -2.57871801508103    1.80912454278211
C         3.18207169571150    1.41543014636129    0.58234433372313
C         2.33544184946295    2.58264348698296    0.58346340581249
C         1.57767488865866    2.57871801508103    1.80912454278211
C         1.95046398470883    1.41556779135961    2.56176558167066
C         2.94373959867916    0.69404060100004    1.80708186552027
C        -0.36119281684147    3.44519252612879    0.58582996047390
C        -1.73469290191499    3.00153459982720    0.58916793337350
C        -1.97220713510261    2.29308475607878    1.81059639720294
C        -0.73400332666893    2.27691900303500    2.56853480078419
C         0.25309257506893    2.99789064535074    1.80898867763471
C        -3.39649784746455    0.71758744312072    0.57410478167568
C        -3.39649784746455   -0.71758744312072    0.57410478167568
C        -2.77168037603652   -1.14964415915414    1.80664876434809
C        -2.42168465399864    0.00000000000000    2.56054627302143
C        -2.77168037603652    1.14964415915414    1.80664876434809
C        -1.73469290191499   -3.00153459982719    0.58916793337351
C        -0.36119281684148   -3.44519252612879    0.58582996047390
C         0.25309257506893   -2.99789064535073    1.80898867763471
C        -0.73400332666892   -2.27691900303499    2.56853480078419
C        -1.97220713510261   -2.29308475607878    1.81059639720295
C        -0.24585893810850   -3.00970705822685   -1.82232538763502
C         0.74439012833927   -2.28841876480361   -2.57822875384061
C         1.97268106729833   -2.28861170675520   -1.82114897801170
C         1.74031203428013   -3.00832022201671   -0.59623578829480
C         0.36724813466371   -3.45114129717027   -0.59443426078026
C         2.79027372790168   -1.16551010025889   -1.82330670861298
C         2.41077011246349    0.00000000000000   -2.58030971859023
C         2.79027372790168    1.16551010025889   -1.82330670861298
C         3.40598095600767    0.72109250237888   -0.59875668403540
C         3.40598095600767   -0.72109250237888   -0.59875668403540
C         1.97268106729833    2.28861170675520   -1.82114897801170
C         0.74439012833927    2.28841876480360   -2.57822875384062
C        -0.24585893810850    3.00970705822685   -1.82232538763502
C         0.36724813466371    3.45114129717027   -0.59443426078026
C         1.74031203428013    3.00832022201671   -0.59623578829480
C        -1.56847069976934    2.58049680433801   -1.82122736601016
C        -1.94730857051169    1.41533687195356   -2.58360676406823
C        -2.94243160962768    0.69434475341889   -1.82977489504240
C        -3.17479380115303    1.41444285760430   -0.60326970185865
C        -2.32688654321742    2.58113588269429   -0.60086409487791
C        -2.94243160962768   -0.69434475341889   -1.82977489504240
C        -1.94730857051169   -1.41533687195356   -2.58360676406823
C        -1.56847069976934   -2.58049680433801   -1.82122736601016
C        -2.32688654321742   -2.58113588269429   -0.60086409487790
C        -3.17479380115303   -1.41444285760429   -0.60326970185865
C        -0.99138524268633   -0.72097607833148   -3.31029871234527
C        -0.99138524268633    0.72097607833148   -3.31029871234528
C         0.38054100031802    1.16548515734434   -3.30884687187952
C         1.22668597234242    0.00000000000000   -3.30783368151334
C         0.38054100031802   -1.16548515734434   -3.30884687187952
Cl       -1.93737486741132   -0.00000000000005    5.25509316806359
Cl       -0.41439803062024   -1.88878841646648    4.97323846106642
62
 energy: -137.545588961479 gnorm: 0.085265276641 xtb: 6.4.1 (a3dbbd7)
C        -1.31506483614203    0.01397670335365    3.55371521779533
C        -0.38067726338958   -1.21153428704028    3.41661567244775
C         0.99061694483217   -0.70831516183999    3.26621391213056
C         0.97811407065373    0.72306797751924    3.27871366998154
C        -0.37587925480929    1.17467284548555    3.30821168657882
C         2.33464831355278   -2.58283678419971    0.57965196227676
C         3.18197117911348   -1.41569519232180    0.58057705409607
C         2.94704010718961   -0.69061757480081    1.80474954219247
C         1.94642483103411   -1.40255236297519    2.54949128539542
C         1.57234900564408   -2.57811992885741    1.80052854534707
C         3.18267179373763    1.41681682656935    0.58120600042708
C         2.33563830166826    2.58413839245539    0.58250128428891
C         1.57778224374073    2.57979018324909    1.80746995668258
C         1.95177923438022    1.41789769906806    2.55925848257943
C         2.94614450261109    0.69767047929406    1.80568364314962
C        -0.36320355840521    3.44573304144442    0.58387180244712
C        -1.73600460130078    3.00290069486194    0.58552933367797
C        -1.97598760850441    2.29238504400054    1.80789004326778
C        -0.73529439038547    2.27460008451704    2.56411721703364
C         0.25128966689889    2.99564391596498    1.80693678427719
C        -3.39551096507337    0.72210966158823    0.57228230243391
C        -3.39543393633270   -0.71250568915512    0.57578544573320
C        -2.76503296830452   -1.13977956802559    1.81181794992153
C        -2.41944844250977   -0.00112672464071    2.55912152925180
C        -2.77151504491201    1.15417325046612    1.80077676630627
C        -1.73241517442048   -3.01017241228391    0.58080822884428
C        -0.36134380890765   -3.45559287922030    0.57316101367920
C         0.25012370246707   -2.99733287381374    1.78954021295327
C        -0.74684130830270   -2.29249302601281    2.54706899646432
C        -1.95872250962169   -2.29287495299298    1.80771349125226
C        -0.24429993614669   -3.01074648859643   -1.82616587439684
C         0.74605677209434   -2.28801676293008   -2.58166766646886
C         1.97422282858930   -2.28838387090480   -1.82531065277627
C         1.74085520886110   -3.01055409424836   -0.60074793492941
C         0.36970294539187   -3.45766896750828   -0.60349996534135
C         2.79043837285287   -1.16641620308401   -1.82494419274101
C         2.41078258914066    0.00074319887118   -2.58133284668342
C         2.79014215543561    1.16503029286687   -1.82372666326738
C         3.40559643082101    0.72105202784222   -0.59947137748891
C         3.40601023373586   -0.72126805651168   -0.59939615846235
C         1.97211993395895    2.28912424269430   -1.82196884595775
C         0.74572075181494    2.28858321239825   -2.57904394144957
C        -0.24634910284102    3.01061649836239   -1.82360833654494
C         0.36637390800542    3.45158683621370   -0.59533976589869
C         1.73965468892402    3.00855788261489   -0.59700552197992
C        -1.56681868650038    2.58186497740442   -1.82387023796127
C        -1.94618036108490    1.41631583892818   -2.58497734162414
C        -2.94133288663307    0.69658764376304   -1.82985635629691
C        -3.17540905233282    1.41851635392728   -0.60602432630638
C        -2.32787573677462    2.58340130048286   -0.60268608179297
C        -2.94209666852249   -0.69324067647213   -1.82765068328437
C        -1.94698450047751   -1.41466752128518   -2.58194644646374
C        -1.56655422741203   -2.58017634761727   -1.82165555009469
C        -2.32366969157792   -2.58304784295870   -0.59993262301264
C        -3.17295222389335   -1.41027786916841   -0.59951885766685
C        -0.99118573581113   -0.72073203291962   -3.31002165976835
C        -0.99058274853533    0.72113399684335   -3.31084114480457
C         0.38143128944684    1.16575892259728   -3.30932452785108
C         1.22759435342366    0.00080753833413   -3.30861448729206
C         0.38072155702719   -1.16508930634801   -3.30967240896073
Cl       -2.05183332076274    0.17464466961668    5.23729621927879
Cl       -0.29478176606509   -2.07685519133186    5.03791076243037
62
 energy: -137.556733627267 gnorm: 0.025495564071 xtb: 6.4.1 (a3dbbd7)
C        -1.32054904373500    0.01419929127937    3.57052217987160
C        -0.39017233816446   -1.24975692947306    3.52761796365470
C         0.99024360442221   -0.70207369404966    3.26523724310909
C         0.97381882408416    0.71827237975513    3.26712264069263
C        -0.37896645827452    1.16750100891580    3.30041932394408
C         2.32867371169526   -2.58189953256402    0.57550025051512
C         3.17604656099862   -1.41500201696555    0.57705436022011
C         2.93668926057458   -0.68725709929954    1.79947432812729
C         1.93370473644408   -1.39289696043468    2.54470894612822
C         1.56466740526243   -2.57950066138104    1.79544066183013
C         3.18379855894923    1.42022112875836    0.57740883752876
C         2.33577707710502    2.58775100253996    0.57765786204489
C         1.57675916385437    2.58116827628919    1.80150847885965
C         1.95018482899444    1.41864726978386    2.55111368438499
C         2.94471491519438    0.70181793870782    1.80119315533690
C        -0.36558282766491    3.44676125429535    0.57861395336291
C        -1.73799406821285    3.00660729918841    0.57859189662381
C        -1.97916115870265    2.29288535787965    1.80268587404207
C        -0.73616740560879    2.26907274181930    2.55811253539784
C         0.24840463572544    2.99193019804324    1.80139045199136
C        -3.39715371434589    0.73009332499094    0.57046997501309
C        -3.38684847629490   -0.70419310190792    0.57631609949368
C        -2.75593325316373   -1.12691147430150    1.81736991842413
C        -2.41029628358648   -0.00284199083158    2.55653800590853
C        -2.77216328150122    1.16119292493943    1.79603625445909
C        -1.72533237929536   -3.01327876112860    0.57428480373862
C        -0.35874956019413   -3.46233930270026    0.56526833496869
C         0.24620613727240   -2.99547818600620    1.78269744318429
C        -0.75735136269313   -2.29514438394354    2.53966742351286
C        -1.93717523977995   -2.28434640278726    1.80855528070057
C        -0.24074996693584   -3.01368799024252   -1.83326660081259
C         0.74911785237953   -2.28877628998133   -2.58911260056372
C         1.97684559164211   -2.28920366178921   -1.83222739092805
C         1.74206803422179   -3.01445692995027   -0.60785990663843
C         0.37341186790095   -3.46437024929987   -0.61294457902287
C         2.79096939907421   -1.16712405305766   -1.82916059988643
C         2.41116254029483    0.00191102039769   -2.58460571459519
C         2.78993273549884    1.16526520377448   -1.82646828928113
C         3.40532607769370    0.72212456691116   -0.60242351528111
C         3.40362981193045   -0.72077499542837   -0.60168765789861
C         1.97150765912861    2.29049062129346   -1.82597404319177
C         0.74733276117487    2.28986715500633   -2.58355178603108
C        -0.24687292386818    3.01283473065400   -1.82877212381467
C         0.36536919300913    3.45335306218922   -0.59984019277915
C         1.73890312378752    3.01071565864276   -0.60168815073086
C        -1.56592081317952    2.58559120217496   -1.83065294950090
C        -1.94520157471400    1.41869214575325   -2.58939979096116
C        -2.94026484013070    0.70109286433185   -1.83201267937299
C        -3.17798377590195    1.42553867625262   -0.61099384084718
C        -2.32996289874888    2.58858073780625   -0.60823838630234
C        -2.93711923567822   -0.68978110448645   -1.82544190138617
C        -1.94360135898221   -1.41260289860635   -2.58091053127942
C        -1.56209904310692   -2.57965267835386   -1.82435587172268
C        -2.31435246322960   -2.58114166695112   -0.59893104806826
C        -3.16449801115104   -1.40239625377914   -0.59606063988196
C        -0.98933332844331   -0.71960990502346   -3.31164807329788
C        -0.98924664368401    0.72215191127467   -3.31370539597359
C         0.38282878061698    1.16667108143488   -3.31296962545928
C         1.22905854864167    0.00213901790430   -3.31239675368852
C         0.38209857016579   -1.16464619395477   -3.31352513948720
Cl       -2.05935101526474    0.18494995961130    5.24108637388663
Cl       -0.29636162314579   -2.13773406038667    5.14755477478376
62
 energy: -137.558500443488 gnorm: 0.014434513144 xtb: 6.4.1 (a3dbbd7)
C        -1.32035991822575    0.00615059809025    3.58294264246009
C        -0.38841321285648   -1.27052773100112    3.57267336442575
C         0.99045396892168   -0.71642767940098    3.28000289710484
C         0.97109333296781    0.70288677905373    3.26177118623315
C        -0.37889134442990    1.15401620149506    3.29636084639767
C         2.32778069612768   -2.58434039214777    0.56896523738978
C         3.17090126506432   -1.41563053248606    0.57031827337801
C         2.92518237367024   -0.69130419340922    1.79323477066709
C         1.93107660785325   -1.40113927892777    2.54844390586029
C         1.56894208437782   -2.58988631679088    1.79322687311533
C         3.18282320564530    1.41963751144638    0.57385882411458
C         2.33441064811745    2.58693227970803    0.57529837240954
C         1.57453315842690    2.57462996929870    1.79871796230046
C         1.94572930397544    1.40941147260778    2.54567341559264
C         2.93940737482005    0.69783561168835    1.79588167218201
C        -0.36678413930590    3.44489332736818    0.57868748081614
C        -1.73929590202586    3.00742493921721    0.57849990124167
C        -1.97875483999430    2.28924855726468    1.80256404923550
C        -0.73478199384212    2.25873146992667    2.55670885218807
C         0.24688110523325    2.98391184251662    1.79982507580450
C        -3.39507110701449    0.72988160474156    0.57304883630682
C        -3.37874875670888   -0.70412938117449    0.57784929456408
C        -2.74940357045089   -1.12711940265973    1.82150255466448
C        -2.40150962849516   -0.00967401307104    2.55807379217548
C        -2.77135142650143    1.16033723894435    1.79858497480225
C        -1.71326884737110   -3.01083830215944    0.57255412841426
C        -0.35047506488310   -3.46383654150324    0.56409834068428
C         0.25310264689472   -3.00392278650335    1.78806688605982
C        -0.75008863205513   -2.29808240014728    2.54807726717324
C        -1.92025695138524   -2.28281212410307    1.81447894069496
C        -0.23690052888438   -3.01420895091890   -1.83956031760421
C         0.75107154542523   -2.28738266124343   -2.59719766048757
C         1.97923599642947   -2.28841834625600   -1.84060239248608
C         1.74595612193648   -3.01740051494662   -0.61691899942711
C         0.37841583220256   -3.46619250689248   -0.61942261249831
C         2.79128577638587   -1.16494225440051   -1.83642554196658
C         2.41017298210099    0.00562024775484   -2.58979517773842
C         2.78833834451621    1.16808882129237   -1.83024984430662
C         3.40362060251543    0.72340807383416   -0.60687947534378
C         3.40104985261609   -0.71968810823341   -0.60721693449504
C         1.96966281757991    2.29368908796772   -1.82870000738047
C         0.74586284027642    2.29402882769721   -2.58610080386286
C        -0.24888931477207    3.01617391435462   -1.82983529726910
C         0.36402159131010    3.45474326283028   -0.60015524940368
C         1.73755651128634    3.01231785800768   -0.60334585314952
C        -1.56796566069196    2.58973297074903   -1.83208477679778
C        -1.94674369770746    1.42222970735491   -2.59037644347053
C        -2.94012697774082    0.70408148347097   -1.83127620066766
C        -3.17837631773295    1.42713038955848   -0.60999756194977
C        -2.33208354602736    2.59128441071030   -0.60814241113327
C        -2.93232828846067   -0.68705357778518   -1.82315342226901
C        -1.94071099602876   -1.40951216502978   -2.58116405786498
C        -1.55756879564419   -2.57786439078886   -1.82757884116387
C        -2.30256811055974   -2.57700253987757   -0.59807951262345
C        -3.15606696003395   -1.39883490813740   -0.59422393084312
C        -0.98905227747949   -0.71584175312017   -3.31401927426308
C        -0.99063886450580    0.72607385683412   -3.31536525143017
C         0.38124675134624    1.17091452374413   -3.31603017557164
C         1.22799660442285    0.00653705464470   -3.31755088520350
C         0.38216437060240   -1.16142333404786   -3.31866533645282
Cl       -2.09144692829562    0.25822150623392    5.23019589666520
Cl       -0.33431811258286   -2.12355672970985    5.19632127105689
62
 energy: -137.558836667338 gnorm: 0.008049853502 xtb: 6.4.1 (a3dbbd7)
C        -1.32108967269453    0.00486107417635    3.58701200569160
C        -0.38826700569027   -1.27643224529549    3.58670942328041
C         0.98888789222195   -0.72459745022961    3.28660227810090
C         0.97017652366426    0.69565464638726    3.25883319799471
C        -0.37770328037019    1.14854370020202    3.29339393268544
C         2.32914229332726   -2.58636936836540    0.56602536320108
C         3.16846911736525   -1.41568792533687    0.56747355048911
C         2.92000040629465   -0.69310453636778    1.79053133778193
C         1.93015528348110   -1.40533284372972    2.54906339607326
C         1.57298697048520   -2.59535282949448    1.79166320050009
C         3.18275688546176    1.41906191678711    0.57237404330373
C         2.33411585689215    2.58606593263897    0.57491560542629
C         1.57345842306250    2.57139494829848    1.79795659189629
C         1.94357384427341    1.40480019027829    2.54310905016864
C         2.93731012108220    0.69565557154973    1.79357665637460
C        -0.36732978231834    3.44417831612756    0.57957978498274
C        -1.73996719530595    3.00783203483096    0.57961683925934
C        -1.97834986248490    2.28741404339594    1.80325283152715
C        -0.73394376564163    2.25547971203359    2.55701452399185
C         0.24642481231765    2.98074945216276    1.79975131806816
C        -3.39490913429803    0.72901326754364    0.57486539711045
C        -3.37761896571253   -0.70484793947903    0.57793981812369
C        -2.74874749744437   -1.12828346754939    1.82189739254837
C        -2.39978495328748   -0.01310889406283    2.55909093269591
C        -2.77302250278187    1.16015781379147    1.80111805806108
C        -1.70702338188114   -3.00697956770502    0.57190244020509
C        -0.34672359602312   -3.46295331757528    0.56436038708214
C         0.25734894560604   -3.00794538987970    1.79139577898447
C        -0.74443253262698   -2.29675068614551    2.55322083706338
C        -1.91345955743067   -2.28121404424498    1.81755977638238
C        -0.23552335485699   -3.01403417287310   -1.84075414230008
C         0.75187362420067   -2.28710105027832   -2.59949323632727
C         1.98065906648976   -2.28849142512559   -1.84352264149386
C         1.74839779654109   -3.01915438305391   -0.62049598119508
C         0.38055172192544   -3.46661592400740   -0.62117797676499
C         2.79186941536475   -1.16416057612315   -1.83917159990082
C         2.41005484130689    0.00682987553213   -2.59159607124053
C         2.78806004543046    1.16924995927876   -1.83172353621650
C         3.40299767074109    0.72376362033124   -0.60866518342920
C         3.40049935856484   -0.71936135824763   -0.60950270592456
C         1.96917971305873    2.29486365189699   -1.82918912690750
C         0.74507138759877    2.29547646952652   -2.58613315423344
C        -0.24972878178569    3.01701337323389   -1.82907470158569
C         0.36360240816307    3.45519426265184   -0.59931619646721
C         1.73728317825305    3.01282129835144   -0.60325304904404
C        -1.56914834954745    2.59107108357782   -1.83151272487298
C        -1.94758268983054    1.42340652812794   -2.58987430906030
C        -2.94058952982761    0.70500276553460   -1.83046487965566
C        -3.17878470265781    1.42696212447206   -0.60867972391531
C        -2.33301570872313    2.59169623500894   -0.60693233583501
C        -2.93094073088243   -0.68614321449506   -1.82250803681065
C        -1.94008417858570   -1.40848453420893   -2.58143114489867
C        -1.55607764743089   -2.57672488353232   -1.82823486966750
C        -2.29790776959887   -2.57433870991101   -0.59765935202166
C        -3.15372570037367   -1.39752164725486   -0.59416580868709
C        -0.98910052219068   -0.71458952508590   -3.31463245760376
C        -0.99134652684172    0.72743970665747   -3.31515383632186
C         0.38044042100989    1.17225377657364   -3.31624801715448
C         1.22751272683111    0.00793091161805   -3.31903040100208
C         0.38220991560208   -1.16047850327767   -3.31990739574690
Cl       -2.10368586346637    0.28849691462327    5.21696188365136
Cl       -0.34872032367082   -2.11296318073124    5.20713050063393
62
 energy: -137.558927632457 gnorm: 0.003612026977 xtb: 6.4.1 (a3dbbd7)
C        -1.32225363680004    0.00566494928404    3.58896456034353
C        -0.38895562360843   -1.27742323656077    3.58958925565923
C         0.98731836589070   -0.72757429527775    3.28732774723487
C         0.97005530815464    0.69331824713098    3.25728519910342
C        -0.37673996545703    1.14684058996787    3.29121794289861
C         2.33052462550283   -2.58750603845588    0.56537360834880
C         3.16793366031249   -1.41569530583468    0.56706268486961
C         2.91857353125879   -0.69343817149745    1.79004515785753
C         1.92968200627231   -1.40622434934914    2.54829620227167
C         1.57491573425742   -2.59710304889646    1.79073645442744
C         3.18307659348029    1.41895279835724    0.57221336788405
C         2.33422376408687    2.58573596780784    0.57529530565771
C         1.57311186619278    2.57056062573848    1.79813302022255
C         1.94299969224295    1.40349773143299    2.54238862555689
C         2.93719832860871    0.69510417474476    1.79318333666360
C        -0.36756477434505    3.44410495279272    0.58018665692863
C        -1.74019699803722    3.00779247833053    0.58036524064581
C        -1.97815096927581    2.28656993203173    1.80356277402898
C        -0.73374934573380    2.25517350199035    2.55738026167958
C         0.24631898722463    2.98024882957415    1.80004420968376
C        -3.39551309974584    0.72872629011152    0.57557473097206
C        -3.37857238245571   -0.70511585023859    0.57783851915018
C        -2.74917000922222   -1.12875719456574    1.82107485404767
C        -2.39992461492378   -0.01427060005032    2.55905427135116
C        -2.77437951918727    1.16032435461792    1.80215764627774
C        -1.70488303290969   -3.00468933165036    0.57173059691752
C        -0.34588858417890   -3.46205165162015    0.56452269116472
C         0.25870191587143   -3.00860772995119    1.79208487068990
C        -0.74184932032912   -2.29423295197309    2.55418570381951
C        -1.91112417029998   -2.27972367272809    1.81839412585164
C        -0.23532815818145   -3.01380082287022   -1.84019498654881
C         0.75200247363895   -2.28710446867774   -2.59938357839988
C         1.98118040243470   -2.28872865475802   -1.84382789317357
C         1.74944223109939   -3.01988177516881   -0.62123981394239
C         0.38110690801953   -3.46673924509036   -0.62125172869320
C         2.79217449833849   -1.16405853548491   -1.83942474610093
C         2.41009836866537    0.00690248454854   -2.59158221818478
C         2.78811126020724    1.16945824900809   -1.83175412748669
C         3.40287461418407    0.72375804497766   -0.60879062055500
C         3.40080241987332   -0.71943870431245   -0.60976948125977
C         1.96913312496691    2.29500022619865   -1.82876698159767
C         0.74478135895536    2.29559454521642   -2.58548178048287
C        -0.24993720342128    3.01676654117681   -1.82818880980122
C         0.36353681635793    3.45520639568771   -0.59858700392505
C         1.73734087386623    3.01290383219572   -0.60269952827515
C        -1.56955077770605    2.59105274553552   -1.83079182841599
C        -1.94789692973988    1.42344270638291   -2.58928344683593
C        -2.94108026819711    0.70499902405023   -1.83002762172767
C        -3.17930541243312    1.42660070493827   -0.60807145426072
C        -2.33322923431129    2.59123062180139   -0.60611511722121
C        -2.93111626604777   -0.68617791993589   -1.82248037322389
C        -1.94032483480204   -1.40851297204916   -2.58147053018382
C        -1.55600508329564   -2.57638210282823   -1.82786250512352
C        -2.29725478658939   -2.57353142826248   -0.59739553643143
C        -3.15384012065278   -1.39721778573189   -0.59433141174665
C        -0.98924727016819   -0.71452860583545   -3.31440586164840
C        -0.99158208582639    0.72754460526547   -3.31452697245340
C         0.38015043486541    1.17229469707045   -3.31557686459894
C         1.22732635919477    0.00802282047246   -3.31877712406899
C         0.38217259097365   -1.16044132274281   -3.31960656455750
Cl       -2.10438325196098    0.29624475057322    5.20798399442972
Cl       -0.35113578480020   -2.10946906308105    5.20480643134182
62
 energy: -137.558946297552 gnorm: 0.001581911726 xtb: 6.4.1 (a3dbbd7)
C        -1.32299309179919    0.00620231908213    3.59018662732860
C        -0.38931877639392   -1.27737515749421    3.58876066482337
C         0.98685615100839   -0.72762250325519    3.28625404757609
C         0.97025835523906    0.69345326455271    3.25702256403183
C        -0.37633373402937    1.14684939328008    3.29038806748359
C         2.33108434766486   -2.58773936178576    0.56571742546227
C         3.16832803763370   -1.41575762528383    0.56748029417627
C         2.91901972945184   -0.69328606975186    1.79042776811974
C         1.92978380333443   -1.40587228816458    2.54786683790351
C         1.57517338768231   -2.59696863314195    1.79063711697364
C         3.18331276566343    1.41904451802153    0.57246856757072
C         2.33434856923677    2.58574719274654    0.57561799327037
C         1.57318791959535    2.57074329972491    1.79845351095889
C         1.94324023581156    1.40373654611702    2.54257941567567
C         2.93774156827837    0.69525342472935    1.79348013783103
C        -0.36759137538173    3.44417194564627    0.58037848719964
C        -1.74019123613318    3.00756950675684    0.58059583172817
C        -1.97810957538955    2.28634184829997    1.80358359188906
C        -0.73382997429903    2.25558180530182    2.55753499134698
C         0.24638767932819    2.98060876231612    1.80025391923842
C        -3.39594429656457    0.72876842462332    0.57553525061500
C        -3.37935351216903   -0.70510817546377    0.57779615503399
C        -2.74940747893635   -1.12878857983581    1.82042760667587
C        -2.40015265173573   -0.01426451833215    2.55851663671986
C        -2.77468638731025    1.16034144132499    1.80209890634417
C        -1.70504770500019   -3.00440951454059    0.57177415376887
C        -0.34622997389061   -3.46178267986747    0.56453529386625
C         0.25854538393381   -3.00804025752210    1.79161979509902
C        -0.74151524675019   -2.29295428887104    2.55333629089363
C        -1.91114680356609   -2.27921291382754    1.81805053941765
C        -0.23547831598454   -3.01369113400292   -1.83964673332762
C         0.75186254708142   -2.28705786771893   -2.59885198724750
C         1.98111581625214   -2.28878159543097   -1.84337725831617
C         1.74950710121030   -3.01981796590933   -0.62089872975889
C         0.38102541225652   -3.46670269031072   -0.62095367798672
C         2.79216033410137   -1.16411022635598   -1.83897573435581
C         2.41006857783027    0.00673638460227   -2.59117410806557
C         2.78811327326531    1.16935577112295   -1.83140971533435
C         3.40292502438771    0.72370141893196   -0.60846249786531
C         3.40111013733311   -0.71955492093062   -0.60941519929402
C         1.96913589130060    2.29485243651604   -1.82838617826094
C         0.74471831428362    2.29539433564488   -2.58508459752136
C        -0.24992665123762    3.01645781316061   -1.82781491365275
C         0.36354505700501    3.45509418119715   -0.59832393643487
C         1.73739040140146    3.01286136789176   -0.60237552181082
C        -1.56955502542066    2.59074105743592   -1.83045350822935
C        -1.94794470610519    1.42322604792252   -2.58904275901624
C        -2.94130873858761    0.70477804418517   -1.82996397030566
C        -3.17957518119265    1.42642898512546   -0.60804202618633
C        -2.33316408445051    2.59083188883817   -0.60588555905842
C        -2.93158821243880   -0.68644318937454   -1.82262820834730
C        -1.94059282185105   -1.40877487303640   -2.58143302287900
C        -1.55626881904041   -2.57651160280554   -1.82754220967699
C        -2.29798854653370   -2.57380186909943   -0.59735058001234
C        -3.15441676176078   -1.39738338277856   -0.59441847170096
C        -0.98935806410124   -0.71472512182688   -3.31412692596659
C        -0.99161991603518    0.72735015233798   -3.31421498476176
C         0.38009606779219    1.17209749701594   -3.31514913996005
C         1.22726246187918    0.00786051040514   -3.31830410298459
C         0.38209226144922   -1.16053870638532   -3.31920368195299
Cl       -2.10164320402750    0.29560816463263    5.20503555308498
Cl       -0.35038014422036   -2.10950045285265    5.20088943521901
62
 energy: -137.558949593145 gnorm: 0.000542880831 xtb: 6.4.1 (a3dbbd7)
C        -1.32339472669969    0.00629962060397    3.59119212702770
C        -0.38926201440759   -1.27752503919585    3.58769979924187
C         0.98713058116358   -0.72682638555745    3.28544332326093
C         0.97043658808246    0.69419683336786    3.25734159426027
C        -0.37625573142584    1.14735469408121    3.29044066461540