108
 energy: -324.577532598460 gnorm: 0.000329062281 xtb: 6.4.1 (a3dbbd7)
C        -1.37314974372519    0.04048422453898    3.71578424637461
C        -0.43594770939349   -1.26626497322015    3.69427379262699
C         0.96824905039268   -0.72024553650515    3.36896034675129
C         1.06315771436183    0.77746073737955    3.56879002183303
C        -0.38867189908235    1.13587956788588    3.29921935987112
C         2.22763497525407   -2.55890923249437    0.61362868274607
C         3.37898227449209   -1.55941837468119    0.65079480309063
C         3.12002679042526   -0.76944807276684    1.99238716838194
C         1.83101165157620   -1.37641639751826    2.55530756242753
C         1.50791126275250   -2.52975116575488    1.77979313147444
C         3.13900570378490    1.40530511474456    0.55068584127599
C         2.33386174811510    2.59978590707618    0.53687350766045
C         1.70084222806057    2.76115551083912    1.91070221490348
C         1.93988064167399    1.38472299602784    2.50437374383902
C         2.82417110486731    0.68794882905005    1.76682654677330
C        -0.35661881893414    3.39482527264214    0.61107822271175
C        -1.74540830124178    2.97276632090432    0.61020253698765
C        -1.98818641206482    2.26268042653835    1.82515540679868
C        -0.72069440770050    2.20771337478558    2.55167499172995
C         0.23314197134409    2.98070937181795    1.78754324630477
C        -3.40162161314714    0.74578692755117    0.61908799481903
C        -3.34548155254628   -0.69962558039453    0.61414989440811
C        -2.75333948891906   -1.11173472221016    1.79058475958798
C        -2.69067602537040    0.01102193966944    2.81039526182256
C        -2.84099075710775    1.19198700620169    1.85295808987901
C        -1.65819681060350   -2.94134058579419    0.56031579443007
C        -0.41128591389829   -3.48439444686698    0.57485073711598
C         0.20890928541077   -3.23449371118218    1.94840526797776
C        -0.77675316009277   -2.27006386858604    2.60928281735811
C        -1.87014612130787   -2.19716436369687    1.80512292587102
C        -0.27872506023843   -3.02163913503366   -1.85865923270004
C         0.70518315659692   -2.27825225284951   -2.54827367872911
C         1.91444868986477   -2.29153901233606   -1.76485646020529
C         1.70991732592057   -3.03120402429637   -0.60150763293278
C         0.36820209600044   -3.75288052922670   -0.67678051069099
C         2.72919913942750   -1.13169560793793   -1.75287486361185
C         2.39492738862965    0.01208664123011   -2.57160638650914
C         3.07334900279118    1.24629346746598   -1.99612683898240
C         3.38552496864898    0.71940677349364   -0.59793064597864
C         3.32432583895613   -0.69475878117371   -0.58064562643968
C         2.14214672457231    2.52607589099609   -1.99974746401946
C         0.75105117884607    2.28662162926871   -2.58813024256069
C        -0.23175677413141    3.00843638474932   -1.79807457043666
C         0.36642941296146    3.43899623878150   -0.61396802095086
C         1.75027024751472    3.01304853649459   -0.60819313978911
C        -1.57353892952060    2.55667986768417   -1.80907323976693
C        -1.95585517885241    1.44821859417795   -2.55535059963266
C        -2.92947218326801    0.70835777600375   -1.81060024135937
C        -3.18329013278449    1.42963106116576   -0.57015212371316
C        -2.34090606118591    2.57461405552649   -0.57167206756366
C        -2.94254801688403   -0.67166735627125   -1.83179521640322
C        -1.93614146337136   -1.38598584529757   -2.60088944764849
C        -1.57595458646940   -2.55682858501543   -1.85565014357059
C        -2.33576480223658   -2.54324216870714   -0.62407642177282
C        -3.14288304106517   -1.40503372182768   -0.60765525648282
C        -0.98020931909676   -0.70216108363647   -3.32610512604942
C        -1.04855410108449    0.80187363241391   -3.56495204291291
C         0.40082896669845    1.21098361063279   -3.32014413766726
C         1.23735699769733    0.02098244700698   -3.28075005082921
C         0.36205612370632   -1.13231717999864   -3.27519916095115
C        -1.81506555804141    0.53515235395880    5.13599168443823
F        -0.80187473012758    0.77713899314528    5.95393073351638
F        -2.63216371732751   -0.28150686260430    5.78530433987377
F        -2.41867076309212    1.72193722419180    4.98382603675032
C        -0.42726649004287   -2.10886265203072    5.01306635863381
F        -0.22160403717256   -1.46723311326609    6.14925411370063
F        -1.57905026589487   -2.76897690002309    5.13510110189524
F         0.55816782341983   -3.00624436155161    4.92580047904844
C         0.58224546449733   -5.24751055295348   -1.04698149654313
F         0.89755056398266   -5.36423400724340   -2.34116354038033
F        -0.52081756272194   -5.96244829564741   -0.84474482773768
F         1.57807878121659   -5.80088369400269   -0.36279899454054
C         1.62593546110681    1.30750695186959    4.94845657919254
F         1.67489072855202    0.36752420595790    5.87520490464610
F         2.86571349967032    1.78092228844002    4.80237811666914
F         0.90433529664655    2.33177950510528    5.39270645959785
C         4.44464689323623    1.36757183161106   -2.72120194215181
F         5.09712326895509    0.20221538438999   -2.61392021003363
F         4.33065347251627    1.60412042621385   -4.02399413114834
F         5.24400480118996    2.28584578000149   -2.19081214807513
C         4.68681168869230   -2.40596712381978    0.52832644472249
F         4.65966810184695   -3.50330333862109    1.27827656755197
F         4.81382825114094   -2.83044081917070   -0.73411748740369
F         5.78148075028782   -1.71483536722991    0.81715707151622
C         4.24252710694917   -0.85966889004533    3.06221633262088
F         4.70264219851169   -2.08837636170888    3.25391628816111
F         5.26888920097456   -0.06953987274014    2.76246908642280
F         3.76466597871360   -0.45956783470707    4.24215335150919
C         2.69274733234904    3.77753727318936   -2.74493324481368
F         1.79414571788813    4.76844762492991   -2.66376853847490
F         2.88763632640629    3.56891512234582   -4.04329461888623
F         3.81332698805693    4.25591568531076   -2.21713347395763
C         2.40645856060802    3.93577817289926    2.64123682878087
F         3.70073698654667    3.69240976187650    2.81831501803978
F         2.30168802548054    5.04352281974318    1.90093705123662
F         1.86526139407763    4.20472264674667    3.82303927587055
C        -4.06702533794367   -0.21492174760578    3.54304795365957
F        -5.04476967060815   -0.25012962112384    2.62500228116438
F        -4.08795908627197   -1.40003091256462    4.15002360828236
F        -4.45614646381207    0.71109387621155    4.40500389590616
C        -1.49301264247530    1.13187254056777   -5.00763947043073
F        -0.69725558791463    0.56019165853911   -5.91031237246500
F        -2.73454984038428    0.70104890215223   -5.23824827633862
F        -1.47696728526501    2.44625501919225   -5.23017813171242
C         0.36479845749261   -4.60771409862340    2.69265383773170
F        -0.63151113874070   -4.82086228365755    3.54475553798309
F         0.33744459066804   -5.62440238130241    1.83205896180411
F         1.51549074472272   -4.69468790769174    3.34557552121308
