108
 energy: -316.207803463773 gnorm: 4.545540806034 xtb: 6.4.1 (a3dbbd7)
C        -1.23626340000000    0.00000000000000    3.32997640000000
C        -0.38202640000000   -1.17575640000000    3.32997640000000
C         1.00015810000000   -0.72665740000000    3.32997640000000
C         1.00015810000000    0.72665740000000    3.32997640000000
C        -0.38202640000000    1.17575640000000    3.32997640000000
C         2.34433560000000   -2.60145750000000    0.59464210000000
C         3.19857260000000   -1.42570110000000    0.59464210000000
C         2.96246730000000   -0.69904370000000    1.83090550000000
C         1.96230920000000   -1.42570110000000    2.59495830000000
C         1.58028280000000   -2.60145750000000    1.83090550000000
C         3.19857260000000    1.42570110000000    0.59464210000000
C         2.34433560000000    2.60145750000000    0.59464210000000
C         1.58028280000000    2.60145750000000    1.83090550000000
C         1.96230920000000    1.42570110000000    2.59495830000000
C         2.96246730000000    0.69904370000000    1.83090550000000
C        -0.36750900000000    3.48258920000000    0.59464210000000
C        -1.74969350000000    3.03349030000000    0.59464210000000
C        -1.98579880000000    2.30683290000000    1.83090550000000
C        -0.74953540000000    2.30683290000000    2.59495830000000
C         0.25062270000000    3.03349030000000    1.83090550000000
C        -3.42570570000000    0.72665740000000    0.59464210000000
C        -3.42570570000000   -0.72665740000000    0.59464210000000
C        -2.80757400000000   -1.17575640000000    1.83090550000000
C        -2.42554760000000    0.00000000000000    2.59495830000000
C        -2.80757400000000    1.17575640000000    1.83090550000000
C        -1.74969350000000   -3.03349030000000    0.59464210000000
C        -0.36750900000000   -3.48258920000000    0.59464210000000
C         0.25062270000000   -3.03349030000000    1.83090550000000
C        -0.74953540000000   -2.30683290000000    2.59495830000000
C        -1.98579880000000   -2.30683290000000    1.83090550000000
C        -0.25062270000000   -3.03349030000000   -1.83090550000000
C         0.74953540000000   -2.30683290000000   -2.59495830000000
C         1.98579880000000   -2.30683290000000   -1.83090550000000
C         1.74969350000000   -3.03349030000000   -0.59464210000000
C         0.36750900000000   -3.48258920000000   -0.59464210000000
C         2.80757400000000   -1.17575640000000   -1.83090550000000
C         2.42554760000000    0.00000000000000   -2.59495830000000
C         2.80757400000000    1.17575640000000   -1.83090550000000
C         3.42570570000000    0.72665740000000   -0.59464210000000
C         3.42570570000000   -0.72665740000000   -0.59464210000000
C         1.98579880000000    2.30683290000000   -1.83090550000000
C         0.74953540000000    2.30683290000000   -2.59495830000000
C        -0.25062270000000    3.03349030000000   -1.83090550000000
C         0.36750900000000    3.48258920000000   -0.59464210000000
C         1.74969350000000    3.03349030000000   -0.59464210000000
C        -1.58028280000000    2.60145750000000   -1.83090550000000
C        -1.96230920000000    1.42570110000000   -2.59495830000000
C        -2.96246730000000    0.69904370000000   -1.83090550000000
C        -3.19857260000000    1.42570110000000   -0.59464210000000
C        -2.34433560000000    2.60145750000000   -0.59464210000000
C        -2.96246730000000   -0.69904370000000   -1.83090550000000
C        -1.96230920000000   -1.42570110000000   -2.59495830000000
C        -1.58028280000000   -2.60145750000000   -1.83090550000000
C        -2.34433560000000   -2.60145750000000   -0.59464210000000
C        -3.19857260000000   -1.42570110000000   -0.59464210000000
C        -1.00015810000000   -0.72665740000000   -3.32997640000000
C        -1.00015810000000    0.72665740000000   -3.32997640000000
C         0.38202640000000    1.17575640000000   -3.32997640000000
C         1.23626340000000    0.00000000000000   -3.32997640000000
C         0.38202640000000   -1.17575640000000   -3.32997640000000
C        -1.76086815247998    0.00000000000000    4.78849957557021
F        -0.76911826531252    0.00000000000000    5.67468926254662
F        -2.50968386795825   -1.06794314680471    5.04863888333743
F        -2.50968386795825    1.06794314680471    5.04863888333743
C        -0.54413818249354   -1.67468516033722    4.78849957845317
F        -0.23767107904745   -0.73147481112462    5.67468925997942
F        -1.79120914301982   -2.05683909935453    5.04863874564184
F         0.24013968171955   -2.71686350152345    5.04863903502921
C         0.53602450593361   -4.99908416128281   -0.86730591619822
F         1.22448605650957   -5.23152837615597   -1.98125850960180
F        -0.63540201352706   -5.61404743764837   -1.00324736766175
F         1.18149064144157   -5.61404773804446    0.11965571789346
C         1.42457227037960    1.03501233722714    4.78849957248258
F         0.62223011468481    0.45207589682711    5.67468926529602
F         2.65809836182651    0.61117154425495    5.04863869666891
F         1.40265511061956    2.33913928186680    5.04863905501621
C         4.03961820246674    1.67468514775899   -2.62817407948106
F         4.96930660042402    0.73147479244129   -2.75037763231441
F         3.71458666614022    2.05683907990832   -3.85992603200073
F         4.62303373288711    2.71686348978894   -2.04303253910982
C         4.58877084110522   -2.05459160147071    0.86730597290559
F         4.59709252483521   -2.78118520641283    1.98125951001435
F         4.97417519512416   -2.85850196315549   -0.11965482382298
F         5.53562669678859   -1.13053295630600    1.00324569798425
C         4.25247495652193   -1.01957928511255    2.62817407757680
F         4.45020405360863   -2.32910962270744    2.75037677428969
F         5.33704498641440   -0.51936149478958    2.04303305824604
F         4.21414295278388   -0.51936236815955    3.85992636334025
C         2.84103082519036    3.32439911178427   -2.62817407941587
F         2.23127406184888    4.50005340761388   -2.75037746012492
F         3.10404037880941    2.89718378306488   -3.85992609894427
F         4.01248672303643    3.55720929213525   -2.04303264409737
C         2.28376457660886    3.72927671755932    2.62817408867206
F         3.59030321655004    3.51265997057976    2.75037870097715
F         2.14318168460923    4.91533956626619    2.04303190988612
F         1.79618325340524    3.84739782561575    3.85992562899767
C        -3.49548004549360    0.00000000000000    3.71645041414084
F        -4.73163621497510    0.00000000000000    3.22571838476757
F        -3.39327517264965   -1.06794314680471    4.50254938956302
F        -3.39327517264965    1.06794314680471    4.50254938956303
C        -1.42457227037960    1.03501233722714   -4.78849957248258
F        -0.62223011468481    0.45207589682711   -5.67468926529602
F        -2.65809836182651    0.61117154425495   -5.04863869666891
F        -1.40265511061956    2.33913928186680   -5.04863905501621
C         0.34440953624153   -4.35941144868709    2.62817404748705
F        -0.83992598883967   -4.95213069234126    2.75037577510431
F         1.15529636597892   -5.23632261667420    2.04303359185445
F         0.80829780400759   -4.16837989546168    3.85992670963205
108
 energy: -318.616988834508 gnorm: 2.841290657836 xtb: 6.4.1 (a3dbbd7)
C        -1.22459380404513    0.00387064307280    3.31352922583507
C        -0.37680153503700   -1.17819049931983    3.32189958115064
C         1.00349094204397   -0.72905670168739    3.33345092391308
C         1.00056137380863    0.72671591736398    3.33121552140601
C        -0.38457082193715    1.17789872607714    3.33412931304506
C         2.33924257101017   -2.60347912335075    0.59498473019898
C         3.19903491067432   -1.42859159658775    0.58947768075683
C         2.95937145159002   -0.69786153273682    1.83354776152968
C         1.95705264456184   -1.43024916924690    2.59172295090051
C         1.58814837275544   -2.59403434561482    1.83283007158724
C         3.19531142624676    1.42855709902873    0.59678535301528
C         2.34707147086763    2.60044113798061    0.58951029970489
C         1.58613184388300    2.60446516956213    1.83192963418446
C         1.96811290736233    1.42261899416951    2.58762055795025
C         2.96148615846524    0.70897602573093    1.83128771794154
C        -0.36883135137891    3.48068786688307    0.59637298894096
C        -1.74908066392654    3.03326085266507    0.59466489190045
C        -1.98335622021618    2.30819128203663    1.83026216793490
C        -0.75065242667651    2.30992649298267    2.58879849936252
C         0.23926034540230    3.03300408963118    1.83118071843583
C        -3.42509376786712    0.72479252105011    0.59380813868268
C        -3.42531787853617   -0.72529750871625    0.59412987533574
C        -2.80961730585909   -1.17954881548308    1.82598254999236
C        -2.42532604791220    0.00106352301769    2.57812927059281
C        -2.80933156264444    1.17798029381402    1.82653558151674
C        -1.74545753082744   -3.03258100155906    0.59485704992552
C        -0.37701753122056   -3.48291946407772    0.59589445643230
C         0.24845910724725   -3.04174691342403    1.83247570785410
C        -0.75589778641690   -2.30612310509229    2.58986811327567
C        -1.98243713977149   -2.30761799126976    1.83005319930422
C        -0.25205205056904   -3.02707725679109   -1.83510498887833
C         0.74875504180077   -2.30700712671620   -2.59283852014046
C         1.98477591749995   -2.30846085499250   -1.82915766474292
C         1.75283617597538   -3.02692936825864   -0.59681046450903
C         0.36983563156783   -3.48741703452673   -0.59806251537711
C         2.80652864666451   -1.17410478561273   -1.82944095135561
C         2.42618184255067   -0.00441759612499   -2.59591562684264
C         2.80064845747507    1.16235227516556   -1.82247090022794
C         3.42856342271173    0.72468538474792   -0.59387299101941
C         3.42358020391463   -0.72421926870858   -0.60276870088558
C         1.97158714604890    2.30393342256750   -1.82350920435208
C         0.74574962522313    2.30893937398830   -2.59530687615221
C        -0.25008622863110    3.03419963384176   -1.82908489038614
C         0.36618140657008    3.48195236593466   -0.59616895506521
C         1.74650231243169    3.03540157248304   -0.59207163902390
C        -1.58156327221583    2.59893763759990   -1.83031510201955
C        -1.96710517297685    1.42991486434023   -2.58522171061067
C        -2.96085014361695    0.69966094892164   -1.82985365724115
C        -3.19802036613723    1.42628224134410   -0.59491740346170
C        -2.34460831855389    2.59946118996776   -0.59451988646420
C        -2.96207604835890   -0.69969070583008   -1.82999598681826
C        -1.96132842612387   -1.42616672678519   -2.59410171832939
C        -1.57992637726219   -2.60057404927738   -1.83050080294244
C        -2.34576497346162   -2.59995149018427   -0.59606718435288
C        -3.19683225959951   -1.42683476464098   -0.59611221109023
C        -0.99939868914915   -0.73305040887362   -3.33018945405076
C        -1.00002827130422    0.72704776315829   -3.33136271705848
C         0.38846481890339    1.17306955414758   -3.33214345630677
C         1.23238119365541    0.00063309777830   -3.33118366074940
C         0.38033042726394   -1.17491805056569   -3.32972627157574
C        -1.77369942108418   -0.00849716126390    4.72129074605695
F        -0.82203015658594    0.05041326664891    5.71645936149115
F        -2.56354155417334   -1.00458411909529    5.10170303173371
F        -2.48872569229624    1.12428776125610    5.10601198092323
C        -0.54183832547628   -1.69645716541512    4.76888153431419
F        -0.19678270480102   -0.81522702402469    5.70984835551241
F        -1.71109966265416   -2.20088086456947    5.05527122687231
F         0.24560756644479   -2.71688970332250    5.05631676548967
C         0.53599898782717   -4.99969880678201   -0.86834616983634
F         1.22594824369667   -5.23349783245091   -1.98318103522387
F        -0.63633698112382   -5.61588006099001   -1.00347568552402
F         1.18342261898889   -5.61781985653154    0.11333248840803
C         1.43468058595718    1.04259257166960    4.78097248145875
F         0.67663967534298    0.49012105904700    5.68909451588594
F         2.66126870725786    0.61169351259944    5.05124189575715
F         1.40154797074075    2.33728804469376    5.05541436332682
C         4.02709886776283    1.64792180545639   -2.60996358737285
F         4.97329341394520    0.73102466214626   -2.75252619114163
F         3.73777170597189    2.02503164154774   -3.90798567601956
F         4.67918487175005    2.70881915843485   -2.02229075795964
C         4.58851335936135   -2.04911970110106    0.84124304151989
F         4.61707731658515   -2.84607375964240    1.91559131269301
F         4.97596468551167   -2.86494051917107   -0.12574625708516
F         5.56803941385160   -1.20264555485817    0.87655608092857
C         4.24495407368089   -0.99387240803953    2.63408023382335
F         4.43988974973730   -2.30181052640670    2.84038329761329
F         5.32006768657336   -0.44226160234514    2.17024631595924
F         4.21399254069982   -0.51786509820056    3.86839924850019
C         2.80932835805315    3.31868707004236   -2.61407306585806
F         2.23222359007988    4.50444519184417   -2.75216932947027
F         3.07961806338906    2.92862057246053   -3.90564200199891
F         4.02435992889558    3.61513239644495   -2.02080808948573
C         2.28379789241714    3.72967837401230    2.62809435429471
F         3.59340755093126    3.51393074186542    2.75111704357218
F         2.14368402350110    4.91816982680847    2.04228446213681
F         1.79722823222511    3.85506748078712    3.85764359625614
C        -3.49414632661002    0.00845353962354    3.68001015339684
F        -4.73678357671272    0.00004888032021    3.22603861372734
F        -3.45873618701206   -1.08868771285101    4.49491015792556
F        -3.44912216969453    1.12590640080597    4.49278170032393
C        -1.42552055616396    1.03397070855655   -4.78857838263405
F        -0.62108762701527    0.45153550149830   -5.67772842981662
F        -2.65976172968719    0.61063694552500   -5.05019170325254
F        -1.40260288344200    2.34092440939494   -5.05035739701487
C         0.34337365407405   -4.36106105602751    2.62660481158432
F        -0.84148679716286   -4.95417834869398    2.75217500499098
F         1.15753495675483   -5.23739086007757    2.05119276045798
F         0.81228979033055   -4.17472561850841    3.85944564620118
108
 energy: -320.800799812571 gnorm: 2.711648219056 xtb: 6.4.1 (a3dbbd7)
C        -1.21553131150375    0.00814655149879    3.31102735384165
C        -0.36969744850800   -1.18326656622004    3.31727048430650
C         1.00779659203439   -0.73268285040983    3.32889130807176
C         1.00428257115215    0.72792972341005    3.34556605996630
C        -0.38636671718297    1.18253436750029    3.33097229484528
C         2.33050674470542   -2.60586816511035    0.59346482517036
C         3.20336294902830   -1.43453720750687    0.58486142702909
C         2.96541295294620   -0.69832518629675    1.84279902479764
C         1.94856278913505   -1.43582713388393    2.58552029978154
C         1.59777543289205   -2.58426090577676    1.82902571703184
C         3.19198665886804    1.42984231648894    0.59765819737122
C         2.34783355200664    2.59285714532812    0.58195248641171
C         1.59537134302276    2.61651537349966    1.83988897615030
C         1.97561691710911    1.41729930751067    2.57629078365767
C         2.95090210899474    0.72262786888321    1.82719420216137
C        -0.36985687421457    3.47883515781570    0.59802588155567
C        -1.74923896094659    3.03273661759545    0.59425442348951
C        -1.98155827163924    2.31037999515643    1.82859492877128
C        -0.74990420045451    2.31162456353784    2.57898411770693
C         0.22420122749220    3.03168217720366    1.82632643375749
C        -3.42340172127643    0.72310862809630    0.59327195676375
C        -3.42479619417639   -0.72352401583285    0.59380179933833
C        -2.81219648059012   -1.18407902838286    1.81803249713222
C        -2.43391433250435    0.00111454860523    2.56509609238080
C        -2.81023645405886    1.18195621480251    1.81831368560265
C        -1.73983239210005   -3.03104071420964    0.59416412147124
C        -0.39022947411698   -3.47311870610169    0.59725394399765
C         0.24602227645198   -3.05470646910677    1.84073435403099
C        -0.76538645132666   -2.30906900563238    2.58279130139476
C        -1.97768390004509   -2.30354127005924    1.82751531402880
C        -0.25379901729579   -3.01760255775899   -1.84120254888583
C         0.74754268322137   -2.30766480819514   -2.58990706084207
C         1.98325870169704   -2.30978102052038   -1.82797268233056
C         1.75605949238664   -3.01870827457416   -0.59808085155636
C         0.37278051967223   -3.50371438973209   -0.60451748348898
C         2.80432714314357   -1.17238534356335   -1.82710815518793
C         2.42447093285770   -0.01266231082332   -2.59717464212732
C         2.80393393130486    1.15198655378048   -1.81950897365339
C         3.42780812813838    0.72030026515505   -0.58935512489415
C         3.42248416442644   -0.72083910784268   -0.61441397400386
C         1.96421640332094    2.31329234350656   -1.82346766486852
C         0.73728014539545    2.30641738361775   -2.59342022424180
C        -0.24895083690523    3.03416396517494   -1.82674312342218
C         0.36473005790305    3.48091000402145   -0.59685607350336
C         1.74114347385733    3.03591847498760   -0.58512410966986
C        -1.58304166728912    2.59470692412129   -1.83027860720864
C        -1.97207467767385    1.43560121106007   -2.57276216118996
C        -2.95854739593375    0.70069991921334   -1.82764149442798
C        -3.19712707831547    1.42794907729982   -0.59547777114659
C        -2.34533662761436    2.59800640076936   -0.59296217784103
C        -2.96206485827290   -0.69967967470515   -1.82853022568531
C        -1.95958036854253   -1.42585486093634   -2.59266765709116
C        -1.58006455867075   -2.59822767905110   -1.82929289650858
C        -2.34788864987448   -2.59829386758798   -0.59880483486227
C        -3.19480544532709   -1.42786223361131   -0.59851089646022
C        -0.99593183784699   -0.74061796423540   -3.32156861462532
C        -1.00369279385909    0.72895516561951   -3.35168640597508
C         0.39582652450618    1.17133210029846   -3.32601263823835
C         1.22820530566943    0.00022951302575   -3.32795884091789
C         0.37922418768040   -1.17253648653251   -3.32916404194432
C        -1.77990238233803   -0.04168533454773    4.64954286285904
F        -0.85726698336641    0.09899922507149    5.77593600182052
F        -2.56193337884513   -0.96097247721982    5.17224537314854
F        -2.40174573864288    1.17814623112964    5.20555423592743
C        -0.54576540502358   -1.71495545833929    4.74629653057997
F        -0.17279227154193   -0.87098284109593    5.74450566435451
F        -1.67180301383249   -2.27132506996402    5.06198223205585
F         0.24862966877485   -2.71174218900245    5.06474657302085
C         0.53550893061250   -5.00244309874935   -0.87062124287590
F         1.22726464472439   -5.23592640222934   -1.98625489311246
F        -0.63810010954795   -5.61786361143281   -1.00417903960781
F         1.18559748765330   -5.62294193297682    0.10391926539503
C         1.44624264867023    1.05158965378489    4.77420886596881
F         0.73540148130616    0.53051372112586    5.70396091043303
F         2.66634171159263    0.61151268632757    5.05414291030470
F         1.40062836055334    2.33448891802910    5.06444362393520
C         4.02045955918059    1.61712469977305   -2.58921944238486
F         4.98040483492752    0.72719607049961   -2.75600415957294
F         3.80433138737971    1.93697403742077   -3.95357610309413
F         4.77158915948727    2.63772817751308   -2.00517413085626
C         4.58754086255825   -2.03413987918988    0.81427495159579
F         4.63235155254670   -2.89840309232204    1.88973121807429
F         4.97557592372797   -2.86955005308865   -0.12818880513617
F         5.58812792133793   -1.23130495722510    0.82474702119711
C         4.23917488533813   -0.96426141730125    2.63339517507722
F         4.43762111550059   -2.30147404165601    2.89864795288220
F         5.31884951381470   -0.41027383224720    2.22290757425825
F         4.21442058404564   -0.51976900845065    3.87208152626813
C         2.77334124091482    3.31783441700643   -2.60189702075346
F         2.23222365421921    4.51271118314948   -2.75380571827060
F         3.01326647294632    3.01686741947420   -3.94427140841629
F         3.99268744335348    3.73099766214503   -2.00049187527576
C         2.28509510459313    3.73212696778121    2.62930660587655
F         3.59741923259639    3.51485540794388    2.75217263596198
F         2.14476806050626    4.92125497290790    2.04144968022511
F         1.79926708240620    3.86554033841823    3.85425106810313
C        -3.49057407590438    0.01752494145367    3.63578891644305
F        -4.74288402638269   -0.00221660462051    3.22688023619302
F        -3.54979623039471   -1.14660586642594    4.46975307196144
F        -3.56790016922919    1.16155392111111    4.44342014929731
C        -1.42757942366128    1.03397186670060   -4.79192876990606
F        -0.61998353059532    0.45138128109497   -5.68121671648113
F        -2.66215727473242    0.61055569499342   -5.05210045770121
F        -1.40256387794244    2.34357876239678   -5.05210607314745
C         0.34139533270809   -4.36469831160343    2.62513274527296
F        -0.84384340533165   -4.95679996903227    2.75409316172824
F         1.16033537676564   -5.23897441786183    2.06200248276261
F         0.81766070420279   -4.18395957693502    3.85785354241112
108
 energy: -322.568598476503 gnorm: 1.422917389241 xtb: 6.4.1 (a3dbbd7)
C        -1.21346032093083    0.01334468025538    3.32135153562264
C        -0.36508514519526   -1.18823778119497    3.32311269361723
C         1.01298641472879   -0.73613993753868    3.32251041842433
C         1.00845573540880    0.72976361884317    3.36057621380137
C        -0.38750038059502    1.19047768742058    3.32411290600963
C         2.31996969268903   -2.60765425789235    0.59314210904558
C         3.21459974739952   -1.44376874756948    0.58435624407573
C         2.97598724390057   -0.70126751517154    1.85475964488507
C         1.93758003605033   -1.43923532562220    2.58027160826499
C         1.60715501087537   -2.57508497381411    1.82527572562515
C         3.19068762490195    1.43007143571762    0.59679289042512
C         2.34738257644258    2.58839825575734    0.57253876829156
C         1.60525546581203    2.62799802159914    1.84736099887122
C         1.98390279558916    1.40993017170442    2.56178924736469
C         2.94013525605842    0.73661175039443    1.82575047604790
C        -0.36961093024470    3.47641540382690    0.60156004583762
C        -1.75043278768089    3.03177008189862    0.59412398456184
C        -1.98253844852630    2.31019880194969    1.82616307136722
C        -0.74709927193912    2.31078313040502    2.57370843089249
C         0.21040939977978    3.03087390620663    1.82190670128494
C        -3.42156579020771    0.72277799997180    0.59360767297599
C        -3.42279400173341   -0.72310907209996    0.59536206940806
C        -2.81407581232105   -1.18880258026035    1.80878685965341
C        -2.45081740023032    0.00025630066417    2.56725556305891
C        -2.80898096183888    1.18810801900346    1.80867396620798
C        -1.73413018773837   -3.03108695279119    0.59362518772499
C        -0.40288205476338   -3.46479225651444    0.59812631739740
C         0.24378722535143   -3.06760031068409    1.84786523991516
C        -0.77535698829460   -2.31061506211638    2.57419222620004
C        -1.97257513620910   -2.30062329415370    1.82637743884864
C        -0.25540017035453   -3.00870341435655   -1.84645775834055
C         0.74643830046087   -2.30867237607494   -2.58692729414919
C         1.98130961294504   -2.31077301573026   -1.82668203434016
C         1.75971585604024   -3.01049114126738   -0.59859956312860
C         0.37581416854550   -3.51895660928612   -0.61020803631377
C         2.80207848726566   -1.16922502124695   -1.82685957895868
C         2.41858873485225   -0.02224001431647   -2.59781440828360
C         2.82117689481535    1.15011513372489   -1.82779277774944
C         3.42460784808906    0.71247350491053   -0.58031321141647
C         3.41921805349232   -0.71230810467292   -0.62509564333577
C         1.96875945250318    2.33126719911374   -1.83198909826960
C         0.72654602041854    2.30130240759834   -2.59299307588658
C        -0.24740920793351    3.03361826495143   -1.82486693965111
C         0.36452514254512    3.47944294643086   -0.59824231712552
C         1.73544665555651    3.03488333006761   -0.57561655125007
C        -1.58496673953642    2.59117848391140   -1.83088196955148
C        -1.97660854227626    1.44068926683695   -2.55947405069656
C        -2.95671571817592    0.70184276806736   -1.82682911070000
C        -3.19627165626000    1.42927134616309   -0.59573354691501
C        -2.34579036026979    2.59675657522526   -0.59137226954696
C        -2.96178534697704   -0.69999645241910   -1.82704895502712
C        -1.95822792045759   -1.42564669994409   -2.59181631787657
C        -1.58017786251168   -2.59654538840346   -1.82826867508444
C        -2.34982247541501   -2.59644048613167   -0.60116806560684
C        -3.19289084960286   -1.42926704000423   -0.60097281872211
C        -0.99244317872700   -0.74795629357695   -3.31544132072294
C        -1.00647284191289    0.73088163605886   -3.36859041351407
C         0.40264809803757    1.17275640964186   -3.31897599962848
C         1.22732838353662   -0.00100576872827   -3.32587075085302
C         0.37737766864377   -1.17022056343561   -3.32936114835551
C        -1.79435106424280   -0.05719751992002    4.60597784699796
F        -0.91136724222130    0.17196838872857    5.83604616358427
F        -2.50540147999537   -0.87763612508458    5.26406363413760
F        -2.28236227447212    1.19917607895302    5.29648927781502
C        -0.54634757048743   -1.73762237458656    4.72801953202627
F        -0.13636967629478   -0.95636514730954    5.76624168463510
F        -1.62907084592961   -2.33658749483250    5.06243554530082
F         0.25432359364915   -2.70892038352605    5.07003338486434
C         0.53533749591054   -5.00589273932501   -0.87238838193777
F         1.22814496680274   -5.23726513907794   -1.98835491101966
F        -0.63949300394053   -5.61894897351909   -1.00455674288800
F         1.18701752764873   -5.62648853267758    0.09547943806830
C         1.45401426675004    1.05872994113356    4.77031418161244
F         0.78801166463671    0.56453734663316    5.71262371197429
F         2.67009814053766    0.61151235970664    5.05520107145502
F         1.39951571539802    2.33164892998168    5.07079300044241
C         4.02639785069011    1.59972500786806   -2.58348595827842
F         4.98404508957703    0.72046623051636   -2.75584008657706
F         3.89204274116763    1.81905970768431   -3.96612206284164
F         4.86290803227086    2.52166036443680   -2.00308737877068
C         4.58764808743681   -2.02507229280473    0.78675164030508
F         4.65493494367747   -2.97431320832931    1.81139562697392
F         4.97436940001698   -2.87537064681591   -0.13475314146727
F         5.60590493576628   -1.26125751947742    0.76967505105087
C         4.23327715468388   -0.93664693997822    2.63817310286594
F         4.42406047299650   -2.26706575432845    3.00261129858319
F         5.31488523146698   -0.37601709470928    2.27746969138517
F         4.21239632711136   -0.51873770006477    3.87837534836575
C         2.75688840358899    3.32781819977791   -2.59927368425171
F         2.22753918591178    4.51809374616132   -2.75309313040764
F         2.92704229292406    3.13560975371267   -3.95144534240638
F         3.91589277014256    3.85763733239631   -1.99553527968057
C         2.28686574680862    3.73545849362940    2.63112886943722
F         3.59985230153266    3.51509129969828    2.75269343001682
F         2.14515538673894    4.92291331138352    2.04066398442557
F         1.80095072652997    3.87414492288662    3.85015813612265
C        -3.50282655755590    0.03005475879713    3.61160851428406
F        -4.74799685676687   -0.00287919262179    3.22253899291658
F        -3.67402085879532   -1.18891520606427    4.39818743735870
F        -3.69281447320499    1.16387839312971    4.36725428794990
C        -1.42903768739923    1.03446528300542   -4.79523847053954
F        -0.61947112201413    0.45112750385159   -5.68290571419471
F        -2.66351833787175    0.61037454211247   -5.05284015375500
F        -1.40263430386424    2.34510664477500   -5.05282092644496
C         0.34004312686002   -4.36874489072102    2.62466348390609
F        -0.84542463226625   -4.95823586934959    2.75518715400802
F         1.16209758913072   -5.23918211890211    2.07134248011314
F         0.82198125966922   -4.19154689011687    3.85508305178974
108
 energy: -323.212485574859 gnorm: 0.835203841739 xtb: 6.4.1 (a3dbbd7)
C        -1.21653768711166    0.01701684996198    3.33989813885806
C        -0.36372937882507   -1.19991315908579    3.34971825714595
C         1.01958746304038   -0.73949881742548    3.30312460937527
C         1.01806517206213    0.73422852056702    3.38445582765224
C        -0.38298575624074    1.20213681925853    3.30248714111004
C         2.30480302888281   -2.60186244123626    0.59514356563643
C         3.23940737452915   -1.45571619277196    0.58836317451341
C         3.00127908822303   -0.70509864614971    1.87077366039021
C         1.92371418037311   -1.43256474444503    2.56907804816499
C         1.61068207465007   -2.56965592156689    1.81260894739288