63
 energy: -142.110685189797 gnorm: 0.000119869335 xtb: 6.4.1 (a3dbbd7)
C        -1.30052812159501    0.00883822290249    3.54934250780835
C        -0.37384126099926   -1.16849285258457    3.30829927915483
C         0.97766902114639   -0.71792739771576    3.27468244716512
C         0.97727083012522    0.72332649597974    3.27263658750833
C        -0.37445451603013    1.18322865983870    3.30438481132740
C         2.32263906569357   -2.58148715020076    0.57358095148559
C         3.18917043796053   -1.41623062732100    0.58204556898265
C         2.94468024382244   -0.69577109701747    1.79544607522464
C         1.94480098071427   -1.41207408706811    2.55063313358905
C         1.56820288794497   -2.57097931841776    1.79941634529586
C         3.18425546939305    1.42036007702540    0.58128024212277
C         2.33563059483431    2.58527394469549    0.58156945543862
C         1.57325177770206    2.57316795316322    1.80453105124069
C         1.94999641278323    1.41182232772823    2.55396656657961
C         2.94824188998185    0.69660216059482    1.80529376400431
C        -0.36877564626682    3.43238572330606    0.58334234729320
C        -1.73337002686513    3.02134764632536    0.58712846660967
C        -2.09824935704362    2.46660482124100    1.95090877871744
C        -0.73450043838237    2.29059745693651    2.58638726548889
C         0.24472445337577    2.98162615815433    1.80745325886040
C        -3.38108738431077    0.70784863786410    0.58053120526859
C        -3.39823446510516   -0.72726650920697    0.57399458597149
C        -2.77622894110031   -1.15831407556817    1.79495587343129
C        -2.39533874173544    0.02950836598656    2.53816049396976
C        -2.75373931263004    1.13517891755754    1.81925962140743
C        -1.74033311973950   -3.00235903688602    0.58431152978623
C        -0.36707069903879   -3.43641354370624    0.58831273568162
C         0.24211374068578   -2.99050348073152    1.80884329821978
C        -0.73846381047369   -2.27048657979655    2.57223774072607
C        -1.98028064120968   -2.28310396044861    1.80546044535434
C        -0.23971494835425   -2.99020073908810   -1.82141041239636
C         0.74144477151636   -2.30038962072473   -2.59301397149214
C         2.10003468759267   -2.45616332515316   -1.94813238286954
C         1.74089402261964   -3.02381860602203   -0.59366555088686
C         0.37375918933372   -3.42975437368286   -0.59140163767634
C         2.80381547023906   -1.15399130916527   -1.82724468589515
C         2.40778290795695   -0.00815202066138   -2.56438523972810
C         2.79238972463040    1.17196198306341   -1.81995673447184
C         3.40529553580635    0.72834181189326   -0.60052936856092
C         3.39015700701850   -0.71940061824763   -0.60989577086736
C         1.97918193967624    2.29588724559975   -1.82394478477811
C         0.75086629292200    2.29346590276033   -2.58140341146373
C        -0.23754841520669    3.00760124184998   -1.81996168839360
C         0.36976673248649    3.45030142778277   -0.59768798068497
C         1.74421369222135    3.01401461490691   -0.59841959887661
C        -1.55940504138141    2.57150145855780   -1.80540107787637
C        -1.94060586221454    1.40741505834820   -2.56557472525991
C        -2.94034006786483    0.68773546466313   -1.81643267268964
C        -3.17308131352743    1.40177457634325   -0.59150743829226
C        -2.30745508097006    2.57676200328932   -0.58105151590986
C        -2.95156141091452   -0.70394241010804   -1.82970007609113
C        -1.95296795706828   -1.42150102779665   -2.58353570612785
C        -1.57136894537336   -2.58176306421104   -1.82666831221141
C        -2.33404974879173   -2.58593480000341   -0.60413987785542
C        -3.18708789638188   -1.42765822100622   -0.60912591033638
C        -0.98876052835166   -0.72524779337102   -3.29822433160732
C        -0.98673387232612    0.71495690094061   -3.29624819245963
C         0.38709720147179    1.15905541074849   -3.30295918398132
C         1.23029361711948    0.00110076764349   -3.31389834998439
C         0.38079786698354   -1.17338188850602   -3.29799481038639
Cl       -1.95693434999702   -0.00309890361512    5.23844581481364
Cl       -3.13930584966652    3.62738655813423    2.87853196036003
Cl        3.12821564368098   -3.65262661420354   -2.89480562531718
