63
 energy: -142.080478764386 gnorm: 0.135271227408 xtb: 6.4.1 (a3dbbd7)
C        -1.29585809770389    0.00401118895665    3.54517689253707
C        -0.36796043462932   -1.17243305037605    3.30515820978008
C         0.98298838983527   -0.72191219207564    3.27512267938171
C         0.98156472667820    0.71960753568128    3.26971969810914
C        -0.37066843460465    1.17924059903467    3.30150764336582
C         2.33648296603916   -2.58548060331365    0.57950289353032
C         3.18657767574002   -1.41946403927647    0.57781419519059
C         2.94957050639235   -0.69854930596759    1.80123308070154
C         1.95308396824160   -1.41752165468763    2.55613481575760
C         1.57961582989334   -2.57968580837377    1.80518673242103
C         3.18767024140451    1.40991878522763    0.57593180000620
C         2.33807592116844    2.57402574447607    0.57591940981122
C         1.57683795432701    2.56605672107525    1.79975339071644
C         1.95304946465436    1.40835201077487    2.55205927518980
C         2.95072023087345    0.68875745016373    1.80098024572921
C        -0.36516779407368    3.42666371337356    0.57921714423118
C        -1.72924376763824    3.01648005769000    0.58287705261872
C        -2.09463355992581    2.46231283092052    1.94730853815858
C        -0.73027134402217    2.28553619303067    2.58224921102021
C         0.24829448349984    2.97593693112150    1.80334175266563
C        -3.37466967425340    0.70300551354290    0.57574930054980
C        -3.39003092747716   -0.73268815647906    0.56838248265369
C        -2.76818811332164   -1.16356142379097    1.78871572221350
C        -2.38904763706855    0.02437925876362    2.53264263719760
C        -2.74834472563595    1.12995086275151    1.81420011519069
C        -1.73481952350512   -3.00995345714269    0.57938225060336
C        -0.36149853481650   -3.44686666227317    0.58178847315895
C         0.25217194581416   -2.99475012292755    1.80551621994623
C        -0.72930832442940   -2.27346636839910    2.56467955448571
C        -1.97147545426586   -2.28746259170963    1.79868366133100
C        -0.24419850626392   -3.01431906333444   -1.82647673840836
C         0.74940205407495   -2.29291975825760   -2.58286291053874
C         1.97453700933417   -2.29239152843074   -1.82543977586922
C         1.74139873400736   -3.01127177410490   -0.59946235558356
C         0.36858334367966   -3.45436466613801   -0.59762914044760
C         2.79442417392884   -1.17031401259636   -1.82833550603033
C         2.41574661888024   -0.00512369156855   -2.58546959716668
C         2.79806943075341    1.16104826420258   -1.83045397172065
C         3.41356646771945    0.71553904943849   -0.60565027142670
C         3.41126633561149   -0.72579612454708   -0.60436594395851
C         1.98256115248497    2.28538932455247   -1.82964816243281
C         0.75350030257848    2.28551308199782   -2.58573232036207
C        -0.23508280213456    3.00436687409655   -1.82344140492918
C         0.37359850932028    3.44286488622179   -0.60220138863872
C         1.74684322376492    3.00246743943424   -0.60372642363492
C        -1.55566653231806    2.56818250386052   -1.80941223575869
C        -1.93859434646944    1.40592010794080   -2.57168095880615
C        -2.93551210457882    0.68461262535792   -1.82146846772098
C        -3.16898901542976    1.39767486975662   -0.59605965548237
C        -2.30435127723071    2.57332623923171   -0.58497549467516
C        -2.94114405309208   -0.70773319324488   -1.83440725641731
C        -1.94505174577217   -1.42387954875747   -2.59102123506710
C        -1.56548890447542   -2.59170746585215   -1.83211639425372
C        -2.32839595515909   -2.59312664323360   -0.60918315818311
C        -3.17773883494341   -1.43218193772331   -0.61434027474195
C        -0.98775846759569   -0.72638522820754   -3.31322849837523
C        -0.98659864719709    0.71557045430270   -3.30737103326374
C         0.38544609985482    1.16109326139683   -3.31071431261235
C         1.23106807703669   -0.00470839638716   -3.31198800126459
C         0.38446650889097   -1.17000629330740   -3.31255499443923
Cl       -1.95494402230001   -0.00808767739961    5.23350834621500
Cl       -3.13453400437008    3.62205440029917    2.87428256883422
Cl        2.97128955874220   -3.48320139520211   -2.75525492763249
63
 energy: -142.104420264398 gnorm: 0.057554363638 xtb: 6.4.1 (a3dbbd7)
C        -1.29685405124438    0.00495667233918    3.54620686594106
C        -0.36971469969135   -1.17180468736997    3.30626394601145
C         0.98132408332429   -0.72115689122693    3.27532822301978
C         0.98071733601204    0.72026624979239    3.27035513764231
C        -0.37131975307113    1.17972195452039    3.30187268012202
C         2.32474348732993   -2.57871572756657    0.58331008868124
C         3.18420213749088   -1.41444331946188    0.57959644076743
C         2.94807461204989   -0.69716858691005    1.80031579758684
C         1.95083930919869   -1.41679382807638    2.55629172134146
C         1.57546359696656   -2.58065638643842    1.81068206266947
C         3.18917412762797    1.41780769330742    0.57949373079806
C         2.33737316556540    2.57976628288193    0.57837918362052
C         1.57573291936050    2.56866568067824    1.80147474900894
C         1.95265563342344    1.40975504775724    2.55261594525615
C         2.95116307071244    0.69292909958139    1.80265350290761
C        -0.36618150710522    3.42812624468545    0.58033400558573
C        -1.73025900503375    3.01735477346212    0.58373066796489
C        -2.09536354625003    2.46313788040012    1.94799319235413
C        -0.73127828967119    2.28643461695952    2.58310611671693
C         0.24725554441325    2.97744036937401    1.80438711322483
C        -3.37603023868583    0.70410456437798    0.57675581089586
C        -3.39246177612155   -0.73120495449647    0.57002143454860
C        -2.77053216980954   -1.16207164913096    1.79053631361405
C        -2.39026104340548    0.02553803976157    2.53392937296722
C        -2.74927405883516    1.13106956890030    1.81524657531158
C        -1.73927864932085   -3.00912071798847    0.58228710524916
C        -0.36676148272369   -3.44700264321467    0.58887875769494
C         0.24730880071205   -2.99716858175028    1.81059569202186
C        -0.73309655794532   -2.27317573232971    2.56774023105441
C        -1.97521502517501   -2.28688519220249    1.80166019615671
C        -0.24869871439538   -3.00485328003967   -1.82179674602578
C         0.73426706821743   -2.28770517509291   -2.58045942721163
C         2.03383890695400   -2.36540878175165   -1.88170651217947
C         1.73114448635403   -3.00953682079491   -0.58696220389777
C         0.36469223920358   -3.44519230371984   -0.59173429682529
C         2.81409997606402   -1.15423346129343   -1.83237223175165
C         2.41379800715792    0.00303510781940   -2.57367907793736
C         2.80148910980153    1.17390367048313   -1.82641875726007
C         3.41621769094306    0.72893665888184   -0.60318470740251
C         3.40365562692322   -0.71360083045607   -0.60399924206258
C         1.98303293809018    2.29414658418949   -1.82817461295552
C         0.75366140832174    2.28984699644461   -2.58449915982238
C        -0.23543535016781    3.00577836474570   -1.82266979241096
C         0.37229484778827    3.44559742041908   -0.60079406511084
C         1.74613176979616    3.00828829556354   -0.60133338916624
C        -1.55649609913395    2.56874572004165   -1.80875533747875
C        -1.93961816631529    1.40615806467072   -2.57032415928126
C        -2.93715366269131    0.68506079021313   -1.82041471747021
C        -3.16986505917896    1.39843311547478   -0.59514707027414
C        -2.30490940089565    2.57378527469233   -0.58440773414325
C        -2.94561486824743   -0.70699864238695   -1.83291772971455
C        -1.95243843201103   -1.42450353022764   -2.59120035596330
C        -1.57401377297455   -2.58951036945886   -1.83179593936972
C        -2.33331341043653   -2.59213926380872   -0.60699237542377
C        -3.18216817488155   -1.43132252413766   -0.61271894836953
C        -0.99461303264458   -0.72535183048495   -3.31335594213845
C        -0.98798498844481    0.71561674064226   -3.30553275332497
C         0.38552923889775    1.16131731397331   -3.30845156505816
C         1.22960064570134   -0.00021735592418   -3.30838430119210
C         0.37598537194534   -1.16556475825704   -3.30220882762448
Cl       -1.95532715846184   -0.00772665740387    5.23459314777950
Cl       -3.13580306113386    3.62279964031589    2.87510669856416
Cl        3.04910438828007   -3.58874507035979   -2.83229734477257
63
 energy: -142.110245859823 gnorm: 0.012975516473 xtb: 6.4.1 (a3dbbd7)
C        -1.29895723170242    0.00723963827075    3.54780247122128
C        -0.37222705803997   -1.17000109546128    3.30793554549333
C         0.97901467508564   -0.71901246749649    3.27548978710362
C         0.97847233059429    0.72240668559485    3.27170274450834
C        -0.37331291329912    1.18190750796754    3.30330878450874
C         2.32033782007111   -2.57788375317570    0.57809819213204
C         3.18542955355635   -1.41388910374353    0.57983118851762
C         2.94499016993811   -0.69565317956106    1.79650115070274
C         1.94742190437379   -1.41387637703973    2.55405179136075
C         1.57086965980456   -2.57497670802032    1.80600402571486
C         3.18643506299704    1.42116009660423    0.58129446116688
C         2.33619120698030    2.58482236061195    0.58094997653867
C         1.57372670505568    2.57214226492127    1.80364196339396
C         1.95082809785721    1.41169894680442    2.55349023071895
C         2.94941445792654    0.69640639859004    1.80418382190592
C        -0.36819691938046    3.43104549319548    0.58256874426467
C        -1.73239127154205    3.01988254845821    0.58600829849757
C        -2.09738603006260    2.46525846607960    1.94989017398105
C        -0.73354241266300    2.28914654093584    2.58526804315411
C         0.24520288259920    2.98034923058608    1.80652203396269
C        -3.37880206786964    0.70637085559826    0.57895755127279
C        -3.39577551494427   -0.72869656036499    0.57246738350181
C        -2.77382583883888   -1.15952851870861    1.79306063000469
C        -2.39313952475900    0.02802632159180    2.53631365418910
C        -2.75191311901492    1.13355588637820    1.81762854976392
C        -1.74094644281893   -3.00597746323725    0.58401959732729
C        -0.36765554661296   -3.44171950987057    0.59055255309909
C         0.24348216211059   -2.99383151576715    1.81063697906007
C        -0.73672828940929   -2.27183962117560    2.57088128003038
C        -1.97858770409170   -2.28466411263488    1.80404095289324
C        -0.24415336887270   -2.99408617808184   -1.82032004014585
C         0.73392306130129   -2.29130315207171   -2.58449477316362
C         2.08331381987635   -2.43065158757058   -1.93032510008408
C         1.73259500590089   -3.01429214039389   -0.58700391606603
C         0.36921509348984   -3.43388983072787   -0.59038628585043
C         2.81419255451903   -1.14995158599244   -1.83092615163904
C         2.41027181442768   -0.00118321262744   -2.56535106937914
C         2.79754133348337    1.17559862101316   -1.82227563569035
C         3.41121610871459    0.73147304142487   -0.60133210391190
C         3.39429241697811   -0.71357221024567   -0.60752600758937
C         1.98075950840212    2.29708494154820   -1.82519960395897
C         0.75231134595868    2.29297607544721   -2.58201526113663
C        -0.23673859439339    3.00743727168224   -1.82061683208348
C         0.37037802927202    3.44909004726056   -0.59835239854322
C         1.74484059912628    3.01344565251020   -0.59892092794941
C        -1.55826728014212    2.57057059599605   -1.80649505140033
C        -1.94061516647392    1.40731019873631   -2.56752683967749
C        -2.93946657660679    0.68668499892023   -1.81833044696847
C        -3.17153958586404    1.40032568558057   -0.59294410335911
C        -2.30640705869211    2.57556481054592   -0.58228040060630
C        -2.94981243836363   -0.70524996112724   -1.83099885078288
C        -1.95401863925146   -1.42281438044881   -2.58672079928734
C        -1.57454772372078   -2.58489262815707   -1.82960089899012
C        -2.33502400802732   -2.58916142996624   -0.60519270750114
C        -3.18551224139054   -1.42929412649034   -0.61035551489651
C        -0.99268624431808   -0.72434046113388   -3.30492948460040
C        -0.98793268439092    0.71593975350496   -3.30065554609023
C         0.38663198709055    1.15972364018748   -3.30376055352418
C         1.23027242280356    0.00074828045668   -3.30913860603804
C         0.37711239751611   -1.16877660089758   -3.29635540144783
Cl       -1.95624373396289   -0.00601899134532    5.23649217476982
Cl       -3.13829855459603    3.62500910179820    2.87710974366679
Cl        3.11120393482803   -3.66082855167748   -2.88931998260525
63
 energy: -142.110541908379 gnorm: 0.007742003460 xtb: 6.4.1 (a3dbbd7)
C        -1.30031800633373    0.00860140228547    3.54898074582282
C        -0.37351511601794   -1.16867940559243    3.30820607792597
C         0.97776751555720   -0.71786117070348    3.27477345459232
C         0.97721285377041    0.72346515271996    3.27236139359553
C        -0.37451291888012    1.18318585517706    3.30424914774198
C         2.32221450153404   -2.58047461794617    0.57465229722271
C         3.18741098439438   -1.41514611715170    0.58028435718076
C         2.94403229198702   -0.69523074204940    1.79502508904045
C         1.94547783224343   -1.41227537532374    2.55163000228314
C         1.56925087536948   -2.57196133652412    1.80152311300975
C         3.18443586713194    1.42103636222497    0.58138458040548
C         2.33541755710808    2.58580209246760    0.58177106698655
C         1.57286979555166    2.57340038436403    1.80460161877991
C         1.94975418770282    1.41229811481063    2.55392989785848
C         2.94813089577534    0.69703241815281    1.80468512984955
C        -0.36917017495451    3.43255908637984    0.58361833367419
C        -1.73358082574408    3.02140926034663    0.58726368235652
C        -2.09865398445055    2.46672730174723    1.95113468441150
C        -0.73473717897609    2.29069165042644    2.58649333057664
C         0.24429382393078    2.98181962218489    1.80766890920198
C        -3.38062191217699    0.70767694627303    0.58031124161267
C        -3.39743738328550   -0.72746502833871    0.57368587878887
C        -2.77548178724798   -1.15836940409175    1.79442280460890
C        -2.39491653931411    0.02936453831379    2.53778788470395
C        -2.75358916993169    1.13502621405756    1.81908297600862
C        -1.74045605973227   -3.00351501318301    0.58419887172695
C        -0.36694078081427   -3.43832023330510    0.58903952912760
C         0.24257108327513   -2.99123346838901    1.80909182445726
C        -0.73785893391000   -2.27063793416143    2.57154005089222
C        -1.97970984273053   -2.28329011157393    1.80480416107964
C        -0.24075563328054   -2.99208720002869   -1.82143501566810
C         0.73903482434971   -2.29766436977597   -2.59045498582843
C         2.09446228115442   -2.44772437326154   -1.94223962691705
C         1.73832378673146   -3.02105735505522   -0.59156705878511
C         0.37263118353864   -3.43170651782181   -0.59152364272105
C         2.81069609425626   -1.15287125247354   -1.83029766287883
C         2.40948026108749   -0.00545739749721   -2.56481775650832
C         2.79428342636371    1.17348732182055   -1.82079459405429
C         3.40751553559221    0.72965790906593   -0.60075149550776
C         3.39225871815749   -0.71698041378433   -0.60952548013560
C         1.97938496995449    2.29653037046493   -1.82379607754096
C         0.75131487339057    2.29345163341507   -2.58088474660675
C        -0.23756146434320    3.00790801307949   -1.81958720801803
C         0.36951223097737    3.45040876136703   -0.59736825385684
C         1.74404286761531    3.01446935001664   -0.59811701910613
C        -1.55922541530499    2.57145502684459   -1.80520297154618
C        -1.94056781723284    1.40754186058223   -2.56563183646649
C        -2.94017328335530    0.68758884746306   -1.81681696267244
C        -3.17277958318761    1.40152598171199   -0.59164035433428
C        -2.30743589395358    2.57668846255982   -0.58101510910192
C        -2.95070243601219   -0.70423131886807   -1.82988432554961
C        -1.95292361895787   -1.42178599953692   -2.58418315418755
C        -1.57224203034908   -2.58283135236983   -1.82792578949913
C        -2.33429165196176   -2.58695119727218   -0.60449468586809
C        -3.18635721357489   -1.42805136830198   -0.60924127502763
C        -0.98978805914590   -0.72463384849504   -3.30029274974678
C        -0.98703982418872    0.71550126746182   -3.29729882427258
C         0.38716718103156    1.15910862449259   -3.30213007521243
C         1.23080604319765    0.00057822307805   -3.31141668742379
C         0.38006002004401   -1.17211846834098   -3.29763320209441
Cl       -1.95692287848543   -0.00389866751523    5.23802435768623
Cl       -3.13968976593438    3.62680407597830    2.87847137918453
Cl        3.12537915951747   -3.66974612901273   -2.89967606179748
63
 energy: -142.110630596596 gnorm: 0.004592286174 xtb: 6.4.1 (a3dbbd7)
C        -1.30085028710696    0.00906008393727    3.54955632750029
C        -0.37402271766662   -1.16820931851913    3.30839122001157
C         0.97734912979387   -0.71752919741074    3.27454303801978
C         0.97687321873559    0.72372205874077    3.27274599492106
C        -0.37485361808541    1.18353538694470    3.30463639366388
C         2.32324059127972   -2.58161605214057    0.57322537214370
C         3.18893306878719   -1.41590917680076    0.58135206524863
C         2.94408290235647   -0.69519085797723    1.79489598265618
C         1.94455309193555   -1.41157286880399    2.55035869932215
C         1.56836853541427   -2.57054192586108    1.79921706978377
C         3.18372543006085    1.42067993361202    0.58133841966002
C         2.33527252563292    2.58579219605161    0.58190848907738
C         1.57282592443719    2.57365631554246    1.80489823986331
C         1.94954348628890    1.41229878183060    2.55418285812874
C         2.94779662280456    0.69705575832728    1.80515880885178
C        -0.36929586244595    3.43288913202117    0.58376053101412
C        -1.73386202014718    3.02178602481346    0.58752541672254
C        -2.09887431548936    2.46703024426835    1.95138938675207
C        -0.73497262974188    2.29103776857579    2.58681557142553
C         0.24422964604116    2.98212068953887    1.80791932711118
C        -3.38144347457314    0.70806019554105    0.58077044004555
C        -3.39832237031838   -0.72712068483523    0.57412835495604
C        -2.77631768380193   -1.15814009146497    1.79506630538570
C        -2.39562217185266    0.02969179276816    2.53837509732772
C        -2.75415501931906    1.13539105442965    1.81954943624813
C        -1.74013222223663   -3.00216620627775    0.58425814351696
C        -0.36669101621217   -3.43623389573484    0.58815088295767
C         0.24221040105532   -2.99002831865522    1.80849760669176
C        -0.73839002605367   -2.27019909723078    2.57207884283857
C        -1.98022853482628   -2.28285959061706    1.80533947717051
C        -0.23922755397515   -2.99062042679890   -1.82176389105705
C         0.74204796638507   -2.30080536901202   -2.59353019805714
C         2.09860473527954   -2.45462353173651   -1.94688112218899
C         1.74155644080076   -3.02431045067875   -0.59410926841149
C         0.37420490091535   -3.43017166564253   -0.59182489318688
C         2.80689518451481   -1.15456412297095   -1.82902070677607
C         2.40869181679186   -0.00797707813954   -2.56484737420348
C         2.79229438991365    1.17205525514459   -1.81996037426459
C         3.40526509239295    0.72839378477094   -0.60042406083285
C         3.39111691265888   -0.71925578890112   -0.61028742409527
C         1.97887969395927    2.29604064714711   -1.82341752478814
C         0.75078572722225    2.29364298711629   -2.58078427982076
C        -0.23786798439506    3.00798047689325   -1.81947675958992
C         0.36935790631121    3.45076830591321   -0.59728027626187
C         1.74387013846245    3.01450726625258   -0.59803543427312
C        -1.55963449734689    2.57176465141901   -1.80493796027105
C        -1.94058202145502    1.40758261261757   -2.56505355320936
C        -2.94046373754523    0.68795469303162   -1.81622385908519
C        -3.17338433538074    1.40198500124205   -0.59122901950743
C        -2.30782076663856    2.57703519876845   -0.58069203278212
C        -2.95130364106212   -0.70374898007271   -1.82952214592834
C        -1.95252179556658   -1.42126672700861   -2.58318268904494
C        -1.57096992683121   -2.58158257333399   -1.82676108361895
C        -2.33382947779447   -2.58574314118934   -0.60414389187238
C        -3.18691613300697   -1.42751887743979   -0.60894139525638
C        -0.98839716831376   -0.72493999132391   -3.29800306760596
C        -0.98655671300817    0.71516310443613   -3.29568141663718
C         0.38727351761179    1.15909654926786   -3.30201378414836
C         1.23074220815384    0.00095077368480   -3.31331759820700
C         0.38139763994708   -1.17350115770187   -3.29836592744197
Cl       -1.95722655597221   -0.00290618932275    5.23872880999308
Cl       -3.13997528731362    3.62738459274107    2.87887356122151
Cl        3.12995905806162   -3.66671502019836   -2.90086997434702
63
 energy: -142.110670065961 gnorm: 0.002456731555 xtb: 6.4.1 (a3dbbd7)
C        -1.30083069407509    0.00903702825394    3.54963052688269
C        -0.37405647412449   -1.16824177749404    3.30843124631179
C         0.97742952943077   -0.71766318860780    3.27460885649726
C         0.97701091647097    0.72356474559974    3.27284466256697
C        -0.37472679529353    1.18343598712211    3.30463644842384
C         2.32325532351864   -2.58171217465858    0.57299760899876
C         3.18966148954425   -1.41623107491865    0.58225386873599
C         2.94450815296958   -0.69541799928766    1.79527981629606
C         1.94437630578054   -1.41155621996223    2.55004885801354
C         1.56798289648872   -2.57026053884988    1.79853353048050
C         3.18381773143540    1.42041089951451    0.58128428401273
C         2.33542977114862    2.58544923372268    0.58174809140937
C         1.57308838788956    2.57345256118505    1.80480919673243
C         1.94975706071480    1.41204506439087    2.55421281873127
C         2.94797072353419    0.69683681113095    1.80547863779928
C        -0.36902522815630    3.43265683558328    0.58353128250371
C        -1.73364985622609    3.02159086304194    0.58733906042167
C        -2.09856571637639    2.46680399903251    1.95116253599874
C        -0.73474769722111    2.29082850961741    2.58665250214629
C         0.24451539979776    2.98188188551526    1.80771722802638
C        -3.38149111579080    0.70797987305517    0.58073967600690
C        -3.39857760042655   -0.72717877420900    0.57414801373521
C        -2.77653618065024   -1.15826984932338    1.79520819113820
C        -2.39565103236100    0.02959597564382    2.53840456424113
C        -2.75405498953494    1.13527453573580    1.81948552546671
C        -1.74007139913114   -3.00179243295381    0.58428975755323
C        -0.36680505685910   -3.43549329689221    0.58789926361538
C         0.24208848835401   -2.98987389640672    1.80854019447163
C        -0.73857812553350   -2.27024568582897    2.57241615509141
C        -1.98039306490856   -2.28292202968984    1.80562244119369
C        -0.23897301725216   -2.98965138096916   -1.82158429509237
C         0.74293396766821   -2.30143205471160   -2.59417418696126
C         2.10000514471046   -2.45684269088033   -1.94840053353106
C         1.74239051301637   -3.02485989443037   -0.59481121608325
C         0.37449740860016   -3.42917849123339   -0.59160876489556
C         2.80387331002193   -1.15493262195573   -1.82762831634144
C         2.40794129910062   -0.00899569172021   -2.56468196900521
C         2.79154372441837    1.17148218009966   -1.81960691305644
C         3.40438023058912    0.72790938566749   -0.60032475299653
C         3.39025813787532   -0.72019672389592   -0.61034268561877
C         1.97891247387950    2.29581759442694   -1.82358859775962
C         0.75061943186961    2.29367907590071   -2.58114000178053
C        -0.23781810217322    3.00783658498883   -1.81974786910140
C         0.36954285583660    3.45063147655127   -0.59752059930911
C         1.74400840321680    3.01419849258792   -0.59824372877322
C        -1.55965678395646    2.57172188552997   -1.80515084568593
C        -1.94063712258567    1.40753368077755   -2.56523054072618
C        -2.94049059924801    0.68795289834534   -1.81617633280415
C        -3.17343535112394    1.40198852480655   -0.59128599546556
C        -2.30775615270371    2.57696204627973   -0.58082023571795
C        -2.95169458311319   -0.70368562649859   -1.82956327760803
C        -1.95264700184603   -1.42118460785443   -2.58310217299429
C        -1.57069121291933   -2.58117757220190   -1.82623306403974
C        -2.33373584668468   -2.58541932483476   -0.60404380195294
C        -3.18722238592884   -1.42744693232746   -0.60902280515620
C        -0.98811568607334   -0.72519119436623   -3.29733206119076
C        -0.98646537866172    0.71495896194267   -3.29540219282599
C         0.38718236236248    1.15921252465385   -3.30255239091095
C         1.23042887721723    0.00135463600101   -3.31434072511357
C         0.38152233198131   -1.17369914506587   -3.29831554538730
Cl       -1.95726276564301   -0.00267655072131    5.23875852841122
Cl       -3.13969380708595    3.62739970230201    2.87875421920333
Cl        3.13036051274916   -3.65951007266775   -2.89843798977237
63
 energy: -142.110682213579 gnorm: 0.001345838734 xtb: 6.4.1 (a3dbbd7)
C        -1.30061986460713    0.00888086106518    3.54947440497023
C        -0.37391035447677   -1.16842721148701    3.30837705682852
C         0.97764037906811   -0.71788479993107    3.27473745837439
C         0.97723701491534    0.72336229880931    3.27276548857324
C        -0.37450688106514    1.18326270331836    3.30448808519925
C         2.32285248941797   -2.58148653643149    0.57333344390406
C         3.18960944196307   -1.41626469033174    0.58247131385770
C         2.94479852123678   -0.69567713883036    1.79557795714906
C         1.94461341798516   -1.41186674623049    2.55035223695524
C         1.56801297507294   -2.57061997363480    1.79889294010679
C         3.18416103711927    1.42033049341095    0.58127094947765
C         2.33561311221452    2.58522730714454    0.58158298676584
C         1.57328627627747    2.57321657429841    1.80461667058888
C         1.94999479153554    1.41184643893418    2.55410388494549
C         2.94822451758210    0.69664419059988    1.80552202440451
C        -0.36877545489265    3.43239974039493    0.58333014724408
C        -1.73339394820233    3.02135412877723    0.58712807020009
C        -2.09825838396449    2.46658245124304    1.95091658083841
C        -0.73450724891712    2.29059215044928    2.58642100377947
C         0.24474553133746    2.98163064331646    1.80747960038412
C        -3.38122475644177    0.70783537387417    0.58057015877447
C        -3.39843379774334   -0.72728708992758    0.57402935232172
C        -2.77639560275400   -1.15837858078811    1.79508094131698
C        -2.39543728468875    0.02947429187834    2.53823733911567
C        -2.75378880582035    1.13513297245355    1.81929095735360
C        -1.74020305154759   -3.00206123384647    0.58430821737896
C        -0.36701322661507   -3.43584382385224    0.58807520448577
C         0.24209233354126   -2.99024671619565    1.80879246445084
C        -0.73855300685177   -2.27044356249248    2.57244998524651
C        -1.98035986145793   -2.28309709069314    1.80562713197921
C        -0.23937444491681   -2.98960242621602   -1.82138219193069
C         0.74235185296361   -2.30082802683233   -2.59354457352617
C         2.10009052041791   -2.45662230664245   -1.94834550919069
C         1.74172806200246   -3.02418556662960   -0.59433532143518
C         0.37411807264366   -3.42913920106453   -0.59136646895954
C         2.80288555667800   -1.15448791494897   -1.82695622118901
C         2.40761650035345   -0.00879934689433   -2.56445540769845
C         2.79180814254304    1.17161696244441   -1.81969080459775
C         3.40464413611590    0.72804433784523   -0.60040339842855
C         3.38994048118259   -0.72000564393907   -0.61008558562996
C         1.97911779675204    2.29583175865942   -1.82387742815128
C         0.75070001924455    2.29361083391184   -2.58144930826629
C        -0.23764461534525    3.00768166824626   -1.81998355504878
C         0.36974281385966    3.45039378857325   -0.59771006772450
C         1.74418434304319    3.01398271635082   -0.59842656957625
C        -1.55951261681509    2.57158106184148   -1.80539755397262
C        -1.94066951890493    1.40747431678374   -2.56556369857674
C        -2.94041002326570    0.68781232331694   -1.81634790453211
C        -3.17322284378103    1.40184096125226   -0.59146697660486
C        -2.30755133056311    2.57680808707866   -0.58102284734556
C        -2.95177341458995   -0.70383289751757   -1.82970571500799
C        -1.95291777837516   -1.42134981429490   -2.58340122123852
C        -1.57103116912530   -2.58142955073539   -1.82633493494574
C        -2.33389815214471   -2.58566453439067   -0.60409725158033
C        -3.18724769564438   -1.42757627746698   -0.60915518667471
C        -0.98844102716951   -0.72529163254058   -3.29769299068210
C        -0.98661738291778    0.71492328987842   -3.29587057322261
C         0.38708026020425    1.15922248425256   -3.30301639683958
C         1.23022627360692    0.00141468263986   -3.31438438068099
C         0.38108837236617   -1.17345499289818   -3.29803450455547
Cl       -1.95710986114167   -0.00288890225598    5.23854813767554
Cl       -3.13937163452984    3.62730882804242    2.87855056748071