62
 energy: -137.548317092556 gnorm: 0.000104461497 xtb: 6.4.1 (a3dbbd7)
C        -1.30183381748886   -0.00000000648339    3.53452326522543
C        -0.37313361544424   -1.17459037127414    3.31376132117066
C         0.98025679821298   -0.72134348542986    3.29431562239436
C         0.98025679707879    0.72134348285171    3.29431562388247
C        -0.37313361689233    1.17459035821342    3.31376131928379
C         2.33807778254627   -2.57949872300623    0.59876403892085
C         3.17590409754800   -1.41511462192816    0.59297350860703
C         2.94478407793020   -0.69177951819394    1.82009708640286
C         1.95063909710068   -1.41509175140168    2.57569521136887
C         1.58105327569326   -2.57947088257422    1.82379894260551
C         3.17590409767580    1.41511462477919    0.59297350682457
C         2.33807778200153    2.57949872199651    0.59876404129287
C         1.58105327615676    2.57947088044816    1.82379894319936
C         1.95063909524820    1.41509175225750    2.57569521302440
C         2.94478407614160    0.69177952276077    1.82009708495869
C        -0.36021670720875    3.43858721624021    0.59042815363388
C        -1.73940341415314    3.00050323973949    0.59604596430920
C        -1.97379216434302    2.29327477198093    1.80402937500512
C        -0.73141914997014    2.27443877463855    2.57124073569646
C         0.25430830015181    2.99475604196149    1.81734944444536
C        -3.40347778166331    0.71862354311689    0.57303077422188
C        -3.40347776963000   -0.71862355158046    0.57303076981811
C        -2.77476142103836   -1.14901249179603    1.80472123200867
C        -2.41828283515148   -0.00000000833276    2.55114935088018
C        -2.77476143117392    1.14901248448651    1.80472123930513
C        -1.73940340765104   -3.00050322455471    0.59604594905002
C        -0.36021671038066   -3.43858721497320    0.59042814657117
C         0.25430829930695   -2.99475604006896    1.81734943801594
C        -0.73141914814652   -2.27443878152070    2.57124073475334
C        -1.97379214645478   -2.29327476256578    1.80402935577202
C        -0.24530472313086   -3.00051584412400   -1.82176121018029
C         0.73022353385387   -2.29325481048274   -2.57174415956486
C         1.97215197349313   -2.27444922118352   -1.80377664320405
C         1.73882726490291   -2.99478643511515   -0.58495459077722
C         0.36660668501814   -3.43861702880248   -0.58574358846034
C         2.79645205812274   -1.17456971173796   -1.81547101760877
C         2.57841527805567   -0.00000000479702   -2.74479879331022
C         2.79645205792384    1.17456970311151   -1.81547101898080
C         3.38455184632225    0.72134952889095   -0.59634962145496
C         3.38455184579430   -0.72134952776021   -0.59634961957174
C         1.97215197456024    2.27444921788446   -1.80377664449486
C         0.73022354427215    2.29325482176814   -2.57174418409478
C        -0.24530471192131    3.00051585968699   -1.82176122191594
C         0.36660669160152    3.43861703041519   -0.58574358683038
C         1.73882727004541    2.99478643841959   -0.58495459072341
C        -1.58375598946729    2.58025980043459   -1.81474139970394
C        -1.96529597139356    1.41518791171763   -2.58048455343527
C        -2.96433775180456    0.69422731527192   -1.83145065943523
C        -3.18734633205011    1.41516756825486   -0.60286988079118
C        -2.33183302585882    2.58024982458367   -0.60416517055103
C        -2.96433775532247   -0.69422732307001   -1.83145065524514
C        -1.96529597308010   -1.41518791157755   -2.58048454163645
C        -1.58375598599393   -2.58025978804313   -1.81474138682187
C        -2.33183301418110   -2.58024981164527   -0.60416517075574
C        -3.18734632388103   -1.41516756618851   -0.60286988036096
C        -1.01029173881897   -0.71862493667411   -3.29980594478934
C        -1.01029173513097    0.71862492676264   -3.29980596044830
C         0.37252712754597    1.14900863195978   -3.28841400688363
C         1.19960116332150   -0.00000000835857   -3.30346526737355
C         0.37252712254454   -1.14900863842353   -3.28841399379315
Cl       -1.95214289655227    0.00000000801064    5.24592207879742
Cl        3.81840606834155    0.00000000102404   -4.09214154355835
