62
 energy: -137.516358696592 gnorm: 0.145344418345 xtb: 6.4.1 (a3dbbd7)
C        -1.29770965891222    0.00000000000000    3.53163224767276
C        -0.37107604425475   -1.17478800586359    3.31058196643012
C         0.97979757550459   -0.72157705231961    3.28110534952822
C         0.97979757550459    0.72157705231961    3.28110534952822
C        -0.37107604425475    1.17478800586360    3.31058196643013
C         2.33544184946295   -2.58264348698296    0.58346340581249
C         3.18207169571150   -1.41543014636129    0.58234433372313
C         2.94373959867916   -0.69404060100004    1.80708186552027
C         1.95046398470883   -1.41556779135961    2.56176558167067
C         1.57767488865866   -2.57871801508103    1.80912454278211
C         3.18207169571150    1.41543014636129    0.58234433372313
C         2.33544184946295    2.58264348698296    0.58346340581249
C         1.57767488865866    2.57871801508103    1.80912454278211
C         1.95046398470883    1.41556779135961    2.56176558167066
C         2.94373959867916    0.69404060100004    1.80708186552027
C        -0.36119281684147    3.44519252612879    0.58582996047390
C        -1.73469290191499    3.00153459982720    0.58916793337350
C        -1.97220713510261    2.29308475607878    1.81059639720294
C        -0.73400332666893    2.27691900303500    2.56853480078419
C         0.25309257506893    2.99789064535074    1.80898867763471
C        -3.39649784746455    0.71758744312072    0.57410478167568
C        -3.39649784746455   -0.71758744312072    0.57410478167568
C        -2.77168037603652   -1.14964415915414    1.80664876434809
C        -2.42168465399864    0.00000000000000    2.56054627302143
C        -2.77168037603652    1.14964415915414    1.80664876434809
C        -1.73469290191499   -3.00153459982719    0.58916793337351
C        -0.36119281684148   -3.44519252612879    0.58582996047390
C         0.25309257506893   -2.99789064535073    1.80898867763471
C        -0.73400332666892   -2.27691900303499    2.56853480078419
C        -1.97220713510261   -2.29308475607878    1.81059639720295
C        -0.24585893810850   -3.00970705822685   -1.82232538763502
C         0.74439012833927   -2.28841876480361   -2.57822875384061
C         1.97268106729833   -2.28861170675520   -1.82114897801170
C         1.74031203428013   -3.00832022201671   -0.59623578829480
C         0.36724813466371   -3.45114129717027   -0.59443426078026
C         2.79027372790168   -1.16551010025889   -1.82330670861298
C         2.41077011246349    0.00000000000000   -2.58030971859023
C         2.79027372790168    1.16551010025889   -1.82330670861298
C         3.40598095600767    0.72109250237888   -0.59875668403540
C         3.40598095600767   -0.72109250237888   -0.59875668403540
C         1.97268106729833    2.28861170675520   -1.82114897801170
C         0.74439012833927    2.28841876480360   -2.57822875384062
C        -0.24585893810850    3.00970705822685   -1.82232538763502
C         0.36724813466371    3.45114129717027   -0.59443426078026
C         1.74031203428013    3.00832022201671   -0.59623578829480
C        -1.56847069976934    2.58049680433801   -1.82122736601016
C        -1.94730857051169    1.41533687195356   -2.58360676406823
C        -2.94243160962768    0.69434475341889   -1.82977489504240
C        -3.17479380115303    1.41444285760430   -0.60326970185865
C        -2.32688654321742    2.58113588269429   -0.60086409487791
C        -2.94243160962768   -0.69434475341889   -1.82977489504240
C        -1.94730857051169   -1.41533687195356   -2.58360676406823
C        -1.56847069976934   -2.58049680433801   -1.82122736601016
C        -2.32688654321742   -2.58113588269429   -0.60086409487790
C        -3.17479380115303   -1.41444285760429   -0.60326970185865
C        -0.99138524268633   -0.72097607833148   -3.31029871234527
C        -0.99138524268633    0.72097607833148   -3.31029871234528
C         0.38054100031802    1.16548515734434   -3.30884687187952
C         1.22668597234242    0.00000000000000   -3.30783368151334
C         0.38054100031802   -1.16548515734434   -3.30884687187952
Cl       -1.93737486741132   -0.00000000000005    5.25509316806359
Cl        3.65701766215967    0.00000000000000   -3.89292811129859
62
 energy: -137.541273715928 gnorm: 0.065847487575 xtb: 6.4.1 (a3dbbd7)
C        -1.29882365984422    0.00000000000000    3.53138549077179
C        -0.37172366711719   -1.17474186192233    3.30975910055376
C         0.98036015013083   -0.72127058025015    3.28442356081642
C         0.98036015013083    0.72127058025015    3.28442356081642
C        -0.37172366711719    1.17474186192234    3.30975910055377
C         2.33949177390432   -2.58550847919961    0.59213229366460
C         3.18226065457057   -1.41835724047986    0.59105502860560
C         2.94648614323568   -0.69310358712593    1.81428297272403
C         1.95107601236414   -1.41517690000218    2.56679350044498
C         1.57989524902133   -2.57918913726831    1.81495367337116
C         3.18226065457057    1.41835724047986    0.59105502860560
C         2.33949177390432    2.58550847919961    0.59213229366459
C         1.57989524902133    2.57918913726831    1.81495367337116
C         1.95107601236414    1.41517690000218    2.56679350044497
C         2.94648614323568    0.69310358712593    1.81428297272403
C        -0.36003251982899    3.44254844160013    0.58748234027362
C        -1.73614246428079    3.00094507538405    0.59089408490499
C        -1.97291540590190    2.29420075001641    1.80682321131905
C        -0.73239081346461    2.27612810535826    2.56789923902805
C         0.25450011274235    2.99740363085192    1.81198711713239
C        -3.39769764787793    0.71781950019884    0.57247019607325
C        -3.39769764787793   -0.71781950019884    0.57247019607325
C        -2.77152089271679   -1.14948772468756    1.80446760794792
C        -2.42027871981556    0.00000000000000    2.55648767440226
C        -2.77152089271679    1.14948772468756    1.80446760794792
C        -1.73614246428079   -3.00094507538404    0.59089408490499
C        -0.36003251982900   -3.44254844160013    0.58748234027362
C         0.25450011274235   -2.99740363085191    1.81198711713239
C        -0.73239081346461   -2.27612810535825    2.56789923902805
C        -1.97291540590190   -2.29420075001640    1.80682321131906
C        -0.24612715481257   -3.00767519881139   -1.82166521340704
C         0.73580091446153   -2.28777565709907   -2.57165012971712
C         1.96738824454847   -2.28463173944458   -1.80563109855781
C         1.74256763049980   -3.01159035675498   -0.58846626188329
C         0.36781691416712   -3.44878187557134   -0.59083644909912
C         2.78504753565369   -1.17209090253926   -1.80627917151473
C         2.48448364659128   -0.00000000000000   -2.65550621652969
C         2.78504753565369    1.17209090253926   -1.80627917151473
C         3.39832840861404    0.72174428397723   -0.59121591874262
C         3.39832840861404   -0.72174428397723   -0.59121591874262
C         1.96738824454847    2.28463173944458   -1.80563109855781
C         0.73580091446153    2.28777565709907   -2.57165012971713
C        -0.24612715481257    3.00767519881139   -1.82166521340704
C         0.36781691416712    3.44878187557134   -0.59083644909912
C         1.74256763049980    3.01159035675497   -0.58846626188329
C        -1.57534435733869    2.58005910345096   -1.81957986347072
C        -1.95840015313455    1.41593873681573   -2.58432684719178
C        -2.95197541538547    0.69401524308326   -1.83101428035253
C        -3.17872399531900    1.41454617043227   -0.60411102297416
C        -2.32912546673819    2.58083190360226   -0.60348361088912
C        -2.95197541538547   -0.69401524308327   -1.83101428035253
C        -1.95840015313455   -1.41593873681574   -2.58432684719178
C        -1.57534435733870   -2.58005910345095   -1.81957986347072
C        -2.32912546673819   -2.58083190360226   -0.60348361088912
C        -3.17872399531900   -1.41454617043226   -0.60411102297416
C        -1.00781653679760   -0.72033570202556   -3.31213649636183
C        -1.00781653679760    0.72033570202556   -3.31213649636183
C         0.36701266304858    1.15874094547884   -3.30039682964367
C         1.20477490263135   -0.00000000000000   -3.32133774157745
C         0.36701266304858   -1.15874094547884   -3.30039682964367
Cl       -1.93683957654623   -0.00000000000006    5.25471498391349
Cl        3.75864286762167   -0.00000000000000   -3.99477869239911
62
 energy: -137.547809129135 gnorm: 0.015287699658 xtb: 6.4.1 (a3dbbd7)
C        -1.30035206517559    0.00000000000000    3.53189585080188
C        -0.37277422130742   -1.17478066087075    3.31138630507124
C         0.98032367128833   -0.72111050924346    3.29039516058077
C         0.98032367128833    0.72111050924347    3.29039516058077
C        -0.37277422130742    1.17478066087075    3.31138630507124
C         2.33943087546634   -2.58273073138267    0.59780790171745
C         3.17899962094877   -1.41795031980803    0.59420337801414
C         2.94669574153936   -0.69219334457726    1.81943849450677
C         1.95087789919883   -1.41476005688095    2.57274614351103
C         1.58115878897695   -2.57941559236420    1.82101408050806
C         3.17899962094877    1.41795031980803    0.59420337801414
C         2.33943087546634    2.58273073138267    0.59780790171746
C         1.58115878897696    2.57941559236419    1.82101408050806
C         1.95087789919883    1.41476005688096    2.57274614351104
C         2.94669574153936    0.69219334457726    1.81943849450678
C        -0.36001838409732    3.44002361492332    0.58954090563899
C        -1.73826449306032    3.00024497308870    0.59407271033819
C        -1.97353970739946    2.29389756093040    1.80413283429863
C        -0.73130758245831    2.27508254084835    2.56948899413545
C         0.25477232028078    2.99619910872517    1.81572978498634
C        -3.40129921651020    0.71826649740669    0.57278003120357
C        -3.40129921651018   -0.71826649740670    0.57278003120356
C        -2.77338272715908   -1.14919745306707    1.80421407144598
C        -2.41936612168770    0.00000000000000    2.55311445881344
C        -2.77338272715909    1.14919745306708    1.80421407144598
C        -1.73826449306032   -3.00024497308868    0.59407271033818
C        -0.36001838409733   -3.44002361492332    0.58954090563899
C         0.25477232028078   -2.99619910872517    1.81572978498634
C        -0.73130758245831   -2.27508254084834    2.56948899413545
C        -1.97353970739943   -2.29389756093037    1.80413283429862
C        -0.24553745454256   -3.00181262068876   -1.82135078739746
C         0.73082406707876   -2.28903574067683   -2.57011409246182
C         1.96800445165779   -2.27692247494462   -1.80053404396579
C         1.74053315219535   -3.00358067287655   -0.58488776834480
C         0.36695548323693   -3.44367409832031   -0.58726793932267
C         2.78686967737160   -1.17424152363092   -1.80492779762465
C         2.55297330107053   -0.00000000000000   -2.72243871075902
C         2.78686967737160    1.17424152363091   -1.80492779762465
C         3.38794976033273    0.72151666914223   -0.59250399992194
C         3.38794976033273   -0.72151666914223   -0.59250399992194
C         1.96800445165779    2.27692247494461   -1.80053404396579
C         0.73082406707877    2.28903574067685   -2.57011409246185
C        -0.24553745454255    3.00181262068878   -1.82135078739747
C         0.36695548323694    3.44367409832031   -0.58726793932267
C         1.74053315219536    3.00358067287655   -0.58488776834480
C        -1.58184936194188    2.57943538665848   -1.81649621154469
C        -1.96510410770622    1.41541562180849   -2.58214642352686
C        -2.96189743506197    0.69406234170853   -1.83149162758140
C        -3.18455852444735    1.41470106078113   -0.60335003306605
C        -2.33125879341710    2.58008588505687   -0.60457610394910
C        -2.96189743506194   -0.69406234170853   -1.83149162758139
C        -1.96510410770621   -1.41541562180848   -2.58214642352683
C        -1.58184936194187   -2.57943538665847   -1.81649621154467
C        -2.33125879341709   -2.58008588505686   -0.60457610394909
C        -3.18455852444733   -1.41470106078112   -0.60335003306604
C        -1.01332251444952   -0.71938193919319   -3.30659048422617
C        -1.01332251444953    0.71938193919318   -3.30659048422619
C         0.36622807499674    1.15117527779228   -3.29164455810905
C         1.19507813687988   -0.00000000000000   -3.31551505572967
C         0.36622807499674   -1.15117527779228   -3.29164455810904
Cl       -1.94191103400570   -0.00000000000010    5.25122338659279
Cl        3.83071095403195   -0.00000000000002   -4.07619081485799
62
 energy: -137.548145950121 gnorm: 0.008895129794 xtb: 6.4.1 (a3dbbd7)
C        -1.30144467746149    0.00000000000016    3.53319852740632
C        -0.37326111423078   -1.17454033963904    3.31309804452674
C         0.98023094488191   -0.72118340238337    3.29336803091545
C         0.98023094488196    0.72118340238343    3.29336803091549
C        -0.37326111423072    1.17454033963941    3.31309804452682
C         2.33835947511479   -2.58009905372290    0.59848233859395
C         3.17720835054584   -1.41619939446423    0.59337076050163
C         2.94568119785755   -0.69188546736040    1.82012052052823
C         1.95069014117466   -1.41469875692080    2.57494352130450
C         1.58104656196209   -2.57912144326683    1.82287063166431
C         3.17720835054578    1.41619939446424    0.59337076050166
C         2.33835947511490    2.58009905372317    0.59848233859392
C         1.58104656196210    2.57912144326710    1.82287063166443
C         1.95069014117465    1.41469875692081    2.57494352130445
C         2.94568119785744    0.69188546736032    1.82012052052816
C        -0.36036246818894    3.43841888291216    0.59036789671689
C        -1.73929292371408    2.99996119800770    0.59563886487989
C        -1.97402800608542    2.29328755617240    1.80430313516479
C        -0.73150701183405    2.27444504664391    2.57084106334035
C         0.25437100493624    2.99514162757435    1.81711429079224
C        -3.40347581895269    0.71850393345961    0.57348257011456
C        -3.40347581895322   -0.71850393345949    0.57348257011470
C        -2.77480010077014   -1.14903092157225    1.80491480576202
C        -2.41930975892043    0.00000000000011    2.55250431992775
C        -2.77480010076962    1.14903092157224    1.80491480576188
C        -1.73929292371441   -2.99996119800829    0.59563886488032
C        -0.36036246818893   -3.43841888291209    0.59036789671700
C         0.25437100493622   -2.99514162757431    1.81711429079229
C        -0.73150701183416   -2.27444504664375    2.57084106334037
C        -1.97402800608626   -2.29328755617306    1.80430313516547
C        -0.24561058590119   -2.99969120379771   -1.82123621011521
C         0.73039700812453   -2.29064781538110   -2.57107196237292
C         1.97088359672433   -2.27512826656070   -1.80303416158324
C         1.73915600676063   -2.99766725951773   -0.58496533311445
C         0.36642946493057   -3.43995692317136   -0.58611076048211
C         2.79351064522857   -1.17462149318870   -1.81179585928171
C         2.56998112776193    0.00000000000016   -2.73715681669643
C         2.79351064522857    1.17462149318904   -1.81179585928165
C         3.38638825230395    0.72139068902341   -0.59540873390291
C         3.38638825230392   -0.72139068902336   -0.59540873390295
C         1.97088359672430    2.27512826656086   -1.80303416158311
C         0.73039700812428    2.29064781538050   -2.57107196237188
C        -0.24561058590142    2.99969120379714   -1.82123621011472
C         0.36642946493046    3.43995692317145   -0.58611076048205
C         1.73915600676058    2.99766725951779   -0.58496533311437
C        -1.58360840244861    2.57934563461158   -1.81505756513804
C        -1.96596095864039    1.41495257169658   -2.58064507714518
C        -2.96471997039632    0.69417845567950   -1.83117861940786
C        -3.18723447494754    1.41496141177327   -0.60261648197238
C        -2.33219307274414    2.57986301540653   -0.60399156414356
C        -2.96471997039708   -0.69417845567946   -1.83117861940833
C        -1.96596095864084   -1.41495257169687   -2.58064507714583
C        -1.58360840244904   -2.57934563461208   -1.81505756513862
C        -2.33219307274486   -2.57986301540703   -0.60399156414370
C        -3.18723447494832   -1.41496141177356   -0.60261648197249
C        -1.01204475533769   -0.71898057595256   -3.30254258010421
C        -1.01204475533759    0.71898057595268   -3.30254258010367
C         0.36962925409733    1.14953760499827   -3.29025257138810
C         1.19776914909288    0.00000000000014   -3.31130878174698
C         0.36962925409724   -1.14953760499825   -3.29025257138860
Cl       -1.94821285188244    0.00000000000067    5.24905722721559
Cl        3.83760382364726    0.00000000000058   -4.09208550072504
62
 energy: -137.548264493226 gnorm: 0.004690707955 xtb: 6.4.1 (a3dbbd7)
C        -1.30171124732463    0.00000000000465    3.53408835091057
C        -0.37323396621500   -1.17452884843394    3.31408364571673
C         0.98036363456944   -0.72132611562386    3.29490404851324
C         0.98036363457092    0.72132611562672    3.29490404851449
C        -0.37323396621317    1.17452884844399    3.31408364571836
C         2.33772751571280   -2.57889512773704    0.59868138531249
C         3.17577231973744   -1.41498039883912    0.59274511751802
C         2.94478617326911   -0.69174372345762    1.82022042830340
C         1.95064198678476   -1.41496755961391    2.57601905656556
C         1.58093580798472   -2.57924933396330    1.82385613281263
C         3.17577231973587    1.41498039884056    0.59274511751857
C         2.33772751571539    2.57889512774474    0.59868138531185
C         1.58093580798509    2.57924933397093    1.82385613281582
C         1.95064198678457    1.41496755961534    2.57601905656436
C         2.94478617326570    0.69174372345688    1.82022042830139
C        -0.36045855220972    3.43802971635191    0.59067222510757
C        -1.73968772654570    3.00022373183641    0.59640740468379
C        -1.97400572508041    2.29307731190171    1.80433380933502
C        -0.73149205042239    2.27430727042298    2.57160445746697
C         0.25416527103521    2.99466546289813    1.81766609008813
C        -3.40419539358174    0.71868072630461    0.57358001084430
C        -3.40419539359543   -0.71868072630194    0.57358001084787
C        -2.77522570659985   -1.14900960677334    1.80511667972708
C        -2.41853260522606    0.00000000000284    2.55161420095382
C        -2.77522570658564    1.14900960677263    1.80511667972321
C        -1.73968772655616   -3.00022373185281    0.59640740469448
C        -0.36045855221037   -3.43802971635088    0.59067222511031
C         0.25416527103395   -2.99466546289723    1.81766609008994
C        -0.73149205042624   -2.27430727041921    2.57160445746884
C        -1.97400572510385   -2.29307731191979    1.80433380935348
C        -0.24567938801219   -2.99939238681941   -1.82145995372002
C         0.73003057884955   -2.29262001223227   -2.57189104394808
C         1.97228893427412   -2.27429742420389   -1.80449886882136
C         1.73840246429390   -2.99420981548109   -0.58510008984041
C         0.36622789288914   -3.43787059096721   -0.58557221688852
C         2.79721655022336   -1.17464032225847   -1.81638050810505
C         2.57781059877957    0.00000000000454   -2.74367280311306
C         2.79721655022388    1.17464032226822   -1.81638050810351
C         3.38490681100699    0.72131264937034   -0.59691041685870
C         3.38490681100582   -0.72131264936754   -0.59691041685966
C         1.97228893427313    2.27429742420790   -1.80449886881649
C         0.73003057884298    2.29262001221575   -2.57189104391906
C        -0.24567938801760    2.99939238680386   -1.82145995370538
C         0.36622789288643    3.43787059096868   -0.58557221688595
C         1.73840246429224    2.99420981548231   -0.58510008983787
C        -1.58430940938257    2.57980176819459   -1.81440060480095
C        -1.96588535906359    1.41488888511430   -2.58000537013315
C        -2.96539786410807    0.69425063085074   -1.83112609613506
C        -3.18822020376996    1.41521784289116   -0.60242934246424
C        -2.33236122570691    2.58005755222743   -0.60375046936818
C        -2.96539786412955   -0.69425063085055   -1.83112609614855
C        -1.96588535907648   -1.41488888512249   -2.58000537015181
C        -1.58430940939525   -2.57980176820900   -1.81440060481783
C        -2.33236122572732   -2.58005755224207   -0.60375046937278
C        -3.18822020379221   -1.41521784289966   -0.60242934246789
C        -1.01059658074424   -0.71869678486615   -3.29963913821812
C        -1.01059658074157    0.71869678486962   -3.29963913820428
C         0.37233579645976    1.14896365113152   -3.28934379725883
C         1.20000828506928    0.00000000000392   -3.30684991283699
C         0.37233579645737   -1.14896365113046   -3.28934379727259
Cl       -1.95251256864921    0.00000000001987    5.24686924757856
Cl        3.83298365933523    0.00000000001447   -4.09658726970661
62
 energy: -137.548303469384 gnorm: 0.002519980564 xtb: 6.4.1 (a3dbbd7)
C        -1.30168646743417   -0.00000000002331    3.53441043392074
C        -0.37305835930517   -1.17454906018438    3.31412867055853
C         0.98046322739077   -0.72139026370977    3.29496470595087
C         0.98046322738399    0.72139026369812    3.29496470594708
C        -0.37305835931346    1.17454906013398    3.31412867054949
C         2.33775214071567   -2.57897756676833    0.59873030938670
C         3.17538253824449   -1.41469650360974    0.59265827320966
C         2.94453829519872   -0.69173270193218    1.82011361692863
C         1.95069221782509   -1.41517930856510    2.57608004390862
C         1.58098674878811   -2.57948369382995    1.82406334500242
C         3.17538253825071    1.41469650360660    0.59265827320538
C         2.33775214070417    2.57897756673534    0.59873030939058
C         1.58098674878681    2.57948369379679    1.82406334498845
C         1.95069221782423    1.41517930856114    2.57608004391412
C         2.94453829521042    0.69173270193997    1.82011361693490
C        -0.36035024935625    3.43837729470659    0.59060479079410
C        -1.73961309853284    3.00053671631627    0.59642897258300
C        -1.97379319447154    2.29312663718856    1.80416562013325
C        -0.73137251950928    2.27437668143088    2.57161978798057
C         0.25421458226288    2.99462780327378    1.81760062170764
C        -3.40395167703381    0.71871678175793    0.57330764590352
C        -3.40395167696469   -0.71871678177389    0.57330764588317
C        -2.77504125202679   -1.14903141134189    1.80494121389141
C        -2.41799880677907   -0.00000000001815    2.55100194976836
C        -2.77504125209337    1.14903141134033    1.80494121391367
C        -1.73961309848583   -3.00053671623840    0.59642897252686
C        -0.36035024935673   -3.43837729471277    0.59060479077803
C         0.25421458226700   -2.99462780327778    1.81760062169745
C        -0.73137251949317   -2.27437668145269    2.57161978797503
C        -1.97379319436288   -2.29312663710813    1.80416562004348
C        -0.24558515246165   -3.00002941177607   -1.82173060872656
C         0.72985879300464   -2.29363944367143   -2.57207918365338
C         1.97234251039034   -2.27411020949326   -1.80444028112632
C         1.73839669153574   -2.99359842341641   -0.58508265187656
C         0.36635200634253   -3.43768514017200   -0.58553272354894
C         2.79746726978994   -1.17447896092087   -1.81719590777796
C         2.57928495775183   -0.00000000002261   -2.74508006317654
C         2.79746726978639    1.17447896087340   -1.81719590778520
C         3.38405985007917    0.72129839414516   -0.59696115833989
C         3.38405985008335   -0.72129839415499   -0.59696115833407
C         1.97234251039260    2.27411020947196   -1.80444028114550
C         0.72985879303827    2.29363944374753   -2.57207918378990
C        -0.24558515243129    3.00002941184945   -1.82173060879328
C         0.36635200635875    3.43768514016400   -0.58553272355724
C         1.73839669154503    2.99359842341158   -0.58508265188633
C        -1.58424342587859    2.58026838981611   -1.81440474552069
C        -1.96554799275420    1.41505406778804   -2.58011859449377
C        -2.96489691904236    0.69425082892078   -1.83126221884825
C        -3.18797739996289    1.41528001302170   -0.60260515825143
C        -2.33210298580465    2.58027848134413   -0.60388528187612
C        -2.96489691895182   -0.69425082892543   -1.83126221879468
C        -1.96554799269823   -1.41505406775150   -2.58011859440899
C        -1.58424342582245   -2.58026838974753   -1.81440474544346
C        -2.33210298571052   -2.58027848127437   -0.60388528185936
C        -3.18797739986047   -1.41528001298276   -0.60260515823947
C        -1.00999325019219   -0.71857135668334   -3.29879007254022
C        -1.00999325020297    0.71857135666398   -3.29879007260939
C         0.37324803588690    1.14886590471512   -3.28867253190863
C         1.20051563246049   -0.00000000002218   -3.30397201954731
C         0.37324803589412   -1.14886590472409   -3.28867253184271
Cl       -1.95366366105060   -0.00000000007353    5.24566035269461
Cl        3.82524477528542   -0.00000000006040   -4.09508668767833
62
 energy: -137.548314670535 gnorm: 0.001337594131 xtb: 6.4.1 (a3dbbd7)
C        -1.30170707951833    0.00000000021365    3.53448570740571
C        -0.37301113034519   -1.17456882581602    3.31386869915222
C         0.98040979915393   -0.72138128287448    3.29453762189927
C         0.98040979922166    0.72138128295341    3.29453762194114
C        -0.37301113026078    1.17456882628170    3.31386869923792
C         2.33798680618392   -2.57938404369241    0.59875240577552
C         3.17561723682478   -1.41488803293194    0.59282015908551
C         2.94464890957328   -0.69176423637767    1.82004456589617
C         1.95070590606793   -1.41520901073119    2.57581881339022
C         1.58106546797090   -2.57958365877216    1.82394647815336
C         3.17561723676201    1.41488803294529    0.59282015912353
C         2.33798680631317    2.57938404402528    0.59875240574054
C         1.58106546798949    2.57958365910187    1.82394647831103
C         1.95070590607196    1.41520901074488    2.57581881333707
C         2.94464890944287    0.69176423627579    1.82004456582209
C        -0.36024011461591    3.43870202925971    0.59047004231989
C        -1.73945899010525    3.00064474032133    0.59620215529991
C        -1.97369457744429    2.29323064041898    1.80401618139851
C        -0.73133260679480    2.27444867092875    2.57137344345485
C         0.25430841990472    2.99472043870692    1.81740452093077
C        -3.40358311710687    0.71867600729341    0.57306250373399
C        -3.40358311778452   -0.71867600716348    0.57306250392566
C        -2.77480534718334   -1.14903837337378    1.80474664392518
C        -2.41796119864759    0.00000000015027    2.55086588706811
C        -2.77480534651662    1.14903837334760    1.80474664372642
C        -1.73945899054913   -3.00064474108679    0.59620215584231
C        -0.36024011460718   -3.43870202917790    0.59047004246150
C         0.25430841985868   -2.99472043865595    1.81740452100168
C        -0.73133260695007   -2.27444867072497    2.57137344349184
C        -1.97369457851876   -2.29323064124644    1.80401618226802
C        -0.24542572404083   -3.00057182976114   -1.82184487770352
C         0.72993802760893   -2.29373013759955   -2.57192582242085
C         1.97211262360041   -2.27424310809454   -1.80394708942131
C         1.73865484893533   -2.99419979976114   -0.58500246352162
C         0.36653371693641   -3.43824818492352   -0.58565472702500
C         2.79667879840283   -1.17441359864403   -1.81633230553670
C         2.57870514115559    0.00000000021584   -2.74486540164603
C         2.79667879844343    1.17441359910356   -1.81633230546591
C         3.38402920264152    0.72132443300168   -0.59655989116115
C         3.38402920259672   -0.72132443292601   -0.59655989121505
C         1.97211262359160    2.27424310831161   -1.80394708923844
C         0.72993802728396    2.29373013682650   -2.57192582105894
C        -0.24542572435083    3.00057182904766   -1.82184487705326
C         0.36653371678047    3.43824818502553   -0.58565472694003
C         1.73865484886680    2.99419979982866   -0.58500246342369
C        -1.58396203543219    2.58045121333465   -1.81460675611494
C        -1.96532075082935    1.41520190333597   -2.58039381849040
C        -2.96437285899139    0.69423021884084   -1.83140469806568
C        -3.18750607310303    1.41522450428004   -0.60280756917256
C        -2.33186803765128    2.58034929681168   -0.60409080190938
C        -2.96437285992662   -0.69423021881366   -1.83140469864011
C        -1.96532075137925   -1.41520190370732   -2.58039381932771
C        -1.58396203597248   -2.58045121398990   -1.81460675687029
C        -2.33186803855491   -2.58034929748018   -0.60409080208315
C        -3.18750607409651   -1.41522450467623   -0.60280756930671
C        -1.01002047364414   -0.71856322394386   -3.29912619665612
C        -1.01002047352977    0.71856322412241   -3.29912619596808
C         0.37306035919574    1.14891740583621   -3.28832744199498
C         1.20010658653193    0.00000000020195   -3.30292524052842
C         0.37306035910321   -1.14891740577158   -3.28832744265682
Cl       -1.95309723385871    0.00000000094075    5.24544631264427
Cl        3.81980851243038    0.00000000068346   -4.09285985245751
62
 energy: -137.548316801520 gnorm: 0.000374729434 xtb: 6.4.1 (a3dbbd7)
C        -1.30181991961273    0.00000000703766    3.53451698787733
C        -0.37309812834255   -1.17458922461062    3.31367559352010
C         0.98026850011326   -0.72134235384385    3.29418640814981
C         0.98026850239584    0.72134235857618    3.29418641007758
C        -0.37309812557339    1.17458923973428    3.31367559589274