63
 energy: -142.115062014986 gnorm: 0.043588011226 xtb: 6.4.1 (a3dbbd7)
C        -1.32501946499902    0.01335960909192    3.58189418454892
C        -0.38330463420598   -1.13523962711650    3.27937253821443
C         0.94927342920314   -0.70638554926803    3.27176828805773
C         0.96696462890300    0.70168710774175    3.26416912931353
C        -0.40480360358906    1.16231562919241    3.28829960117116
C         2.30787665868785   -2.55661501470688    0.57516327470906
C         3.16311420203054   -1.39783321011411    0.57161021843189
C         2.94367108683591   -0.70115790233290    1.79607897793892
C         2.08322743145905   -1.51050991017037    2.72870482274985
C         1.57940607922449   -2.57520720811962    1.79676052579968
C         3.16959630654359    1.38989653820780    0.56293666362844
C         2.32402928526727    2.54932692416685    0.56788296995342
C         1.56038973341587    2.54751787539547    1.79017443887292
C         1.92604821556105    1.40091230923457    2.54120926993618
C         2.92937643143392    0.66852210295088    1.79030634426624
C        -0.36565127027859    3.41073344617399    0.58042769974576
C        -1.73343439883372    2.96664576115230    0.57308394392245
C        -1.99288033812997    2.26179417252463    1.79473368630280
C        -0.74882381123858    2.26051351895920    2.56830274850757
C         0.23901919407736    2.96614280801749    1.79599458495443
C        -3.37414386786631    0.72083684945244    0.57279184973826
C        -3.36055808658761   -0.71045375830550    0.57691657504299
C        -2.79143321550540   -1.15005580472348    1.80762027237744
C        -2.66434335897495    0.01080912352488    2.76227657261391
C        -2.80486978190378    1.16813851511655    1.80812085247515
C        -1.71450462824241   -2.95049747485352    0.57318750374910
C        -0.35259205388920   -3.38980430032673    0.57226215636341
C         0.26393344921287   -2.95527580965615    1.79753442119898
C        -0.74344304652311   -2.25170220073815    2.56447666533670
C        -1.97064647309209   -2.24644958986852    1.80417429561562
C        -0.23648084736904   -2.98955435805132   -1.85076046463201
C         0.75130621007492   -2.27779634049995   -2.61218600939161
C         1.96621755888600   -2.27185485392367   -1.83733442380710
C         1.72744525474091   -2.97824292624389   -0.61547662254082
C         0.36451666114812   -3.40984505825541   -0.61216837158083
C         2.78337850017364   -1.15360329101371   -1.83837000043133
C         2.41438259269034    0.00630473198781   -2.61367067066780
C         2.79156985541132    1.16518385477107   -1.84987339450846
C         3.39448735543038    0.71880187325188   -0.62293555288559
C         3.38492472363039   -0.71239160897725   -0.61617098523392
C         1.97468704603427    2.28388907101305   -1.84095778537515
C         0.75446731907028    2.28634698049907   -2.59734938550140
C        -0.23633671392049    2.99469585396484   -1.83466621945612
C         0.36443953705968    3.42295463432549   -0.60182040025973
C         1.73570719709297    2.98325100232508   -0.60726131765192
C        -1.55332526068265    2.56807244837651   -1.84215982328044
C        -1.92904285136990    1.41190558649358   -2.60763276219329
C        -2.91619775009463    0.69508561353461   -1.83609084826687
C        -3.14554093472149    1.40423415244832   -0.61082595201234
C        -2.30582051934135    2.56201174647705   -0.61672434513556
C        -2.91447616593200   -0.68894684271517   -1.83366926677277
C        -1.93055302145709   -1.40731419665793   -2.61086677485219
C        -1.55238644085756   -2.56187565465278   -1.84754255953812
C        -2.29542875050101   -2.54963308310832   -0.61330748209901
C        -3.14194569654471   -1.39728173480080   -0.61186782785076
C        -0.97807030343522   -0.71688085147213   -3.33844635111929
C        -0.97679872914504    0.72504096592415   -3.33717521561244
C         0.39136834694855    1.16944631264338   -3.33543310202642
C         1.23827050586158    0.00676988022629   -3.34042618382557
C         0.38937326056520   -1.15984597791261   -3.34181153522684
Cl       -1.64733358901183   -0.01383434761443    5.36675802695056
Cl       -4.11940708672223   -0.00418330369880    3.85251877853011
Cl        3.06309991119735   -2.20516899747423    4.11668816630645
63
 energy: -142.118546902656 gnorm: 0.019618052276 xtb: 6.4.1 (a3dbbd7)
C        -1.31162292188080    0.00979632108056    3.57456937074319
C        -0.37894358385569   -1.15038540582420    3.27670555876035
C         0.95180581604650   -0.70829268052773    3.27112543812649
C         0.96582890418855    0.70919473220347    3.25876076645145
C        -0.39855919255270    1.17349850409054    3.28522953591172
C         2.31045338705251   -2.56560921231769    0.58024773892740
C         3.16190248695542   -1.39947371457640    0.58037696082113
C         2.95183922197516   -0.69378723800340    1.80271985107130
C         2.08048539333663   -1.51235963898553    2.72332797174283
C         1.57732413314643   -2.59047729400389    1.79932689480639
C         3.17208611862007    1.40394901583074    0.57214602005041
C         2.32764159071423    2.56895402788442    0.57371613389039
C         1.56704269122916    2.56620529182750    1.79878831301802
C         1.93689803963255    1.41615444468227    2.55171940727582
C         2.93597078397012    0.68063702989290    1.79683185290758
C        -0.36600207027893    3.43148896844207    0.57821329475531
C        -1.73728059665236    2.98862227101197    0.57204869881323
C        -1.99026079581206    2.27734704878295    1.79310321692602
C        -0.74711638241715    2.27778817465692    2.56617386900546
C         0.24046306476756    2.99034263019539    1.79900739538755
C        -3.37410399292932    0.72357602405584    0.57057837525086
C        -3.36553322026151   -0.71358363903395    0.57313897599185
C        -2.78724019875323   -1.15602051873629    1.79802182622367
C        -2.64871552027009    0.00808920472972    2.75264537231836
C        -2.79711717950016    1.17320983486119    1.80089091525998
C        -1.72400535713524   -2.97504792265594    0.56781020949781
C        -0.35830172575793   -3.41804620111374    0.56850339543590
C         0.25689363716464   -2.97859431227831    1.79376707151821
C        -0.74637700988965   -2.27613880260984    2.56646519483902
C        -1.96905092565382   -2.26128529082695    1.79601327913686
C        -0.24124941124287   -3.00388581329244   -1.84824390007201
C         0.75035240079918   -2.28618182894472   -2.60450079870516
C         1.97188929955884   -2.28298576175544   -1.83561651702707
C         1.73100332034412   -2.99554535049215   -0.61225701970928
C         0.36627816458951   -3.43622789639717   -0.61457439598161
C         2.78926803071876   -1.16101516881416   -1.83449322293751
C         2.41504100993429    0.00358600115901   -2.60033968337980
C         2.79456645253682    1.16772486113090   -1.84054847766141
C         3.40132503947531    0.72114191233763   -0.61343950972648
C         3.39349576683134   -0.71422103460155   -0.60892185753714
C         1.97531317895382    2.28906680356924   -1.83527750291633
C         0.75206294367438    2.29059575551735   -2.59403114037722
C        -0.24079020593567    3.00580083103130   -1.83436502146639
C         0.36558392022802    3.44254850299698   -0.60435655603916
C         1.73766863460485    3.00034790053913   -0.60524284366458
C        -1.56207498333685    2.57989120889066   -1.84260422071704
C        -1.93829276622995    1.41676843513823   -2.60419852153076
C        -2.93007896352747    0.69704805204180   -1.84342621095893
C        -3.15700941165614    1.41322010258235   -0.61588112461700
C        -2.31895866277176    2.57662822191569   -0.61841517473516
C        -2.92889955039944   -0.68991160693633   -1.84186650795834
C        -1.93904213784274   -1.41185747265928   -2.60814170864261
C        -1.56107074785507   -2.57417791107847   -1.84855093818429
C        -2.31226718479608   -2.56619174546464   -0.61891871890896
C        -3.15476901656116   -1.40553719234082   -0.61786596797298
C        -0.98238564077011   -0.71821068285464   -3.33563233083127
C        -0.98184459535602    0.72489779909001   -3.33372722760555
C         0.38807880490523    1.16907786412880   -3.33043255186985
C         1.23543194224717    0.00430643064187   -3.33085292172171
C         0.38689325408293   -1.16327380381028   -3.33475166023707
Cl       -1.59522178225889   -0.01439374619597    5.36461004718634
Cl       -4.12025074203590   -0.00120510243879    3.81614730321310
Cl        3.05952031679850   -2.20987400557627    4.10796239201703
63
 energy: -142.118816767275 gnorm: 0.009226645748 xtb: 6.4.1 (a3dbbd7)
C        -1.30678155520869    0.00794541504621    3.56084477377748
C        -0.37473793861170   -1.15516693432897    3.26966522158549
C         0.95320982139283   -0.70852732245532    3.27037877752675
C         0.96362416350571    0.71404127165394    3.25333894383525
C        -0.39407261984112    1.17845349939680    3.27949024301703
C         2.31137128734990   -2.56898686113264    0.58205375805125
C         3.15979118568069   -1.39980333758628    0.58351489641072
C         2.95425818688491   -0.69061320389067    1.80400302435405
C         2.07907666312108   -1.51261464588144    2.72241133114675
C         1.57669581962716   -2.59597061997901    1.79979886293585
C         3.17271508802468    1.41019011648078    0.57647489395932
C         2.32877186789349    2.57787295312340    0.57712134042042
C         1.57075054847809    2.57518080170241    1.80408292862961
C         1.94368417974226    1.42412362054225    2.55842607460763
C         2.93738041216019    0.68573590002200    1.79807423835098
C        -0.36607858284571    3.44259331610970    0.57678185084070
C        -1.73896222431162    3.00112504575351    0.57099167575702
C        -1.98790315848483    2.28641004331092    1.79101631305558
C        -0.74563004614670    2.28675407569337    2.56250229531914
C         0.24159208696846    3.00356815254538    1.80090570071483
C        -3.37238889864909    0.72505470747827    0.56947169477754
C        -3.36659730291858   -0.71558357349488    0.57166837300773
C        -2.78350604200720   -1.15993754957504    1.79187581651771
C        -2.63633970199810    0.00688799782954    2.74434856722100
C        -2.79080976247182    1.17639097460558    1.79434906801155
C        -1.72757745797077   -2.98809364320282    0.56565161812227
C        -0.35994951823382   -3.43295368754647    0.56709267769508
C         0.25411962141300   -2.99044814140881    1.79158189276433
C        -0.74611790800694   -2.28779644929082    2.56556910624137
C        -1.96642074733947   -2.26914270444355    1.79124223587385
C        -0.24327970683812   -3.01049149429785   -1.84602875002340
C         0.74940910780087   -2.28933449370691   -2.59974701838162
C         1.97380201834671   -2.28727336813033   -1.83461723121827
C         1.73357479786779   -3.00524173471420   -0.61102750590866
C         0.36858088319001   -3.45000419488656   -0.61574199470693
C         2.79054591846542   -1.16373435086068   -1.83297189227511
C         2.41446953094238    0.00230193447821   -2.59318415792889
C         2.79467015118384    1.16836223511414   -1.83481971030737
C         3.40481177905458    0.72120266162716   -0.60864416602902
C         3.39884093748911   -0.71506890846116   -0.60599339948767
C         1.97477803024217    2.29035989026280   -1.83104136818316
C         0.75022648465833    2.29151560485142   -2.59067101160774
C        -0.24329173916141    3.01078126311065   -1.83338307770382
C         0.36638175044415    3.45295079861046   -0.60549054001284
C         1.73829717268044    3.00817665614970   -0.60358935309975
C        -1.56619000504837    2.58536451819122   -1.84211076828838
C        -1.94262460060302    1.41885461368454   -2.60172170545942
C        -2.93497928444669    0.69744179086519   -1.84650391474045
C        -3.16359742666803    1.41865663481196   -0.61828876158398
C        -2.32629931015692    2.58369829575535   -0.61906814675207
C        -2.93404219349342   -0.69053843801383   -1.84500699863126
C        -1.94222587690147   -1.41397340873608   -2.60530008949548
C        -1.56450573529253   -2.58022454997657   -1.84794210535769
C        -2.32038941254942   -2.57436029516724   -0.62088177016342
C        -3.16117384783810   -1.41084840804938   -0.62005981967657
C        -0.98423267632861   -0.71837778526691   -3.33298377526196
C        -0.98421703138027    0.72438607617716   -3.33109229365158
C         0.38609820877703    1.16828693421132   -3.32590859300030
C         1.23353151916712    0.00312728713078   -3.32532377661787
C         0.38567899643875   -1.16421576105719   -3.32986323437814
Cl       -1.62910154858604   -0.01291099786397    5.34129088971206
Cl       -4.07959223793739    0.00111746730523    3.84060104029591
Cl        3.05884915219066   -2.21896947843328    4.10160521898489
63
 energy: -142.119064369837 gnorm: 0.003472183333 xtb: 6.4.1 (a3dbbd7)
C        -1.30841751249564    0.00779094592999    3.56313418452423
C        -0.37363387000114   -1.15226127111551    3.26627596200760
C         0.95330243940964   -0.70809466988637    3.26934405993214
C         0.96252781487615    0.71473181856591    3.25092231507602
C        -0.39322180006746    1.17676158471061    3.27713220901711
C         2.31065441254306   -2.56824949458044    0.58212182853976
C         3.15866297453805   -1.39946564426335    0.58310140352433
C         2.95389590650539   -0.69069651666307    1.80305955933949
C         2.07902332650630   -1.51210022350431    2.72318960254191
C         1.57635568486916   -2.59471691527455    1.79965557213423
C         3.17214127380305    1.41002024740816    0.57650618722303
C         2.32796354120436    2.57761910250682    0.57775519535357
C         1.57054129573628    2.57495697202163    1.80500930744815
C         1.94469816046927    1.42450796749212    2.55939438677535
C         2.93663488875256    0.68545675181804    1.79700011079686
C        -0.36662293357042    3.44270106147079    0.57731818060060
C        -1.73921958185459    3.00138570549781    0.57159591252243
C        -1.98777232051306    2.28635555464749    1.79139438654706
C        -0.74597509549336    2.28637516664700    2.56203456838119
C         0.24109541155761    3.00373832202650    1.80196306811711
C        -3.37070808031269    0.72489816377605    0.56931255920427
C        -3.36520499844498   -0.71563668221229    0.57178687391924
C        -2.78236224193745   -1.15885344045188    1.79132575845190
C        -2.63938770573287    0.00694820188567    2.74675559731489
C        -2.78887653806829    1.17506504065324    1.79265495211805
C        -1.72746140135173   -2.98789324764611    0.56687919466896
C        -0.35993738562487   -3.43313141535189    0.56816908910136
C         0.25364424145433   -2.99020441394391    1.79216122072358
C        -0.74598407313182   -2.28706488468374    2.56567912214512
C        -1.96594876883548   -2.26853985551315    1.79187544551114
C        -0.24343177583984   -3.01020686879686   -1.84482804612915
C         0.74885451530419   -2.28876631402612   -2.59861184268777
C         1.97300345378895   -2.28660268594342   -1.83403564153738
C         1.73358189886008   -3.00607900370557   -0.61067331132642
C         0.36891561331603   -3.45030839040192   -0.61497438967532
C         2.78938198736058   -1.16326567643439   -1.83294669828566
C         2.41376646003846    0.00224585748740   -2.59241889621483
C         2.79366879946346    1.16807546694320   -1.83386475302047
C         3.40482385717639    0.72055970575945   -0.60836173866304
C         3.39959115038104   -0.71497021605759   -0.60607263209999
C         1.97397571107777    2.28961105387967   -1.82974676697540
C         0.74953565952113    2.29077998385066   -2.58924021791891
C        -0.24379819224900    3.01044137237302   -1.83238842572829
C         0.36598753573519    3.45325584284437   -0.60472349592101
C         1.73766693325958    3.00791822984521   -0.60279702895630
C        -1.56628715289710    2.58514523777788   -1.84128421980520
C        -1.94258815482401    1.41868266240283   -2.60111414286171
C        -2.93397614629322    0.69707980110525   -1.84647087674968
C        -3.16417607425769    1.41920883560567   -0.61826435113570
C        -2.32700705116127    2.58329263680741   -0.61843206213924
C        -2.93305297691445   -0.69060351763527   -1.84471379340226
C        -1.94175131904946   -1.41394518938144   -2.60424220433279
C        -1.56424150739383   -2.58023131013634   -1.84684016788883
C        -2.32056664578354   -2.57408744393227   -0.61989195095677
C        -3.16126478670594   -1.41151701988505   -0.61959075089203
C        -0.98421995384888   -0.71810524994342   -3.33221267688120
C        -0.98420289849472    0.72404684110671   -3.33047067088846
C         0.38578874130628    1.16793247487472   -3.32448816397381
C         1.23307325457750    0.00306697792712   -3.32459868770993
C         0.38558284058741   -1.16384703079830   -3.32876424657612
Cl       -1.59459410945563   -0.01332798801301    5.35013063172318
Cl       -4.10601815073572    0.00267490299955    3.81175398846700
Cl        3.05954269226671   -2.22285169867395    4.09988883117114
63
 energy: -142.119089690853 gnorm: 0.001874610230 xtb: 6.4.1 (a3dbbd7)
C        -1.30920239177378    0.00807279951661    3.56350791617492
C        -0.37390940449068   -1.15154211839604    3.26687785129443
C         0.95278535855125   -0.70834960398478    3.26962395344898
C         0.96207804769963    0.71437163394231    3.25137426061335
C        -0.39362404758970    1.17655937961926    3.27809311663353
C         2.30998288239727   -2.56730640681388    0.58184833474017
C         3.15835480766907   -1.39911755291016    0.58261502162654
C         2.95334887954184   -0.69125393168482    1.80284450867721
C         2.07885913302348   -1.51202305087129    2.72352105520131
C         1.57624321499365   -2.59369679513596    1.79941313947529
C         3.17143548127975    1.40869565663111    0.57581080611256
C         2.32726072869049    2.57585847410442    0.57724286353649
C         1.56954537966428    2.57324887602380    1.80420072317160
C         1.94342951508482    1.42329441842669    2.55867320273934
C         2.93593568192812    0.68447696691012    1.79663297057612
C        -0.36676548623628    3.44084115227714    0.57731132081633
C        -1.73891060221432    2.99939316654581    0.57156138729739
C        -1.98829516117017    2.28543787363876    1.79171439918426
C        -0.74650152639683    2.28570955619236    2.56268817292331
C         0.24066067879231    3.00167704807524    1.80174777734179
C        -3.37047798828258    0.72467520512899    0.56955256394153
C        -3.36465417445724   -0.71546719669038    0.57220214319468
C        -2.78307562878814   -1.15862715266047    1.79214802868314
C        -2.63935979005428    0.00723187204336    2.74718603639095
C        -2.78964128164139    1.17485905439941    1.79299854683078
C        -1.72674460530653   -2.98561671492951    0.56721949313194
C        -0.35962085430146   -3.43056372874748    0.56834922341924
C         0.25395265267500   -2.98861706049019    1.79254317940927
C        -0.74611618438066   -2.28575660574059    2.56596309486138
C        -1.96637673632280   -2.26757361438191    1.79267471085014
C        -0.24304671119747   -3.00872817698476   -1.84516408945662
C         0.74902563027502   -2.28784620832801   -2.59932806149891
C         1.97247402973693   -2.28546872688679   -1.83408708601770
C         1.73302543804389   -3.00456470356654   -0.61087859916952
C         0.36864348571383   -3.44776164606077   -0.61486282398300
C         2.78885692533664   -1.16257432832563   -1.83323092000128
C         2.41377765071267    0.00239200336314   -2.59350749946584
C         2.79344784998661    1.16786212012785   -1.83469413588682
C         3.40402970179029    0.72026650676559   -0.60905016397796
C         3.39883735396520   -0.71464221903512   -0.60638816209800
C         1.97390770863313    2.28901521530044   -1.83025769545468
C         0.74978487354323    2.29024791888201   -2.58967795167703
C        -0.24342016893374    3.00925676239850   -1.83257840742165
C         0.36575946598473    3.45140528591488   -0.60458723681860
C         1.73737760660570    3.00629346551636   -0.60302951930802
C        -1.56540470466800    2.58395183233630   -1.84139290625965
C        -1.94160826476959    1.41806009195753   -2.60154811425957
C        -2.93259795688352    0.69685865005007   -1.84609094511191
C        -3.16313437778946    1.41846082848044   -0.61784298833937
C        -2.32582651492414    2.58170023710653   -0.61837747679869
C        -2.93164340933885   -0.69045113502868   -1.84419808063505
C        -1.94086267897037   -1.41336434430507   -2.60460974747103
C        -1.56338827692774   -2.57901322028573   -1.84692205935027
C        -2.31910318336343   -2.57237314465121   -0.61952320124444
C        -3.16010533191826   -1.41082532574595   -0.61907671230894
C        -0.98376332310200   -0.71793763479694   -3.33284440575431
C        -0.98356292783229    0.72393862121586   -3.33108329993371
C         0.38627481685422    1.16795763244018   -3.32528674393679
C         1.23348504352754    0.00322235131319   -3.32568429577781
C         0.38601018857596   -1.16353279919976   -3.32970077190163
Cl       -1.59947191124508   -0.01463982192378    5.34962677067072
Cl       -4.10228062822750    0.00338577453537    3.81667294082788
Cl        3.05987729512757   -2.22173725082494    4.10028300111058
63
 energy: -142.119092769539 gnorm: 0.000360905167 xtb: 6.4.1 (a3dbbd7)
C        -1.30945619662783    0.00799044810371    3.56269159195022
C        -0.37347259892785   -1.15139265726034    3.26617512795747
C         0.95266529484188   -0.70862700422626    3.26950453214651
C         0.96155215565782    0.71477624019767    3.25094601367352
C        -0.39325235740471    1.17675262229054    3.27799762935512
C         2.30963289410669   -2.56699832746904    0.58190431340603
C         3.15798868442337   -1.39889712009227    0.58257868469121
C         2.95341270619690   -0.69124418732167    1.80278977639701
C         2.07877655981404   -1.51202003760144    2.72364356149025
C         1.57617284459426   -2.59361038071232    1.79929733477123
C         3.17112559402077    1.40853120877713    0.57577671790978
C         2.32694269478361    2.57568816929729    0.57725113635199
C         1.56934935396155    2.57314094326167    1.80425445248456
C         1.94343573719595    1.42340854714868    2.55890995120897
C         2.93578423444322    0.68442806789738    1.79643839505085
C        -0.36683014481712    3.44079697756455    0.57723758479443
C        -1.73886544985111    2.99949070698061    0.57161769683653
C        -1.98835566967796    2.28587865342391    1.79196877565064
C        -0.74666323688098    2.28627707019034    2.56285919901012
C         0.24055678216358    3.00171852963482    1.80199216133834
C        -3.36995655705385    0.72464913233902    0.56971006001473
C        -3.36429443517082   -0.71560126452710    0.57247495147933
C        -2.78311385344849   -1.15875007379674    1.79217563156291
C        -2.63892753682184    0.00733521109796    2.74734267530261
C        -2.78923612838284    1.17489173552246    1.79248321993963
C        -1.72664156069985   -2.98556614148011    0.56737100352477
C        -0.35955908196960   -3.43052945601376    0.56843105605767
C         0.25388538563322   -2.98892649654970    1.79269325359131
C        -0.74622821576023   -2.28636348943363    2.56626164390385
C        -1.96632062179499   -2.26776423171560    1.79288327041356
C        -0.24301072968012   -3.00846124237898   -1.84505663992637
C         0.74907036272727   -2.28759468171761   -2.59926348376138
C         1.97239019438117   -2.28522937512552   -1.83401463341159
C         1.73292510154031   -3.00466107962201   -0.61084322924418
C         0.36874769428770   -3.44758018913213   -0.61481118799228
C         2.78870171694417   -1.16246349370092   -1.83336526439332
C         2.41370102558184    0.00230487192675   -2.59349448385510
C         2.79333223635804    1.16782220278432   -1.83472964329974
C         3.40396015060255    0.72007847258339   -0.60905539817140
C         3.39903336486202   -0.71446554415023   -0.60630584321061
C         1.97376841648428    2.28875968640015   -1.83017816956157
C         0.74966269176435    2.29000440384149   -2.58961251737644
C        -0.24350017461286    3.00899864507727   -1.83252112579065
C         0.36567953621617    3.45127524773745   -0.60450371530757
C         1.73728143556902    3.00606585293232   -0.60300967080677
C        -1.56530774989344    2.58377624983693   -1.84128135180186
C        -1.94157463336236    1.41788954588144   -2.60147977966515
C        -2.93231333527427    0.69676043019395   -1.84615219635478
C        -3.16312092489693    1.41861787180597   -0.61768365495309
C        -2.32587083460798    2.58140595653874   -0.61821355958347
C        -2.93130061470567   -0.69040669784640   -1.84413140210910
C        -1.94060838151851   -1.41318137585029   -2.60440753449421
C        -1.56316063153254   -2.57888194690270   -1.84679859586224
C        -2.31901076924719   -2.57212900120548   -0.61932836154179
C        -3.15996617427760   -1.41100150087291   -0.61882644200189
C        -0.98368628584594   -0.71783058131791   -3.33295109929776
C        -0.98359144919612    0.72380949722913   -3.33123176695030
C         0.38626641339095    1.16792664964889   -3.32539718307678
C         1.23349562865591    0.00319108919357   -3.32589970231520
C         0.38619621808555   -1.16347551299990   -3.32985394121261
Cl       -1.60175201428448   -0.01598686443468    5.34807840957916
Cl       -4.10049848665738    0.00482955047573    3.81791585993594
Cl        3.05992499850112   -2.22192432056510    4.09996431913731
63
 energy: -142.119093039294 gnorm: 0.000151054162 xtb: 6.4.1 (a3dbbd7)
C        -1.30947082800458    0.00798812575542    3.56300245339956
C        -0.37350469189294   -1.15137666921127    3.26609401448558
C         0.95261753748074   -0.70862928750739    3.26942132019220
C         0.96157442448896    0.71482612612348    3.25104386352820
C        -0.39331479763137    1.17674655327052    3.27804436131254
C         2.30965160988975   -2.56704896983177    0.58193010728615
C         3.15804264205248   -1.39892969836927    0.58259685111176
C         2.95336829060064   -0.69123796756791    1.80281545947957
C         2.07880855749797   -1.51206670639745    2.72366327376882
C         1.57617824567051   -2.59366495380685    1.79931255949678
C         3.17118248536888    1.40857620456944    0.57583430056664
C         2.32697396818081    2.57573741467440    0.57727105152778
C         1.56933894937653    2.57321001321066    1.80425505179868
C         1.94336688968963    1.42342133301138    2.55887364252290
C         2.93580163648127    0.68445019307757    1.79648969159563
C        -0.36684505061235    3.44082614822088    0.57723097919177
C        -1.73890697444352    2.99952694389934    0.57160283712756
C        -1.98840114692614    2.28591022695971    1.79197386528064
C        -0.74671424486342    2.28628444972623    2.56287838345596
C         0.24053384430743    3.00172403845234    1.80201466602372
C        -3.37000079536656    0.72463245976531    0.56965787591775
C        -3.36434847046160   -0.71563175558906    0.57244935773088
C        -2.78318332436457   -1.15877479420314    1.79219613579868
C        -2.63902791388959    0.00734328277693    2.74741469598430
C        -2.78922927007488    1.17487787118179    1.79244580115059
C        -1.72667247825015   -2.98561458096142    0.56733146410546
C        -0.35957471767182   -3.43057582854158    0.56841759427968
C         0.25387375165941   -2.98895948160443    1.79270649691892
C        -0.74630987115313   -2.28644159891877    2.56626437927763
C        -1.96634310483100   -2.26778676720817    1.79286670528633
C        -0.24302477152096   -3.00850254603995   -1.84508682640104
C         0.74908752985559   -2.28763697462259   -2.59928713233454
C         1.97242843513240   -2.28528586600846   -1.83402241941528
C         1.73291085736112   -3.00465802038402   -0.61083983812957
C         0.36872992755251   -3.44761237948054   -0.61480734955574
C         2.78875709719598   -1.16250717586021   -1.83336739353343
C         2.41373429665264    0.00229836834552   -2.59349301273499
C         2.79338135269559    1.16784388878009   -1.83473966375070
C         3.40397935551724    0.72012112150318   -0.60902331477547
C         3.39900129747374   -0.71445706794253   -0.60626927058011
C         1.97380142302292    2.28880850220792   -1.83019278213799
C         0.74969618753895    2.29005617631916   -2.58964213955321
C        -0.24349411153371    3.00903262347129   -1.83254178262280
C         0.36567046953886    3.45128078253926   -0.60448431534352
C         1.73731011435510    3.00610449251211   -0.60299971757647
C        -1.56532067407641    2.58381195469244   -1.84131787505887
C        -1.94159599354852    1.41790673942857   -2.60151623605674
C        -2.93239941186242    0.69677631652695   -1.84622321735128
C        -3.16310628309127    1.41861240744516   -0.61772975706243
C        -2.32588467404518    2.58144165323983   -0.61824490394426
C        -2.93137601236950   -0.69041188925081   -1.84417569900734
C        -1.94066404646885   -1.41320556286496   -2.60445772476968
C        -1.56319032820378   -2.57891949595358   -1.84684745040622
C        -2.31903903148736   -2.57218338456886   -0.61936189120459
C        -3.15996879316895   -1.41101021503325   -0.61887163477415
C        -0.98372272762580   -0.71785517933333   -3.33299318474591
C        -0.98359910403117    0.72381955959235   -3.33125366858678
C         0.38629218476434    1.16795805492066   -3.32543765676894
C         1.23351721365573    0.00319139423745   -3.32591629105419
C         0.38619438197397   -1.16350348549199   -3.32988058400441
Cl       -1.60034705799613   -0.01622609092007    5.34870555454971
Cl       -4.10105724457674    0.00503970820148    3.81733717654062