108
 energy: -324.499561600829 gnorm: 0.000317425148 xtb: 6.4.1 (a3dbbd7)
C        -1.35976998191833   -0.01142769420318    3.66426368699635
C        -0.46531840773619   -1.35098886280109    3.83657455527203
C         1.05661255347356   -0.79909167475782    3.67728536937155
C         0.94819187141212    0.65284903035159    3.24604464531689
C        -0.37757395877923    1.07681217664245    3.25915979499580
C         2.32384636191566   -2.62864356538593    0.64511558434534
C         3.35566164393456   -1.52368663731485    0.68637077112418
C         2.84392206996469   -0.72293326921666    1.86311924682510
C         1.90339228745939   -1.38894070371131    2.56830581471851
C         1.64465490095207   -2.77291372625002    1.99018244152745
C         3.47655047489807    1.57791166350236    0.67733237702336
C         2.27682100537752    2.50669852705946    0.62299634094516
C         1.54086452157696    2.46164841767995    1.82360815642659
C         1.95581757086189    1.35291803160434    2.59980432383112
C         3.24773227926478    0.73637254343415    2.03325644104962
C        -0.39040040062869    3.42078073294947    0.62985643491507
C        -1.76580518992148    3.01103036309802    0.61938187799437
C        -2.01112824594910    2.28691907119698    1.83316820540549
C        -0.76081227430641    2.21400616719464    2.56904218888703
C         0.21743524134088    2.91914839423451    1.83029557477235
C        -3.40095198518587    0.73114466340080    0.58198840053465
C        -3.35953905629852   -0.68781030706478    0.56288971103450
C        -2.70194911184300   -1.11672633730746    1.77805211174533
C        -2.39888679721802   -0.02508418003594    2.56634434763738
C        -2.79133895215798    1.14769155783233    1.82422671504813
C        -1.70175058443485   -2.98830911494700    0.59506239726502
C        -0.40301377773057   -3.77733245283112    0.67009409950205
C         0.20460194184014   -3.13686994479406    1.92719059859771
C        -0.86970141512076   -2.56664849610997    2.82906193628048
C        -1.87526212667435   -2.23525913112072    1.73035381803728
C        -0.24056560709631   -3.23016875564447   -1.94440794711559
C         0.76475613262249   -2.27624403206499   -2.56908499612278
C         1.91942078729450   -2.23624949695672   -1.77294506912299
C         1.65217086143993   -2.92470444766308   -0.51681955988609
C         0.37298320813958   -3.45651986387380   -0.57058331706375
C         2.71554670984790   -1.10749480608615   -1.76221492757149
C         2.39292261690945    0.00190957902844   -2.55873215672508
C         3.00376910439587    1.24395177107551   -1.93133243370913
C         3.41542166206088    0.71024788484287   -0.54542366223606
C         3.29733604741905   -0.63112300275628   -0.52691820368184
C         1.93900594208335    2.28840013535878   -1.80755475419018
C         0.76084791552894    2.29436978604133   -2.54333850408768
C        -0.26180064232689    3.00349890924720   -1.78163487502100
C         0.33838774384892    3.40829474657239   -0.54497897342747
C         1.69619102367503    2.93083067957769   -0.54573726524955
C        -1.57928059672805    2.61777102689284   -1.80228207772973
C        -2.10528740270522    1.56069154583765   -2.77013551638328
C        -2.96429267298728    0.72396339418513   -1.82881802724612
C        -3.17892425819249    1.43077024232862   -0.60725018307891
C        -2.33413925895259    2.59484403270617   -0.59183904347665
C        -2.92515180442279   -0.64955705850249   -1.82941246625934
C        -1.92628618762637   -1.39590508438267   -2.58983735358387
C        -1.56985302217225   -2.54764620899226   -1.82735512462113
C        -2.26035760563939   -2.53021465424571   -0.61889575837136
C        -3.12393690263219   -1.36874187821529   -0.61004529956238
C        -0.98267195338946   -0.69245510299772   -3.31488335055144
C        -0.96601840070628    0.73833019029630   -3.32239732804750
C         0.35509917734755    1.16992142810970   -3.30895165433492
C         1.22695575519753   -0.00043612815044   -3.29215943510052
C         0.39849713762570   -1.15852739254014   -3.29546077015800
C        -2.10927774187275    0.55630140555039    4.92073383596065
F        -1.29863886898990    0.98517585043122    5.88061903119131
F        -2.99577713594904   -0.27781409100182    5.44520809157648
F        -2.80442447948146    1.63903340959173    4.53865906784132
C        -0.58910808159900   -1.95915151200813    5.28182705028992
F        -0.27104116599412   -1.14270281570721    6.27718888807146
F        -1.80622310002433   -2.37204600108095    5.60995008601492
F         0.22589011475919   -3.01016099334766    5.37416204541849
C         1.87950788353720   -0.63860281549180    5.01966361499555
F         1.37018303597313    0.34693422298095    5.76444078513627
F         2.07549151157179   -1.70318500787810    5.77079072918541
F         3.09239257662452   -0.20461110668464    4.71349135984512
C         4.18218550784061    1.65073693742853   -2.85540288424788
F         5.11486091968100    0.69909189580992   -2.86777874972025
F         3.73420077455341    1.78976510453637   -4.10800304315987
F         4.77353702925089    2.79144478935752   -2.53522215650632
C         4.80518410113477   -2.08509649933381    0.75288689933261
F         5.03188533095932   -2.84109450956629    1.81599166478762
F         5.02142555119949   -2.83939903076557   -0.32757097006497
F         5.70705679346933   -1.10731193180763    0.73823626453172
C         2.38660410692971   -3.87500997672366    2.87475794894611
F         3.31431114544910   -3.31856922180852    3.64190179176158
F         2.96120069644620   -4.78503543959349    2.10091300923479
F         1.54275834912187   -4.50761209875661    3.67806639119258
C         4.67020881817056    2.60170459052673    0.59250236163349
F         4.89543672951002    3.21557474454271    1.75131185210035
F         4.33169123801979    3.59022082721505   -0.25014555072718
F         5.79207347514704    2.09418281174696    0.10703035477371
C         4.56912373984906    0.73563106788477    2.90573305819080
F         4.50081381902056    1.58656276428344    3.91860316904014
F         5.65628214054915    1.05008932040033    2.20827331202871
F         4.86154036856419   -0.48721555173467    3.35759125713861
C        -2.94152750320218    2.19185735307679   -3.90142427081240
F        -3.94759334933509    2.92312202644404   -3.41815092739792
F        -2.19862691492635    2.99243024799758   -4.66616208780605
F        -3.47142720545617    1.25854176058745   -4.69251165142874
C        -0.50235813502714   -5.35797596341035    0.74014736761539
F        -0.14545244852535   -5.83611891220654    1.92804199781180
F        -1.70765668760427   -5.81431210136364    0.42857189722456
F         0.35422951088819   -5.89374975908797   -0.13998196759676
C        -1.79562301554212   -3.72378518756639    3.48849036021900
F        -2.13432566454844   -4.61296063847201    2.55211206276575
F        -1.32398225726165   -4.44895351744087    4.47799816545774
F        -2.96928595786267   -3.18484161004759    3.84215292946496
C        -0.35777606126290   -4.51659784840989   -2.80442680192955
F         0.80406452331543   -5.15184658189050   -2.90696540138647
F        -0.75049434269440   -4.19772844509139   -4.04164765415218
F        -1.25713557349851   -5.36363132827758   -2.31378367396671
