108
 energy: -315.602181568268 gnorm: 5.059207019512 xtb: 6.4.1 (a3dbbd7)
C        -1.23626340000000    0.00000000000000    3.32997640000000
C        -0.38202640000000   -1.17575640000000    3.32997640000000
C         1.00015810000000   -0.72665740000000    3.32997640000000
C         1.00015810000000    0.72665740000000    3.32997640000000
C        -0.38202640000000    1.17575640000000    3.32997640000000
C         2.34433560000000   -2.60145750000000    0.59464210000000
C         3.19857260000000   -1.42570110000000    0.59464210000000
C         2.96246730000000   -0.69904370000000    1.83090550000000
C         1.96230920000000   -1.42570110000000    2.59495830000000
C         1.58028280000000   -2.60145750000000    1.83090550000000
C         3.19857260000000    1.42570110000000    0.59464210000000
C         2.34433560000000    2.60145750000000    0.59464210000000
C         1.58028280000000    2.60145750000000    1.83090550000000
C         1.96230920000000    1.42570110000000    2.59495830000000
C         2.96246730000000    0.69904370000000    1.83090550000000
C        -0.36750900000000    3.48258920000000    0.59464210000000
C        -1.74969350000000    3.03349030000000    0.59464210000000
C        -1.98579880000000    2.30683290000000    1.83090550000000
C        -0.74953540000000    2.30683290000000    2.59495830000000
C         0.25062270000000    3.03349030000000    1.83090550000000
C        -3.42570570000000    0.72665740000000    0.59464210000000
C        -3.42570570000000   -0.72665740000000    0.59464210000000
C        -2.80757400000000   -1.17575640000000    1.83090550000000
C        -2.42554760000000    0.00000000000000    2.59495830000000
C        -2.80757400000000    1.17575640000000    1.83090550000000
C        -1.74969350000000   -3.03349030000000    0.59464210000000
C        -0.36750900000000   -3.48258920000000    0.59464210000000
C         0.25062270000000   -3.03349030000000    1.83090550000000
C        -0.74953540000000   -2.30683290000000    2.59495830000000
C        -1.98579880000000   -2.30683290000000    1.83090550000000
C        -0.25062270000000   -3.03349030000000   -1.83090550000000
C         0.74953540000000   -2.30683290000000   -2.59495830000000
C         1.98579880000000   -2.30683290000000   -1.83090550000000
C         1.74969350000000   -3.03349030000000   -0.59464210000000
C         0.36750900000000   -3.48258920000000   -0.59464210000000
C         2.80757400000000   -1.17575640000000   -1.83090550000000
C         2.42554760000000    0.00000000000000   -2.59495830000000
C         2.80757400000000    1.17575640000000   -1.83090550000000
C         3.42570570000000    0.72665740000000   -0.59464210000000
C         3.42570570000000   -0.72665740000000   -0.59464210000000
C         1.98579880000000    2.30683290000000   -1.83090550000000
C         0.74953540000000    2.30683290000000   -2.59495830000000
C        -0.25062270000000    3.03349030000000   -1.83090550000000
C         0.36750900000000    3.48258920000000   -0.59464210000000
C         1.74969350000000    3.03349030000000   -0.59464210000000
C        -1.58028280000000    2.60145750000000   -1.83090550000000
C        -1.96230920000000    1.42570110000000   -2.59495830000000
C        -2.96246730000000    0.69904370000000   -1.83090550000000
C        -3.19857260000000    1.42570110000000   -0.59464210000000
C        -2.34433560000000    2.60145750000000   -0.59464210000000
C        -2.96246730000000   -0.69904370000000   -1.83090550000000
C        -1.96230920000000   -1.42570110000000   -2.59495830000000
C        -1.58028280000000   -2.60145750000000   -1.83090550000000
C        -2.34433560000000   -2.60145750000000   -0.59464210000000
C        -3.19857260000000   -1.42570110000000   -0.59464210000000
C        -1.00015810000000   -0.72665740000000   -3.32997640000000
C        -1.00015810000000    0.72665740000000   -3.32997640000000
C         0.38202640000000    1.17575640000000   -3.32997640000000
C         1.23626340000000    0.00000000000000   -3.32997640000000
C         0.38202640000000   -1.17575640000000   -3.32997640000000
C        -1.76086815247998    0.00000000000000    4.78849957557021
F        -0.76911826531252    0.00000000000000    5.67468926254662
F        -2.50968386795825   -1.06794314680471    5.04863888333743
F        -2.50968386795825    1.06794314680471    5.04863888333743
C        -0.54413818249354   -1.67468516033722    4.78849957845317
F        -0.23767107904745   -0.73147481112462    5.67468925997942
F        -1.79120914301982   -2.05683909935453    5.04863874564184
F         0.24013968171955   -2.71686350152345    5.04863903502921
C         1.42457227037960   -1.03501233722714    4.78849957248258
F         0.62223011468481   -0.45207589682711    5.67468926529602
F         1.40265511061956   -2.33913928186680    5.04863905501621
F         2.65809836182651   -0.61117154425495    5.04863869666890
C         4.03961820246674    1.67468514775899   -2.62817407948106
F         4.96930660042402    0.73147479244129   -2.75037763231441
F         3.71458666614022    2.05683907990832   -3.85992603200073
F         4.62303373288711    2.71686348978894   -2.04303253910982
C         4.58877084110522   -2.05459160147071    0.86730597290559
F         4.59709252483521   -2.78118520641283    1.98125951001435
F         4.97417519512416   -2.85850196315549   -0.11965482382298
F         5.53562669678859   -1.13053295630600    1.00324569798425
C         2.28376457660886   -3.72927671755932    2.62817408867206
F         3.59030321655004   -3.51265997057976    2.75037870097715
F         2.14318168460923   -4.91533956626619    2.04303190988612
F         1.79618325340524   -3.84739782561575    3.85992562899767
C         4.58877084110522    2.05459160147071    0.86730597290559
F         4.59709252483521    2.78118520641283    1.98125951001435
F         4.97417519512416    2.85850196315549   -0.11965482382298
F         5.53562669678859    1.13053295630600    1.00324569798425
C         4.25247495652193    1.01957928511255    2.62817407757680
F         4.45020405360858    2.32910962270745    2.75037677428972
F         5.33704498641440    0.51936149478961    2.04303305824600
F         4.21414295278388    0.51936236815950    3.85992636334023
C        -2.82790274436383    2.05459160758554   -3.71645040671519
F        -3.82797483682855    2.78118494419178   -3.22571836876305
F        -2.11749631416700    2.85850222732984   -4.50254863174647
F        -3.37293748548841    1.13053297859378   -4.50255013394648
C        -0.53602450593361   -4.99908416128281    0.86730591619822
F        -1.22448605650957   -5.23152837615597    1.98125850960180
F        -1.18149064144157   -5.61404773804446   -0.11965571789346
F         0.63540201352706   -5.61404743764837    1.00324736766175
C        -1.08016271022039   -3.32439912180418    3.71645041587937
F        -1.46215754230407   -4.50005299330749    3.22571838851551
F        -0.03290491502764   -3.55721032900471    4.50254840735999
F        -2.06425285383526   -2.89718320022386    4.50255037491024
C        -0.34440953624153   -4.35941144868709   -2.62817404748705
F         0.83992598883967   -4.95213069234126   -2.75037577510431
F        -0.80829780400759   -4.16837989546168   -3.85992670963205
F        -1.15529636597892   -5.23632261667420   -2.04303359185445
108
 energy: -318.435246321591 gnorm: 3.073175026230 xtb: 6.4.1 (a3dbbd7)
C        -1.23582505536194    0.00305558891199    3.31787283782040
C        -0.37755502655503   -1.16988864344901    3.30587169941018
C         1.00293883507544   -0.72159761864697    3.31849259224276
C         1.00005897715952    0.72935710693518    3.33152551690739
C        -0.38101949380567    1.17775037158034    3.33214951772810
C         2.34166136334656   -2.60457346549711    0.58963396496700
C         3.20560212214598   -1.43044730019166    0.59607263788161
C         2.96046121376379   -0.70220348345927    1.83389533066584
C         1.96538371271992   -1.42202709132020    2.59004312731272
C         1.58492685827867   -2.60326099280914    1.83198297738126
C         3.19998319268532    1.42859785029233    0.59184995732481
C         2.33980285346015    2.60381651510124    0.59679635656004
C         1.57953839192910    2.60117985519590    1.82940698880484
C         1.95959834134093    1.42957303260951    2.59540395845409
C         2.95843852905863    0.69734814407581    1.83283836848588
C        -0.36822736871507    3.48173678785553    0.59493862544489
C        -1.74856047379737    3.03339445823788    0.59536412720956
C        -1.98451704931994    2.30711872826977    1.83042696867576
C        -0.75045547273353    2.30919137720357    2.59179520262089
C         0.24866741188650    3.03339897088041    1.83024519981930
C        -3.42514331794906    0.72576365927949    0.59595368037533
C        -3.42504273583728   -0.72569444642804    0.59473876174227
C        -2.80823095359448   -1.17323489575273    1.82970714414381
C        -2.43156452912486   -0.00023686141714    2.58915910381563
C        -2.80707024745860    1.17496578805750    1.82889583227043
C        -1.75334605210632   -3.02747465097648    0.59494095552891
C        -0.36983693063111   -3.48601510967372    0.59630314157287
C         0.24644931920404   -3.03261959116918    1.83305150299166
C        -0.74785329441125   -2.30515887975853    2.57647630131090
C        -1.98908092190724   -2.30879143276657    1.82568254131106
C        -0.24888828570520   -3.04122434832312   -1.83319624361319
C         0.75436023789534   -2.30130839019982   -2.59406946772543
C         1.98361680610291   -2.30712884340011   -1.83231206827685
C         1.74553623430420   -3.03086316681411   -0.59445929884422
C         0.37556513535637   -3.48251041556154   -0.59678145024289
C         2.80672499095473   -1.17405221072216   -1.83116203470885
C         2.42112494251737   -0.00522423542466   -2.59491326036789
C         2.81518513530304    1.17669777309144   -1.83370926869177
C         3.42254752078871    0.71730191221674   -0.59562293941284
C         3.42183658135569   -0.71932363471535   -0.60242244545969
C         1.97726584834046    2.31250160320957   -1.83153885000003
C         0.75069187105096    2.30671637565700   -2.59323165864414
C        -0.25095812206824    3.03319277979848   -1.82953995338011
C         0.36707057689067    3.48222750633835   -0.59528231507905
C         1.74694971047349    3.03172961779066   -0.59737220274633
C        -1.57724702042786    2.60310196241727   -1.82484725134329
C        -1.96900647429986    1.43068687315547   -2.60064776350863
C        -2.96320014861743    0.69594928904399   -1.82457334199980
C        -3.19720115983301    1.42519023956368   -0.59583516916744
C        -2.34353014879309    2.60035349082303   -0.59545877402999
C        -2.96231696942257   -0.69911695979297   -1.82947837632856
C        -1.96227280345364   -1.42755122912779   -2.59245555832496
C        -1.58753531891902   -2.59371926705607   -1.83219257663085
C        -2.34386904851464   -2.60062932884427   -0.59538072569671
C        -3.19854182643053   -1.42546670019419   -0.59480759715830
C        -0.99860899441449   -0.72452224045994   -3.33045033816973
C        -0.99127726296397    0.72018242790864   -3.32984079639970
C         0.38065440413500    1.17452439512402   -3.33009718316652
C         1.23606639444700   -0.00077496882176   -3.32936657752403
C         0.38242326755126   -1.17483343987896   -3.32909863713245
C        -1.78596733169288    0.01290824102671    4.75748850070568
F        -0.81544153400875    0.08428369635399    5.72305608265604
F        -2.61544420782952   -0.96300898302697    5.05563578493529
F        -2.51232132335842    1.07581893507215    5.05163139530704
C        -0.54723951772535   -1.70451089243942    4.70519405889783
F        -0.24765340430496   -0.76890476245763    5.74585748940621
F        -1.75872192858476   -2.12645105316586    5.10502730566052
F         0.16502342301481   -2.73887992069292    5.09407753402674
C         1.45007815452557   -1.04881275022630    4.75876814556791
F         0.71370488038228   -0.40718636062251    5.72236925300326
F         1.54500305196960   -2.30835632121752    5.06434047494022
F         2.66453242531796   -0.60682318636596    5.05272744968151
C         4.04004428722228    1.67402199895184   -2.63020494926390
F         4.97121024416422    0.73104522315325   -2.75096685337843
F         3.71482947442136    2.05732371239111   -3.86135064862798
F         4.62331768299037    2.71834128412816   -2.04938664973519
C         4.59110427059203   -2.05443617833340    0.86267485012079
F         4.63806941792908   -2.75590168146517    1.95645326933166
F         4.97531425533152   -2.85939687274217   -0.12129086313438
F         5.54001431003838   -1.13317214913967    0.99932234838969
C         2.28374004109030   -3.73218135017105    2.62386791580734
F         3.55747369534158   -3.54113783699307    2.78247499612457
F         2.14804730698332   -4.91555374831054    2.04671278705399
F         1.79947753803092   -3.85501692517536    3.86216720147899
C         4.58942034312117    2.04835500556306    0.84389962813357
F         4.61529146212103    2.84121347495121    1.91919324461438
F         4.97665423903887    2.86488719051468   -0.11797810544569
F         5.56322142871401    1.19628045070388    0.89019524636944
C         4.24885194010878    0.99733899690007    2.63201277501914
F         4.44077716672663    2.30415356116358    2.83424730993849
F         5.32072184241118    0.45681117983677    2.16012937092439
F         4.21395370361366    0.51823209838600    3.86835125352474
C        -2.82883384030149    2.05513595389866   -3.71762520798626
F        -3.82969337231944    2.78235253085870   -3.22594589263015
F        -2.11738863954978    2.85955306467775   -4.50372074181577
F        -3.37391807550898    1.13003058982724   -4.50363819474340
C        -0.53361366428214   -5.00100033919842    0.86046572981871
F        -1.21940906232422   -5.26337490090454    1.94000938336797
F        -1.18257042113497   -5.61734550062993   -0.11543414993320
F         0.63189437940044   -5.61826259151924    0.99974028753364
C        -1.07921763473734   -3.32949610276167    3.68492741332860
F        -1.47383561947927   -4.47881323408698    3.27083060640845
F        -0.03580796548924   -3.62159834798888    4.48956309486475
F        -2.10992076345123   -2.94780434352346    4.49230389652244
C        -0.34404306436099   -4.36069473088060   -2.62909670113272
F         0.84090889075419   -4.95347786696890   -2.75113070756623
F        -0.80866054766794   -4.16871233701707   -3.86156530423223
F        -1.15629414048772   -5.23655324311118   -2.04988306725885
108
 energy: -320.478550142583 gnorm: 2.483871837004 xtb: 6.4.1 (a3dbbd7)
C        -1.24190923080453    0.01132766719002    3.32150577647997
C        -0.37967629234017   -1.17395499374657    3.31147061188486
C         1.01055269806137   -0.71752076318249    3.31738109793041
C         0.99281155033561    0.73677356452807    3.32623580763418
C        -0.37362320529802    1.18353802191450    3.32553251723846
C         2.33704017374232   -2.60420005308666    0.58044470346940
C         3.21786747519126   -1.43786794672484    0.59919925699192
C         2.95085915608047   -0.70746733088082    1.83501910094901
C         1.97075776133730   -1.41730463717033    2.58053579333329
C         1.59358023008695   -2.61268918783754    1.83812139194231
C         3.20422281387733    1.43496369431901    0.59028696300318
C         2.33292768245663    2.60940672276990    0.59849128685052
C         1.57623483363435    2.59923122470543    1.82426135420888
C         1.95569009149499    1.43530696986626    2.59693344412716
C         2.95783586088335    0.69708156354445    1.84105573864454
C        -0.36862957075852    3.48038716329585    0.59599090575619
C        -1.74674721754082    3.03250647888695    0.59723665719704
C        -1.98303910022282    2.30820813593315    1.83053466773852
C        -0.75177053465325    2.31070220914487    2.58863162858327
C         0.24768129070418    3.03391841672381    1.82857947400646
C        -3.42483083312317    0.72463152561376    0.59775102199809
C        -3.42410362199632   -0.72418851327292    0.59473205758184
C        -2.80869020150605   -1.16923400845801    1.82754761676300
C        -2.44041423702489    0.00020790616205    2.57915248068846
C        -2.80643392976839    1.17343832765567    1.82510378794892
C        -1.75868918787172   -3.01885578875418    0.59272270919010
C        -0.37385415988156   -3.50095113162946    0.59991960488912
C         0.24059458909896   -3.03039557895377    1.83048570605931
C        -0.74819943245192   -2.31140312654845    2.55370799929206
C        -1.99448795946765   -2.30856607890282    1.81569432057217
C        -0.24699426328364   -3.05323479445585   -1.84276240103683
C         0.76148052719744   -2.29331666293006   -2.59284708602829
C         1.98048369486519   -2.30659289819626   -1.83465223265517
C         1.73950635059166   -3.02650711283415   -0.59394739474199
C         0.38677814465005   -3.47298275158926   -0.60055632994078
C         2.80530005575736   -1.17164971432964   -1.83211730774517
C         2.41437527053279   -0.01301989787428   -2.59494079916461
C         2.82726227597174    1.17898577705484   -1.84408260090627
C         3.41912675697757    0.70312148826694   -0.59905594460423
C         3.41303559084799   -0.70841550320576   -0.61103068556916
C         1.96480998901322    2.31985889391632   -1.82728289100688
C         0.75247944197400    2.30573002576560   -2.59028278460724
C        -0.25155746756080    3.03311678876604   -1.82700120613448
C         0.36676345167008    3.48224988460581   -0.59636101702199
C         1.74159636002455    3.02930971255069   -0.60132894314987
C        -1.57222248467930    2.60498155922766   -1.81621919143142
C        -1.97897138764463    1.43805114486967   -2.61017195863103
C        -2.96400378635878    0.69137325427587   -1.81560173157608
C        -3.19506712104506    1.42446194511925   -0.59731327856568
C        -2.34222024971075    2.59853377166745   -0.59650098704479
C        -2.96179474740549   -0.69905561761971   -1.82651496264425
C        -1.96188613822491   -1.43076939375849   -2.58810145614536
C        -1.59720176532746   -2.58376842018534   -1.82918974574941
C        -2.34364140832911   -2.59651905828228   -0.59664189630876
C        -3.19886726973339   -1.42479248240726   -0.59487879922613
C        -0.99561603775994   -0.72137998755730   -3.32939176830541
C        -0.97947376410675    0.71079548870084   -3.33074526754328
C         0.37918293376763    1.17270810366037   -3.32891472635697
C         1.23570826872123   -0.00217861393290   -3.32824878462820
C         0.38324591762795   -1.17342696233505   -3.32926114287087
C        -1.81995851750927    0.01108917757270    4.71981020946720
F        -0.87079372611920    0.22553319192742    5.77125108374063
F        -2.65907131696515   -0.91290951503716    5.05960607575846
F        -2.51287989437205    1.08146543882407    5.05031382241026
C        -0.55582800021697   -1.75519852183073    4.61324686230171
F        -0.27853940353249   -0.85335317198199    5.85980385774393
F        -1.71428410067055   -2.13321269558382    5.16707608413735
F         0.12203059999559   -2.70523326383425    5.15537466262766
C         1.47808237035294   -1.06873788745300    4.72118977118112
F         0.83944290776660   -0.32114365013063    5.77369577330274
F         1.60947140480503   -2.28703364048936    5.07529225765970
F         2.66772900240243   -0.60201304271549    5.05326438049595
C         4.04163258953906    1.67325815547312   -2.63426311927895
F         4.97412405982167    0.73025851662188   -2.75182085366117
F         3.71523981456967    2.05783494103354   -3.86366595962674
F         4.62375140984229    2.72045830105607   -2.05929669230064
C         4.59433230859560   -2.05626599889059    0.85796169241771
F         4.67716609793695   -2.73371183102388    1.93582085679808
F         4.97676622781700   -2.86105196658283   -0.12413806232797
F         5.54631079311998   -1.13705788359125    0.99186255049147
C         2.28652855748914   -3.73652499286695    2.61909643587421
F         3.53058103599389   -3.56754536370686    2.81374490280927
F         2.15547854837109   -4.91624511001138    2.05166312747039
F         1.80603568076699   -3.86693903393713    3.86220916447021
C         4.59071013202062    2.03381091603082    0.81936250483749
F         4.62734478256231    2.88367641185257    1.90311469639695
F         4.97839322503332    2.87031743555326   -0.10925377257543
F         5.57911138351302    1.21977865937177    0.85012676683200
C         4.24737397454181    0.96950294680146    2.63072230625623
F         4.44152222179537    2.31158769558937    2.88236861768199
F         5.32139861567961    0.43885100901231    2.20838883908970
F         4.21363764297472    0.52053820461753    3.87166528484868
C        -2.83053962617189    2.05630625768026   -3.72001048475174
F        -3.83196169737223    2.78404592318565   -3.22649205265610
F        -2.11711733348226    2.86102551305804   -4.50545606675713
F        -3.37512631227283    1.12942031687926   -4.50518914590444
C        -0.53158747724838   -5.00500615386931    0.85368091450478
F        -1.21631123133336   -5.29490905424949    1.90343484944473
F        -1.18476214296978   -5.62236989897572   -0.10936195385462
F         0.62690870239962   -5.62467663549204    0.99401010495580
C        -1.06916173935569   -3.33169310327129    3.63511246377555
F        -1.48866787715367   -4.46224135992484    3.31675567378948
F        -0.02424165806900   -3.72767373809346    4.46064165334787
F        -2.19711512347458   -3.00715103138756    4.47547770251894
C        -0.34359701060254   -4.36363240121457   -2.63154829978843
F         0.84246404367379   -4.95556363009725   -2.75226713799688
F        -0.80914163376715   -4.16912398403951   -3.86426220563580
F        -1.15802487291116   -5.23688555672280   -2.06057146034872
108
 energy: -322.153165385119 gnorm: 1.506947912840 xtb: 6.4.1 (a3dbbd7)
C        -1.24748957686125    0.01809204245265    3.33753202309444
C        -0.38219249043585   -1.17411791422697    3.32276190238954
C         1.01745066856176   -0.71436821115966    3.33413378438964
C         0.98639642279968    0.74717577148638    3.31865404070996
C        -0.36457292070832    1.19015278790570    3.31760795449472
C         2.33174961097684   -2.60448264949060    0.57136873377100
C         3.23282009906818   -1.44638371430563    0.60219454032506
C         2.93814195480245   -0.71414851664253    1.83693651655523
C         1.97876000318006   -1.41168972090130    2.56833042378208
C         1.60262919483014   -2.62220853356147    1.84490466145540
C         3.21415681479516    1.44464858949445    0.59015631283505
C         2.32462459237048    2.61404259351354    0.59932519192586
C         1.57500546082552    2.59667121664165    1.82132782655801
C         1.94701389986585    1.44038135994306    2.59670567428476
C         2.96410403362704    0.70021659400166    1.85264631005307
C        -0.36889480729355    3.47890713144067    0.59620535345998
C        -1.74569008436915    3.03128275371823    0.59970053155936
C        -1.98296517114485    2.30935241949927    1.82882969878070
C        -0.75007897465041    2.31102978307376    2.58557166361157
C         0.24523579099869    3.03465187399240    1.82873213325706
C        -3.42473725164189    0.72288449840492    0.59748978236412
C        -3.42419955064609   -0.72226301974363    0.59401074656463
C        -2.80672460588269   -1.16529142772045    1.82460454384017
C        -2.45045349680234    0.00157310497056    2.56917472883206
C        -2.80445204817843    1.17101920302190    1.82333148348284
C        -1.76433116421908   -3.00914092485735    0.59135878051596
C        -0.37826572893287   -3.51698655930357    0.60368203503775
C         0.23439533512774   -3.02617592458337    1.82933280664696
C        -0.75121608154014   -2.32138803279795    2.54741136180711
C        -2.00067709474469   -2.30626644394129    1.80451417061478
C        -0.24522062686604   -3.06619173434744   -1.85139139774456
C         0.76869384057294   -2.28516957895942   -2.59095463395141
C         1.97777265477408   -2.30581188910557   -1.83775037191281
C         1.73390035760117   -3.02328394825518   -0.59358207310982
C         0.39729117241967   -3.46479476590640   -0.60282282714036
C         2.80332315766869   -1.16933025307641   -1.83372514485450
C         2.40746381156765   -0.02085960198375   -2.59440896885013
C         2.84033240404864    1.18173218668855   -1.85401332905886
C         3.41375280539126    0.68746155300408   -0.60192962764279
C         3.40475730388293   -0.69639476152178   -0.61941745849663
C         1.95270638450766    2.32676455234530   -1.82363786933822
C         0.75390833990502    2.30459998879257   -2.58764753476891
C        -0.25236814471625    3.03324896222475   -1.82466759482585
C         0.36487456957769    3.48188764632625   -0.59657999380752
C         1.73779985889022    3.02578132191433   -0.60463511705018
C        -1.56766514952137    2.60633720006159   -1.80699608497584
C        -1.98971898740322    1.44571447074541   -2.62069195070230
C        -2.96371174202620    0.68531083415951   -1.80698853264544
C        -3.19300269101356    1.42354060591707   -0.59734489816808
C        -2.34104063719739    2.59681051420025   -0.59789153483113
C        -2.96165056174651   -0.69788978429976   -1.82400139947924
C        -1.96098962048526   -1.43465646829712   -2.58432332624589
C        -1.60591094021988   -2.57190762870328   -1.82824085608665
C        -2.34493704027804   -2.59296662342954   -0.59701765229187
C        -3.19909179266120   -1.42503261086613   -0.59450620485613
C        -0.99270643223913   -0.71767209363587   -3.32924669711982
C        -0.96802617057572    0.70107142625360   -3.33002236888918
C         0.37779038780338    1.17135555981358   -3.32820603709211
C         1.23546417479635   -0.00365815068809   -3.32747693415422
C         0.38413640634633   -1.17188562209852   -3.32905306945648
C        -1.83944336669650    0.01855339362815    4.70634723335286
F        -0.92314546650994    0.34586578482177    5.77777537440327
F        -2.69938912269813   -0.85196434030721    5.05902494317584
F        -2.51615290201644    1.09233282650442    5.04643766804127
C        -0.56526205617527   -1.78821417346777    4.56626374904791
F        -0.32422154052964   -0.98055097631639    5.95110806422178
F        -1.62571128601661   -2.09705526261257    5.25761445181437
F         0.07362020222780   -2.60577147551184    5.25737904544389
C         1.49769933579841   -1.07377670807381    4.70995248791458
F         0.95545455317157   -0.25092610696188    5.78020554568051
F         1.67888280233122   -2.25435164588029    5.08388017186689
F         2.67527487900781   -0.59603125628247    5.05036665803412
C         4.04407083119498    1.67314915671271   -2.63876014151022
F         4.97648756435004    0.72942984209095   -2.75253670050790
F         3.71527553685199    2.05811288336235   -3.86581323572743
F         4.62367774236840    2.72222583304464   -2.06956197295807
C         4.59888465364970   -2.05865622159033    0.85308809010483
F         4.71180621445883   -2.71547635777401    1.91988929921363
F         4.97775842363394   -2.86255408151891   -0.12782260091745
F         5.55206301339176   -1.13968689214345    0.98367949463990
C         2.28716969822986   -3.74214436292262    2.61763800665519
F         3.51041726086651   -3.58989651815698    2.84153158381837
F         2.16253531931205   -4.91649640791269    2.05534902473768
F         1.81564623178272   -3.87632014439219    3.85790332076978
C         4.59214347080640    2.02332889043303    0.78826492458576
F         4.64623305385263    2.94951379877535    1.84327958365882
F         4.97925489360337    2.87871482592303   -0.10587038762411
F         5.59667293723618    1.24621527061053    0.80093736751487
C         4.24188658464712    0.93733641827036    2.63467605491542
F         4.43366153205970    2.29404271052037    2.97499417811949
F         5.32105213084438    0.41526107173487    2.26359625309652
F         4.21032427880176    0.52014121333295    3.87867740826517
C        -2.83302224395769    2.05785639103529   -3.72331614330866
F        -3.83398892529350    2.78550649693364   -3.22687336050781
F        -2.11685579217369    2.86222308821900   -4.50681903399442
F        -3.37623975862681    1.12873940130796   -4.50650865162957
C        -0.52993079511166   -5.01035225024636    0.84862053412927
F        -1.21434329249761   -5.32174407710809    1.87184004884628
F        -1.18701363265576   -5.62713387321861   -0.10486576922878
F         0.62263248875371   -5.63043165965997    0.98739330102380
C        -1.05625959722575   -3.34683449383699    3.60634025385491
F        -1.50463791163161   -4.45092274230888    3.34904205032646
F        -0.04249911647723   -3.87789965535321    4.37943075228377
F        -2.28708842241947   -3.10742387404088    4.41031315657295
C        -0.34348788319052   -4.36789715827922   -2.63447737693535
F         0.84385068272415   -4.95715789086103   -2.75314668901070
F        -0.80950372002227   -4.16905822882360   -3.86657292012268
F        -1.15967734150719   -5.23674858410202   -2.07139048001341
108
 energy: -322.901343117925 gnorm: 0.767092754447 xtb: 6.4.1 (a3dbbd7)
C        -1.25713354910386    0.02629379700347    3.36348450201252
C        -0.38270430778244   -1.17099280876599    3.34297054809579
C         1.02881526556441   -0.71230760203772    3.36146503369631
C         0.98058520329484    0.76050885605688    3.30353117516994
C        -0.35726417184914    1.19809264728337    3.30506986537086
C         2.32694356535377   -2.60244078402921    0.56053059366022
C         3.25269173994591   -1.45757003560988    0.60416110431343
C         2.90830704657911   -0.72547331727429    1.83399010355875
C         1.98458715300020   -1.39672452779316    2.53807747262661
C         1.61693919383931   -2.63803026613931    1.85207417519872