63
 energy: -142.113746057286 gnorm: 0.047982827575 xtb: 6.4.1 (a3dbbd7)
C        -1.32620123954817    0.00539847330363    3.59637910936214
C        -0.40225214234868   -1.14830457024326    3.29345613099421
C         0.95307478776268   -0.70479320436952    3.26510329819100
C         0.95236381175390    0.71597363488598    3.27469960090643
C        -0.40982519259282    1.16448165354452    3.30131091737419
C         2.33513561418856   -2.58155613312389    0.58242429528058
C         3.40085375717141   -1.51823277808856    0.63279355644447
C         2.93397744374775   -0.70186641131284    1.81475981458586
C         1.92658695023727   -1.39365411259343    2.53604737994568
C         1.56048266575062   -2.55339383740523    1.77759966545261
C         3.17329452027179    1.41077730819891    0.57109611645361
C         2.32747565198164    2.55510807169568    0.56629932612583
C         1.56205486249846    2.54473651772033    1.79073512004221
C         1.91878372651300    1.38365123479662    2.53781529083990
C         2.92263017811827    0.66958340214215    1.80313838885002
C        -0.37266647409922    3.40899225291968    0.58285901011675
C        -1.73440863748932    2.96282043520235    0.57453494699952
C        -1.99396077066518    2.25836661225109    1.79480396668589
C        -0.74695357567904    2.25697183845990    2.56848547352970
C         0.24152971798004    2.95219845317633    1.79525657103543
C        -3.37793620920210    0.71789608463764    0.57622584177218
C        -3.37722142894014   -0.70767917985497    0.57636388714500
C        -2.80232463468374   -1.15097959629003    1.81308625482610
C        -2.66310155990604    0.00650312368353    2.76999206511419
C        -2.80110003383617    1.16235344146519    1.81229850127188
C        -1.74198165017182   -2.95438925128534    0.57991563145576
C        -0.38106805217226   -3.39933798304565    0.58618093806527
C         0.22887134730597   -2.94610532674683    1.79405513142199
C        -0.74965120538030   -2.24739796163471    2.56894407315498
C        -1.99839068217145   -2.24737614539994    1.80049940497648
C        -0.23268914445332   -2.98351548464095   -1.81872590375229
C         0.76195588194471   -2.27119238496028   -2.58334835558830
C         1.97091784847338   -2.27727368425241   -1.83380193243453
C         1.74261224494731   -2.98890432176878   -0.58354443909094
C         0.36586210430082   -3.40241143980198   -0.58263106272383
C         2.79115826360501   -1.15352528657512   -1.81795772720371
C         2.40734263328692    0.01464544352949   -2.59813819640456
C         2.78250941736147    1.16928324807487   -1.84452300592439
C         3.39603366912152    0.70303900962229   -0.60750143265719
C         3.39968711752386   -0.70854669595994   -0.61984328749594
C         1.97138652681313    2.28622232207272   -1.83683810295660
C         0.75160127787851    2.29221116718958   -2.59896307763884
C        -0.23989932679564    2.99864888607835   -1.83555454784557
C         0.36337240496931    3.42337533906679   -0.59505877608528
C         1.73173808447585    2.99972197242221   -0.60779033209188
C        -1.55243620671236    2.56743310529833   -1.83886962837973
C        -1.92921457699101    1.40977972387825   -2.60675047256915
C        -2.91949994377565    0.69507627403468   -1.83349766253564
C        -3.14672474611915    1.40449323113677   -0.60817101185511
C        -2.31223036660485    2.56291005120952   -0.61731979653877
C        -2.91871388078352   -0.68896865336077   -1.83269876466993
C        -1.93364506883653   -1.40650717196050   -2.60402783222219
C        -1.54783781143012   -2.55567507244627   -1.83050836620294
C        -2.31493887793820   -2.55460682735884   -0.61276641853629
C        -3.15191148790352   -1.39813928547141   -0.60687738669307
C        -0.97583980800916   -0.72081082086898   -3.33002242464696
C        -0.97851332499936    0.72499455510550   -3.33498680244223
C         0.38932258183438    1.17171076518676   -3.33703879039772
C         1.23686955571739    0.00769737008872   -3.33121760815139
C         0.38758476150240   -1.15945409574759   -3.33268666401096
Cl       -1.64802607040805   -0.00784025635066    5.38688229173591
Cl       -4.11957791094005   -0.00237236477555    3.85965797193936
Cl        5.07267223102916   -2.21562893127849    0.89638508937914
63
 energy: -142.117120982836 gnorm: 0.022110091173 xtb: 6.4.1 (a3dbbd7)
C        -1.31788879664923    0.00333885045335    3.58844546285395
C        -0.39600933136997   -1.15871306347135    3.28996769360769
C         0.95921777140882   -0.70938139669612    3.26523202432593
C         0.95956184221726    0.71969283899492    3.27509579974126
C        -0.40036962825300    1.16914959030937    3.29764459341604
C         2.33519179184338   -2.59291247629968    0.58496886369288
C         3.39619641862749   -1.51881513404876    0.63589541937826
C         2.94465763173821   -0.69492938770280    1.82116816722271
C         1.93430756575305   -1.39661974226681    2.53727427108000
C         1.56523498873652   -2.56311586893255    1.78372399654242
C         3.17917904773566    1.41990106258968    0.57939792138966
C         2.33117088660795    2.56941635815918    0.57513339951240
C         1.56601652158965    2.56494490506182    1.79866140235837
C         1.92917249615584    1.40033817579861    2.54677719797665
C         2.93135624886510    0.68098858902376    1.80814100753972
C        -0.36977913594442    3.43111528138089    0.57895471877349
C        -1.73555442150917    2.98503356868706    0.57311924811620
C        -1.98813354120831    2.27198650243930    1.79361706736588
C        -0.74489984638662    2.27065860016554    2.56703863749785
C         0.24213455053097    2.97935505048065    1.79982365949451
C        -3.37660507811240    0.72077968185167    0.57378652885734
C        -3.37681562306742   -0.71272181221567    0.57406343409520
C        -2.79667846717632   -1.15994988143967    1.80466284128752
C        -2.65295042644108    0.00448224177842    2.75924103716090
C        -2.79475407558913    1.16786117538527    1.80386854135366
C        -1.74372215693265   -2.98107743019279    0.57779325521073
C        -0.37700340975056   -3.42466871251144    0.58366566899585
C         0.23416119100624   -2.97415634136406    1.79817623540899
C        -0.74741245348038   -2.26539834357206    2.56699066425428
C        -1.99280266609658   -2.26562748459425    1.79791882545370
C        -0.24036469064780   -2.99590878743478   -1.82338016520811
C         0.75678255040528   -2.27960789156849   -2.58181700351141
C         1.97309442269852   -2.28563630178058   -1.83286919967802
C         1.73835652751382   -2.99726027783313   -0.58656095481088
C         0.36445028760432   -3.42634942366794   -0.59053619448636
C         2.78713399847268   -1.15390825245276   -1.81185099739064
C         2.40578133523061    0.01195980032866   -2.58944566577463
C         2.78268626877223    1.17054037336411   -1.83572894396708
C         3.39223041480170    0.70638058074629   -0.60072022855359
C         3.40203884805780   -0.70860358854833   -0.61463051707715
C         1.97142758374924    2.29257240555057   -1.83285069428318
C         0.74842892603897    2.29562402978738   -2.59574269070827
C        -0.24381772472993    3.00941609808078   -1.83656938251611
C         0.36611110984542    3.44231756460972   -0.60048998396848
C         1.73469720788009    3.01068660693666   -0.60516030565538
C        -1.56210298211389    2.58061061107824   -1.84129940912907
C        -1.93949967394213    1.41621454473904   -2.60389077537799
C        -2.93238852605455    0.69664176453645   -1.84052826710737
C        -3.15681605708917    1.41293503214062   -0.61403071092507
C        -2.32158532241212    2.57607693879575   -0.61823451601033
C        -2.93143539202622   -0.69021288640711   -1.84017948002626
C        -1.94199258627222   -1.41101151120050   -2.60151793242487
C        -1.56032306105345   -2.57074960280781   -1.83484763487789
C        -2.32468915377772   -2.56985247291881   -0.61450247628378
C        -3.16063274316217   -1.40698568268188   -0.61239795671840
C        -0.98126635490373   -0.71984194427047   -3.32787848833885
C        -0.98451022995552    0.72628547338677   -3.33178939848187
C         0.38513635281131    1.17277921793709   -3.33095759089224
C         1.23199017322515    0.00677727745781   -3.32497890233768
C         0.38397541802467   -1.16118184621723   -3.32769222481147
Cl       -1.61173383820836   -0.00929160160876    5.38092745764838
Cl       -4.12740065296581    0.00316569330201    3.81998864665265
Cl        5.05905726781362   -2.22892160552520    0.92034025479567
63
 energy: -142.117425668522 gnorm: 0.008994954733 xtb: 6.4.1 (a3dbbd7)
C        -1.31373216313376    0.00279729627301    3.57622460195748
C        -0.39175879033166   -1.16393832891378    3.28548619245813
C         0.96205810673072   -0.71220217348366    3.26485384893786
C         0.96283397233690    0.72163313764978    3.27355354278481
C        -0.39346096097547    1.17215701261509    3.29316057711644
C         2.33420763851597   -2.59712042650996    0.58607730261249
C         3.39455945617668   -1.51804234551617    0.63514259027930
C         2.94847056101721   -0.69102075430933    1.82217457598999
C         1.93791940355858   -1.39775542134738    2.53712382989714
C         1.56719771163331   -2.56602452325403    1.78651985136644
C         3.18240652576578    1.42405573034980    0.58295244574466
C         2.33258820790385    2.57691859772557    0.57982334977213
C         1.56798187496225    2.57459323614583    1.80229896317971
C         1.93526447473781    1.40973626714010    2.55211229904034
C         2.93397221472815    0.68642972057479    1.80790007486540
C        -0.36825425514950    3.44298741086977    0.57689488636091
C        -1.73633510627702    2.99757646372560    0.57242657526162
C        -1.98313230341978    2.27907425143693    1.79239721640010
C        -0.74354003959804    2.27817657105809    2.56476241924282
C         0.24256988416613    2.99469923815427    1.80260887693722
C        -3.37403598717901    0.72231325196463    0.57272412440375
C        -3.37456851476527   -0.71607916063850    0.57324165582851
C        -2.79152826544305   -1.16493082691711    1.79792967758611
C        -2.64063608447052    0.00347019430673    2.75015853264944
C        -2.78894865996155    1.17068721328139    1.79639029850724
C        -1.74394300292641   -2.99609679770572    0.57671021459908
C        -0.37358031740633   -3.43797067798307    0.58243576624649
C         0.23753250038421   -2.99053598649553    1.80091919815593
C        -0.74597107381220   -2.27418788355669    2.56415261112902
C        -1.98813862388100   -2.27541767831269    1.79583565945761
C        -0.24377968966622   -3.00088740693203   -1.82571697562087
C         0.75365823421287   -2.28335202502478   -2.58060832206045
C         1.97462980068500   -2.28925539056996   -1.83150857784671
C         1.73568458895991   -2.99956474685642   -0.58854874748522
C         0.36425369943999   -3.43917226548688   -0.59498941640596
C         2.78349804294012   -1.15229987497241   -1.80881842802620
C         2.40447691089252    0.01046291492829   -2.58492478464481
C         2.78167407515000    1.17110008813507   -1.83050868683608
C         3.38865162136313    0.70840155486500   -0.59855510301098
C         3.40582125098647   -0.70876412018258   -0.61349599675575
C         1.97034670552841    2.29566983039567   -1.83011183786298
C         0.74557441223405    2.29679863735144   -2.59313029066111
C        -0.24662376439402    3.01420287891160   -1.83592563748845
C         0.36705419632657    3.45233764426044   -0.60327079331043
C         1.73595560240804    3.01568048478982   -0.60374220008825
C        -1.56770428151845    2.58693914828162   -1.84176197612756
C        -1.94491576212507    1.41944256718316   -2.60190950740912
C        -2.93718792508574    0.69682179251002   -1.84394382247145
C        -3.16307449525260    1.41760282061580   -0.61706988115999
C        -2.32722358980987    2.58185937253256   -0.61773559963831
C        -2.93573512348218   -0.69087343114492   -1.84392905283526
C        -1.94537351342532   -1.41333447703292   -2.59971722780681
C        -1.56638975462423   -2.57850539987146   -1.83669112194344
C        -2.32919934863322   -2.57702866766771   -0.61470524609797
C        -3.16488810829066   -1.41237521193703   -0.61507479364894
C        -0.98384302585554   -0.71866408360783   -3.32650853443832
C        -0.98764612033866    0.72636099492534   -3.32947818276515
C         0.38252183447647    1.17327664911374   -3.32644887289696
C         1.22890563397298    0.00670297214093   -3.32121607987637
C         0.38263100921572   -1.16118157322926   -3.32369900004184
Cl       -1.65160822489360   -0.00942647047293    5.35674553695960
Cl       -4.08787056853749    0.00631356974439    3.84115689559898
Cl        5.04872689173325   -2.24465565091788    0.93927575766332
63
 energy: -142.117687147231 gnorm: 0.003806158194 xtb: 6.4.1 (a3dbbd7)
C        -1.31485930275363    0.00290419273998    3.57995582813965
C        -0.39123383000368   -1.16230801822221    3.28385380074826
C         0.96191007771669   -0.71229524194778    3.26404142050001
C         0.96246747912822    0.72143171706924    3.27177685933903
C        -0.39240321883505    1.17075332842409    3.29152810139815
C         2.33318558306766   -2.59629295565120    0.58620241786067
C         3.39459373755545   -1.51733257590718    0.63381513389880
C         2.94791506401650   -0.69062411782711    1.82103106021273
C         1.93784317804781   -1.39735970553908    2.53648301473714
C         1.56651960318275   -2.56435322470688    1.78647259508014
C         3.18249743157759    1.42388322173062    0.58266437559573
C         2.33183937604609    2.57713159474047    0.58021359264047
C         1.56738698937292    2.57383352021072    1.80220840505978
C         1.93568750824893    1.41022908447995    2.55245840554097
C         2.93315454215992    0.68631125957012    1.80625098203532
C        -0.36884672383831    3.44271967756326    0.57772925215812
C        -1.73691706399020    2.99739111971869    0.57341354175130
C        -1.98247908575315    2.27811286567996    1.79323033613847
C        -0.74419223579783    2.27740443049814    2.56480226790919
C         0.24186351744686    2.99476217192769    1.80371634858899
C        -3.37220305432044    0.72209841759282    0.57267754157636
C        -3.37269049230075   -0.71640807090681    0.57339361686083
C        -2.78983746635250   -1.16345039068328    1.79667889526098
C        -2.64310899169723    0.00348621987632    2.75283428025730
C        -2.78713671223561    1.16890851609190    1.79459203306498
C        -1.74389049973581   -2.99608367281952    0.57767338944353
C        -0.37320744219713   -3.43748567229304    0.58325854389596
C         0.23736654806955   -2.99098899886960    1.80200441923452
C        -0.74643566940421   -2.27293423532808    2.56402529036936
C        -1.98744190049724   -2.27468873204456    1.79652428768179
C        -0.24373632139058   -2.99987273448563   -1.82521749816545
C         0.75298972375028   -2.28295788934668   -2.57998509644930
C         1.97466670815142   -2.28888399124822   -1.83048487541811
C         1.73496579392815   -2.99840420697349   -0.58851432493514
C         0.36404437392573   -3.43923843532474   -0.59454887786943
C         2.78232419249015   -1.15117552168588   -1.80859150299617
C         2.40394342560509    0.01033812419302   -2.58449799771577
C         2.78074842674785    1.17112570404371   -1.82967549106592
C         3.38752804995520    0.70870936199139   -0.59920578159106
C         3.40757425219345   -0.70896101869095   -0.61412862978958
C         1.96929646882263    2.29564229427396   -1.82923036228046
C         0.74444707444003    2.29650456938088   -2.59212233302317
C        -0.24745343306192    3.01372495627918   -1.83460115729545
C         0.36613133685308    3.45229056092329   -0.60246912295981
C         1.73531830124363    3.01525678498911   -0.60329383458830
C        -1.56833224602799    2.58666448466742   -1.84087846103823
C        -1.94515165207664    1.41949498798499   -2.60151738874337
C        -2.93629436234532    0.69643966016168   -1.84416255002720
C        -3.16372680141503    1.41766558047523   -0.61713561396880
C        -2.32786453205409    2.58083005987540   -0.61656334411366
C        -2.93451660911427   -0.69085482070228   -1.84400084148406
C        -1.94495229131117   -1.41338869531385   -2.59920181937490
C        -1.56640870264850   -2.57851843442046   -1.83604598974427
C        -2.32896231367239   -2.57624364543391   -0.61368194370373
C        -3.16469178559391   -1.41281684176188   -0.61490048989238
C        -0.98392287978154   -0.71818911804076   -3.32625473233209
C        -0.98784591968817    0.72595350250478   -3.32899113007148
C         0.38204930855761    1.17334486589907   -3.32534358992566
C         1.22832125828467    0.00698917761065   -3.32055206817723
C         0.38281701793029   -1.16060158354338   -3.32253279419329
Cl       -1.61168706108432   -0.00927292758159    5.36739253559477
Cl       -4.11585247368418    0.00720527436820    3.80926532907614
Cl        5.04588632462618   -2.25094007713028    0.94458699301236
63
 energy: -142.117724552214 gnorm: 0.001976225494 xtb: 6.4.1 (a3dbbd7)
C        -1.31558483779012    0.00293731152389    3.58034197344169
C        -0.39171524371351   -1.16183168217447    3.28477836823775
C         0.96115046533003   -0.71187652373987    3.26428262816902
C         0.96133012766007    0.72112191296920    3.27174175562204
C        -0.39348762385149    1.17072832075363    3.29232407919097
C         2.33315677977945   -2.59532113766177    0.58573056112751
C         3.39451502385557   -1.51703330061239    0.63377060533008
C         2.94719040817017   -0.69126041744364    1.82096610901091
C         1.93707713941530   -1.39712160039561    2.53643003103635
C         1.56607213278804   -2.56322668203389    1.78553193028040
C         3.18179681839066    1.42278574784763    0.58181899445905
C         2.33128498978556    2.57552603913464    0.57902161788087
C         1.56682890775871    2.57140009642723    1.80108691719865
C         1.93423845653740    1.40836949011738    2.55137439441791
C         2.93245733355579    0.68510869536174    1.80607262202697
C        -0.36916272795587    3.44014592793053    0.57803788865043
C        -1.73679474614358    2.99487531136926    0.57345108906521
C        -1.98351014949596    2.27719206861974    1.79360280259571
C        -0.74461147042527    2.27634131136693    2.56512356579354
C         0.24178382279178    2.99170268245179    1.80311448282866
C        -3.37242615808840    0.72189428041296    0.57320335894645
C        -3.37288312333862   -0.71595953537293    0.57391576616455
C        -2.79093308729013   -1.16297707322653    1.79778991115708
C        -2.64349534880877    0.00370454555429    2.75366195997789
C        -2.78841578835568    1.16887205510676    1.79570041919934
C        -1.74372663798600   -2.99297627412600    0.57770274188235
C        -0.37368153006809   -3.43437137062317    0.58324061475981
C         0.23683576106931   -2.98776121941573    1.80119101959651
C        -0.74667240169241   -2.27144346169256    2.56445296910026
C        -1.98820141354847   -2.27310946111730    1.79692316625554
C        -0.24289021240634   -2.99830913819396   -1.82493315378059
C         0.75350942047649   -2.28191015426307   -2.58044249151150
C         1.97450348981868   -2.28801089823856   -1.83067952645569
C         1.73555963809441   -2.99770885318816   -0.58841171402122
C         0.36413877656454   -3.43636537953882   -0.59383070279565
C         2.78304592020486   -1.15130513028920   -1.80933708278434
C         2.40417844785347    0.01050118142991   -2.58543780810332
C         2.78089202611602    1.17092438660809   -1.83064062222808
C         3.38809680881226    0.70832572717230   -0.59987322496105
C         3.40740442445918   -0.70919502787540   -0.61434174129218
C         1.96939315932946    2.29485352194966   -1.82983153917910
C         0.74489090136079    2.29612057490066   -2.59274474055420
C        -0.24692687461540    3.01246084944519   -1.83462296594909
C         0.36577963404570    3.45005880980910   -0.60192599686409
C         1.73501789530330    3.01388081468390   -0.60379994097621
C        -1.56708229098416    2.58513295103180   -1.84073374377404
C        -1.94392871619039    1.41867705930895   -2.60187399784355
C        -2.93497698612917    0.69630739014303   -1.84343726107466
C        -3.16251812734314    1.41673545592631   -0.61630732721591
C        -2.32668156216163    2.57916187398115   -0.61652117933194
C        -2.93333493418774   -0.69064093493568   -1.84329063648017
C        -1.94412339520306   -1.41275740746208   -2.59954940573295
C        -1.56501500665529   -2.57674849739284   -1.83574556979161
C        -2.32787257859745   -2.57428836984191   -0.61361407226383
C        -3.16376150362051   -1.41178640752411   -0.61418094446730
C        -0.98344140624600   -0.71826011085009   -3.32673797557900
C        -0.98718940645146    0.72571550616907   -3.32957246589632
C         0.38258506264777    1.17325164612430   -3.32641374329062
C         1.22894300924513    0.00706973820981   -3.32140206753453
C         0.38325215305257   -1.16039490295434   -3.32342824784670
Cl       -1.61882487446516   -0.00904612670151    5.36658661003352
Cl       -4.11124037605907    0.00651173349054    3.81660503373996
Cl        5.04720120407543   -2.24878220534016    0.94251115413075
63
 energy: -142.117728062057 gnorm: 0.000420087965 xtb: 6.4.1 (a3dbbd7)
C        -1.31581109820560    0.00288635371380    3.57992760503117
C        -0.39140892638413   -1.16199035909814    3.28463174292655
C         0.96108269068232   -0.71196074442506    3.26432828985052
C         0.96107185660942    0.72116830656766    3.27137586981359
C        -0.39315423550621    1.17086296966148    3.29208458384652
C         2.33291430612810   -2.59517193969265    0.58563544146921
C         3.39422191353675   -1.51667618184622    0.63348851785805
C         2.94726730138462   -0.69110848980390    1.82092518563189
C         1.93712724431750   -1.39712539758638    2.53635606309831
C         1.56603599509944   -2.56284200409971    1.78541273500345
C         3.18185801101847    1.42268725862148    0.58174378020912
C         2.33108339997628    2.57557566197384    0.57893428719514
C         1.56673243507028    2.57113579815838    1.80091773858611
C         1.93424731926279    1.40853207521664    2.55141775050627
C         2.93242883081533    0.68509875053017    1.80579776764668
C        -0.36916106672510    3.44007809569579    0.57807396678826
C        -1.73687450546726    2.99498484102806    0.57355190223792
C        -1.98347995846612    2.27750251579065    1.79389450209666
C        -0.74476684033256    2.27660665368910    2.56515148487967
C         0.24176109839912    2.99185325889422    1.80331466932520
C        -3.37208511922521    0.72193148699779    0.57341918190951
C        -3.37262240560399   -0.71615742355217    0.57414595877723
C        -2.79086048499938   -1.16313618951044    1.79752809943689
C        -2.64306331033622    0.00364768598950    2.75377405200494
C        -2.78827850674479    1.16893912512295    1.79532253492338
C        -1.74374264031699   -2.99305779483312    0.57775436009596
C        -0.37355257717046   -3.43415709050903    0.58320410950132
C         0.23688491772541   -2.98795571339804    1.80122362947324
C        -0.74674480347314   -2.27160562209483    2.56447725970825
C        -1.98809304437401   -2.27339071017322    1.79708424129984
C        -0.24283781028136   -2.99798657748654   -1.82498322794866
C         0.75335377285201   -2.28177506723893   -2.58052989314960
C         1.97464003758680   -2.28797820586540   -1.83056485656823
C         1.73553293111634   -2.99750590413482   -0.58858978279588
C         0.36411583985116   -3.43634338171281   -0.59384017048357
C         2.78299347262991   -1.15114707985012   -1.80946415953650
C         2.40414502166317    0.01038949212692   -2.58542332655712
C         2.78086029648573    1.17091762713108   -1.83054762610191
C         3.38796997564269    0.70845126796639   -0.60006580051071
C         3.40797668641133   -0.70940495458046   -0.61432085635264
C         1.96930059505200    2.29483073250498   -1.82985125178152
C         0.74474841543947    2.29607196550182   -2.59276584385495
C        -0.24700315466561    3.01232328824794   -1.83445115949287
C         0.36563123963520    3.45001349021423   -0.60183102377793
C         1.73500317727301    3.01364688044729   -0.60390141542346
C        -1.56705698167111    2.58504396574330   -1.84063514942117
C        -1.94392341460505    1.41861994666267   -2.60180009957676
C        -2.93481445198724    0.69622963494048   -1.84349616279759
C        -3.16257787115629    1.41679237461619   -0.61616205772034
C        -2.32670700245231    2.57882716147749   -0.61629172493596
C        -2.93322216684972   -0.69059914003471   -1.84344632516806
C        -1.94406444229630   -1.41270698680199   -2.59947335245554
C        -1.56498169500016   -2.57674667861717   -1.83572810246939
C        -2.32783325560042   -2.57398530652084   -0.61347356338620
C        -3.16374018119193   -1.41190407908569   -0.61408389246460
C        -0.98353556567105   -0.71813509576983   -3.32686239327169
C        -0.98725187403089    0.72554312859222   -3.32963635281395
C         0.38255326624424    1.17329957853803   -3.32648191358714
C         1.22891164036883    0.00713274295163   -3.32144665879103
C         0.38337807946975   -1.16027629662410   -3.32341564055083
Cl       -1.62152943784911   -0.00896790992121    5.36510282171260
Cl       -4.10900038028867    0.00663704231001    3.81824954302787
Cl        5.04694703966047   -2.24984709965108    0.94373935960278
63
 energy: -142.117728469272 gnorm: 0.000222607145 xtb: 6.4.1 (a3dbbd7)
C        -1.31589457237438    0.00287597235955    3.58024210472518
C        -0.39141870362659   -1.16198540240691    3.28464737253646
C         0.96104937396399   -0.71195047763855    3.26434087558254
C         0.96102634760170    0.72116119893785    3.27138315671346
C        -0.39318792345015    1.17084405826609    3.29209174102918
C         2.33289492251202   -2.59515438698847    0.58565877904302
C         3.39405371947863   -1.51660968747126    0.63345816287766
C         2.94723135702937   -0.69113983608606    1.82092695697764
C         1.93709413602704   -1.39716362314037    2.53638951483719
C         1.56602650676873   -2.56286744392082    1.78545198362353
C         3.18183194166770    1.42265529077122    0.58174871915411
C         2.33105020035110    2.57554870966415    0.57892680906165
C         1.56669612317592    2.57107717271079    1.80092321651323
C         1.93420530642307    1.40850341508849    2.55139770349815
C         2.93242881454860    0.68506314588215    1.80582030208007
C        -0.36916882797578    3.44001834857475    0.57807916714183
C        -1.73689529672526    2.99494945133512    0.57355309953378
C        -1.98354724035717    2.27753270578697    1.79393322311169
C        -0.74482491038163    2.27661208075512    2.56520249621783
C         0.24173708376371    2.99179405685534    1.80334160286266
C        -3.37209395791577    0.72193499191319    0.57341341977870
C        -3.37264724941413   -0.71615761825013    0.57413866320046
C        -2.79090454467612   -1.16312336106168    1.79753106138567
C        -2.64324381092673    0.00364488474397    2.75393999898772
C        -2.78830009875838    1.16892995879239    1.79531592753180
C        -1.74376869565206   -2.99299602940817    0.57777466166493
C        -0.37357560177059   -3.43408154423879    0.58320621429286
C         0.23684107838618   -2.98788606504736    1.80122473179757
C        -0.74679625871843   -2.27161821573220    2.56453777843243
C        -1.98814848896167   -2.27339206341254    1.79712391001616
C        -0.24282408252227   -2.99797028930716   -1.82496889502321
C         0.75335936691838   -2.28175841242683   -2.58053808024170
C         1.97463690861230   -2.28795790154674   -1.83054670105324
C         1.73556977221992   -2.99751347965824   -0.58857965532466
C         0.36411276989743   -3.43630306331081   -0.59379440046708
C         2.78302109929142   -1.15116706150775   -1.80950697636289
C         2.40416521890538    0.01039332148806   -2.58544781062350
C         2.78088736445241    1.17092446071886   -1.83057242073666
C         3.38799816095061    0.70847864394969   -0.60006815672777
C         3.40792326760648   -0.70941829822969   -0.61426971209411
C         1.96931868285932    2.29483134566697   -1.82988019713125
C         0.74477297212069    2.29608246224595   -2.59279298176172
C        -0.24699284770744    3.01231301919521   -1.83446222451950
C         0.36561480457910    3.44997684342477   -0.60179593342051
C         1.73501459393796    3.01360729173986   -0.60390340168776
C        -1.56702042770648    2.58502416311717   -1.84065713508803
C        -1.94390455673741    1.41861066260948   -2.60183220226389
C        -2.93479717312662    0.69622279198204   -1.84351333455014
C        -3.16251944329316    1.41678566930332   -0.61615804199593
C        -2.32667813532538    2.57879374909276   -0.61630481195684
C        -2.93322374519725   -0.69059586803997   -1.84348327581360
C        -1.94404574090997   -1.41270363709555   -2.59949288607304
C        -1.56494631333983   -2.57673010837617   -1.83572524092835
C        -2.32782574087299   -2.57394308160934   -0.61347001546808
C        -3.16370590283716   -1.41189332481098   -0.61408548159912
C        -0.98353409596312   -0.71814374660234   -3.32689218688133
C        -0.98724932863659    0.72553663248827   -3.32967646123698
C         0.38257628924408    1.17331015240081   -3.32652233405100
C         1.22895006388745    0.00714296355616   -3.32148299873900
C         0.38341052078050   -1.16029096766353   -3.32344397017843
Cl       -1.62019964332571   -0.00896489658105    5.36560286191575
Cl       -4.10981841393137    0.00668681001729    3.81743161074004