156
 energy: -520.459181623447 gnorm: 0.000389967143 xtb: 6.4.1 (a3dbbd7)
C        -1.24938775042491   -0.05473426231197    3.56989742258809
C        -0.38782662560679   -1.36510722749374    3.83282256271627
C         1.16202614279666   -0.83027310771394    3.73375720814017
C         1.15304173499109    0.79273817324163    3.75135799499699
C        -0.23462161756829    1.01941482410585    3.22112212710023
C         2.56078624773275   -2.87994891046562    0.73442151034413
C         3.43657005999185   -1.53515871161518    0.68789917425212
C         2.77166273301588   -0.65652121253048    1.74830852684562
C         1.83605470968011   -1.30978374505804    2.47445432434270
C         1.51369801558814   -2.49461402915577    1.76792218410006
C         3.09865232048054    1.44858337237804    0.60598492521274
C         2.62713767979899    2.89365545808728    0.66825986747766
C         1.80319665899399    2.90184264318063    2.05239879210551
C         2.26823131219380    1.56794578428451    2.86367825768298
C         2.76017945240899    0.75187508658111    1.69704159740836
C        -0.24596647704967    3.43247937663882    0.58664685786522
C        -1.75558607320703    3.20543057202724    0.67719297794102
C        -1.83225690622371    2.17510955401781    1.77251410724210
C        -0.55995738821643    2.04488721491828    2.41397163252652
C         0.36613332276518    2.81855426052836    1.62844606032894
C        -3.33403975856980    0.69016226507584    0.56584254385887
C        -3.61314024598098   -0.79841414114996    0.62517210002888
C        -2.69314322372017   -1.21874928143124    1.78524764654021
C        -2.18553079350912   -0.14601558678157    2.39782661745308
C        -2.60867503443110    1.06982501521741    1.73216145821392
C        -1.68695441487152   -3.05416849838906    0.59620714264554
C        -0.36087458423671   -3.35355933930154    0.56527863010432
C         0.23644970895358   -2.90068863424762    1.76113171553930
C        -0.78130492720163   -2.61743097791663    2.85172881329060
C        -2.14326561742601   -2.59772148624746    1.98508103753622
C        -0.26134112337380   -3.38392759544916   -2.01748162308941
C         0.77848384050914   -2.34240327685772   -2.51145968839617
C         1.86894702711512   -2.32581899345541   -1.73317523007038
C         1.91756130186849   -3.39878242041528   -0.64142036308392
C         0.38884369268044   -3.88933107183964   -0.62652392871420
C         2.95432018280396   -1.29442637690845   -1.89997982233084
C         2.30192153727821   -0.04854160987786   -2.48375879490558
C         2.58528744285890    1.02262296552972   -1.73818583848052
C         3.55769599848971    0.73026161642918   -0.62900383976091
C         3.42667921174326   -0.77078066741785   -0.57547300241380
C         1.79745958930698    2.21509806955165   -1.68911326606224
C         0.73549480102695    2.34626903836738   -2.58393115849740
C        -0.26840066158364    3.33971700788951   -1.99945729708557
C         0.47726045068099    3.87664935944751   -0.67020306154560
C         1.76268137113486    3.06746072947121   -0.58796825323788
C        -1.46587064151121    2.49198555886791   -1.68879500787319
C        -1.84414747095914    1.33495961799286   -2.46533035198634
C        -2.88060196248702    0.68260787296741   -1.81079016019757
C        -3.11179316152539    1.39247037309696   -0.57278656284526
C        -2.23018372521970    2.54624551856488   -0.56903274467124
C        -2.87208116791729   -0.72259928385009   -1.76753913696331
C        -2.03123429891133   -1.54487381666611   -2.73585750549769
C        -1.56211933669524   -2.65425263012107   -1.81028150902308
C        -2.25108833428916   -2.58715574778507   -0.63091378121518
C        -3.12015323107553   -1.43253510186738   -0.63212031757435
C        -0.88472350919679   -0.75374089657648   -3.31422891553421
C        -0.87948380998299    0.58776091758266   -3.19406247905372
C         0.41455825937947    1.25393584972167   -3.59803644676980
C         1.40358040243423   -0.00446168281635   -3.68372470643907
C         0.47956533066934   -1.33471106273543   -3.65457338526421
C        -2.35901031983352    0.47972740482502    4.63857306964347
F        -2.13122465091434    0.47607396695895    5.92939202323938
F        -3.49041032587694   -0.20228599232389    4.45340256860114
F        -2.61808204411643    1.74932757297194    4.32033447528325
C        -0.66420963869821   -1.77505318754521    5.32087638733605
F        -0.27878226063204   -0.79492334985918    6.13176410780768
F        -1.96470880063395   -1.98112772368549    5.50233549443054
F        -0.03459801102828   -2.85348988144228    5.75151307947645
C         2.18089635603465   -1.53389988101580    4.75479678128326
F         1.98829740320101   -1.44759380189487    6.04979135764947
F         2.22555987840458   -2.83197578398232    4.47655583920849
F         3.39423687226362   -1.05144932806735    4.50397932840902
C         1.12596905747700    1.50961771268527    5.19136195789900
F        -0.12716174719874    1.82348899727073    5.51420158244283
F         1.62500569677801    0.83529396127342    6.20017233878495
F         1.77506362744622    2.67062094982762    5.14624097099810
C         3.31428323573953   -4.01278585706234    1.56763483764637
F         3.80811715668668   -3.47023385321738    2.67613220118333
F         4.31118375802258   -4.64504144482308    0.98353384071483
F         2.44932949495479   -4.92699976267719    1.98191211701389
C         4.97547430470611   -1.61719151818951    1.16574546834187
F         5.11201092017487   -1.57448104980743    2.48040839677540
F         5.61601979676464   -2.66430014076883    0.69373932751218
F         5.60135151273083   -0.53278618138991    0.71663049304375
C         3.88263391245660    3.85398474792066    0.74165639587576
F         4.84670621320090    3.26146341548217    1.44066626109785
F         4.33536532735586    4.11366480733408   -0.47647560951566
F         3.67433308994919    5.00584132315100    1.35322558589686
C         1.64457665055875    4.26994585432616    2.87043787129512
F         2.63660605525137    4.75760895353065    3.56871307203754
F         1.24822229234481    5.22510015254138    2.03134180635934
F         0.61370955182226    4.11771183959454    3.71687163951470
C         3.65142448174778    1.74682931855235    3.68425378602705
F         4.06394579981323    2.99278290189103    3.76669876467157
F         3.61710946108415    1.26884428993815    4.91654368134912
F         4.63204044916612    1.07416197431437    3.07387835153142
C        -2.55522643708280    4.48635408620867    1.05451344217716
F        -1.97862370943871    5.13058032055951    2.05992417709044
F        -2.65983811855917    5.31424949763811    0.02476604329928
F        -3.78734333271621    4.14876487252730    1.42789557078033
C        -5.17064600293139   -0.95514549877406    0.82359963956581
F        -5.49015272765576   -1.12967182931637    2.09630076299376
F        -5.78400110851702    0.15787205876817    0.41276753514901
F        -5.67667403524405   -1.94213091584901    0.10130854145750
C        -0.72678926276911   -4.05250397679157    3.54909715363336
F        -0.94220512510002   -4.97992749872020    2.61266111115862
F         0.47127627195379   -4.34374310122295    4.02258541554614
F        -1.62136209078588   -4.23584456377818    4.50276199335559
C        -3.37144002795885   -3.44716152370587    2.48971242509346
F        -3.21725322871684   -4.74313915403198    2.66944652026556
F        -4.31818117323119   -3.34511945245245    1.55440947958261
F        -3.84149329240510   -2.92705364083878    3.61733955112873
C        -0.64810999158470   -4.52723486906097   -3.06370228934316
F         0.34744402687193   -4.91317931465108   -3.83380257453119
F        -1.63023091613793   -4.07125956586448   -3.84356265983263
F        -1.20148138631478   -5.60024200117589   -2.52322059101790
C         2.80860718672282   -4.54798719196123   -1.24831672416201
F         2.38574957414211   -4.84049168609869   -2.47279855473781
F         4.07016722692736   -4.16340846694502   -1.35305528253104
F         2.80101862248312   -5.66905943754943   -0.54690188300713
C         0.15160626958813   -5.44184252948301   -0.36848113119324
F         0.61677600064188   -6.25333531934735   -1.30044864637867
F        -1.15824499422769   -5.65567848684377   -0.22490173769894
F         0.69112109842845   -5.82026789005371    0.77685936738290
C         4.22454263899643   -1.81188147392978   -2.72666476421463
F         4.72381192293060   -0.84650164587657   -3.48093737267470
F         3.92448199230052   -2.83581810310682   -3.50380460138606
F         5.19527200975711   -2.17350060030301   -1.89835953639207
C         4.99128899525889    1.25360895256791   -1.14039019505283
F         5.72414727842318    0.28278908779458   -1.65009248771934
F         4.80443833148364    2.15749933793699   -2.09913952044094
F         5.70835337110714    1.81219771786438   -0.18916044256716
C        -0.89553895957058    4.47660051529214   -2.92306283724910
F        -0.11650027922128    4.80518022229354   -3.93758521249523
F        -2.07442269557200    4.08686774137402   -3.41605044858091
F        -1.20255124498390    5.56602675092638   -2.23070446675248
C         0.87075118285444    5.40026383000727   -0.76904759371794
F         1.10309765805033    5.75664851904951   -2.02972492151179
F        -0.01829564457493    6.20605397176299   -0.22008716613041
F         2.03326221277338    5.62133642621680   -0.16988731265001
C        -3.12438937964312   -1.88632007505824   -3.83918838512921
F        -3.91292908120821   -2.85916915622307   -3.41208674474497
F        -3.88876477038208   -0.80643781712295   -4.03333800055279
F        -2.65021222491840   -2.19130349471625   -5.02796237080021
C         0.05696579507316    1.88702634734378   -4.99536946506087
F        -0.25988141248491    0.94792833114967   -5.88133162132324
F        -1.04996826684273    2.61302775724105   -4.88081764494642
F         0.99586941079118    2.68777625574904   -5.46523204513295
C         2.45376605080512    0.19713425138422   -4.86954948173342
F         2.03814494592316    0.64575844504825   -6.03682376122793
F         3.33791918351095    1.11089331041804   -4.45088754325294
F         3.09918449272331   -0.92918180445116   -5.12781647527227
C         0.64190456853499   -2.12276285753794   -5.01537286772275
F         0.78735315897011   -1.32820427654190   -6.06204608624250
F        -0.37689088144570   -2.89836227024970   -5.31968692389720
F         1.71237573832503   -2.91090920194072   -4.93357461412595
