156
 energy: -487.015803120316 gnorm: 9.730693984404 xtb: 6.4.1 (a3dbbd7)
C        -1.23626340000000    0.00000000000000    3.32997640000000
C        -0.38202640000000   -1.17575640000000    3.32997640000000
C         1.00015810000000   -0.72665740000000    3.32997640000000
C         1.00015810000000    0.72665740000000    3.32997640000000
C        -0.38202640000000    1.17575640000000    3.32997640000000
C         2.34433560000000   -2.60145750000000    0.59464210000000
C         3.19857260000000   -1.42570110000000    0.59464210000000
C         2.96246730000000   -0.69904370000000    1.83090550000000
C         1.96230920000000   -1.42570110000000    2.59495830000000
C         1.58028280000000   -2.60145750000000    1.83090550000000
C         3.19857260000000    1.42570110000000    0.59464210000000
C         2.34433560000000    2.60145750000000    0.59464210000000
C         1.58028280000000    2.60145750000000    1.83090550000000
C         1.96230920000000    1.42570110000000    2.59495830000000
C         2.96246730000000    0.69904370000000    1.83090550000000
C        -0.36750900000000    3.48258920000000    0.59464210000000
C        -1.74969350000000    3.03349030000000    0.59464210000000
C        -1.98579880000000    2.30683290000000    1.83090550000000
C        -0.74953540000000    2.30683290000000    2.59495830000000
C         0.25062270000000    3.03349030000000    1.83090550000000
C        -3.42570570000000    0.72665740000000    0.59464210000000
C        -3.42570570000000   -0.72665740000000    0.59464210000000
C        -2.80757400000000   -1.17575640000000    1.83090550000000
C        -2.42554760000000    0.00000000000000    2.59495830000000
C        -2.80757400000000    1.17575640000000    1.83090550000000
C        -1.74969350000000   -3.03349030000000    0.59464210000000
C        -0.36750900000000   -3.48258920000000    0.59464210000000
C         0.25062270000000   -3.03349030000000    1.83090550000000
C        -0.74953540000000   -2.30683290000000    2.59495830000000
C        -1.98579880000000   -2.30683290000000    1.83090550000000
C        -0.25062270000000   -3.03349030000000   -1.83090550000000
C         0.74953540000000   -2.30683290000000   -2.59495830000000
C         1.98579880000000   -2.30683290000000   -1.83090550000000
C         1.74969350000000   -3.03349030000000   -0.59464210000000
C         0.36750900000000   -3.48258920000000   -0.59464210000000
C         2.80757400000000   -1.17575640000000   -1.83090550000000
C         2.42554760000000    0.00000000000000   -2.59495830000000
C         2.80757400000000    1.17575640000000   -1.83090550000000
C         3.42570570000000    0.72665740000000   -0.59464210000000
C         3.42570570000000   -0.72665740000000   -0.59464210000000
C         1.98579880000000    2.30683290000000   -1.83090550000000
C         0.74953540000000    2.30683290000000   -2.59495830000000
C        -0.25062270000000    3.03349030000000   -1.83090550000000
C         0.36750900000000    3.48258920000000   -0.59464210000000
C         1.74969350000000    3.03349030000000   -0.59464210000000
C        -1.58028280000000    2.60145750000000   -1.83090550000000
C        -1.96230920000000    1.42570110000000   -2.59495830000000
C        -2.96246730000000    0.69904370000000   -1.83090550000000
C        -3.19857260000000    1.42570110000000   -0.59464210000000
C        -2.34433560000000    2.60145750000000   -0.59464210000000
C        -2.96246730000000   -0.69904370000000   -1.83090550000000
C        -1.96230920000000   -1.42570110000000   -2.59495830000000
C        -1.58028280000000   -2.60145750000000   -1.83090550000000
C        -2.34433560000000   -2.60145750000000   -0.59464210000000
C        -3.19857260000000   -1.42570110000000   -0.59464210000000
C        -1.00015810000000   -0.72665740000000   -3.32997640000000
C        -1.00015810000000    0.72665740000000   -3.32997640000000
C         0.38202640000000    1.17575640000000   -3.32997640000000
C         1.23626340000000    0.00000000000000   -3.32997640000000
C         0.38202640000000   -1.17575640000000   -3.32997640000000
C        -1.76086815247998    0.00000000000000    4.78849957557021
F        -0.76911826531252    0.00000000000000    5.67468926254662
F        -2.50968386795825   -1.06794314680471    5.04863888333743
F        -2.50968386795825    1.06794314680471    5.04863888333743
C        -0.54413818249354   -1.67468516033722    4.78849957845317
F        -0.23767107904745   -0.73147481112462    5.67468925997942
F        -1.79120914301982   -2.05683909935453    5.04863874564184
F         0.24013968171955   -2.71686350152345    5.04863903502921
C         1.42457227037960   -1.03501233722714    4.78849957248258
F         0.62223011468481   -0.45207589682711    5.67468926529602
F         1.40265511061956   -2.33913928186680    5.04863905501621
F         2.65809836182651   -0.61117154425495    5.04863869666890
C         1.42457227037960    1.03501233722714    4.78849957248258
F         0.62223011468481    0.45207589682711    5.67468926529602
F         2.65809836182651    0.61117154425495    5.04863869666891
F         1.40265511061956    2.33913928186680    5.04863905501621
C         4.58877084110522   -2.05459160147071    0.86730597290559
F         4.59709252483521   -2.78118520641283    1.98125951001435
F         4.97417519512416   -2.85850196315549   -0.11965482382298
F         5.53562669678859   -1.13053295630600    1.00324569798425
C         2.28376457660886   -3.72927671755932    2.62817408867206
F         3.59030321655004   -3.51265997057976    2.75037870097715
F         2.14318168460923   -4.91533956626619    2.04303190988612
F         1.79618325340524   -3.84739782561575    3.85992562899767
C         3.37204091334889    3.72927672645244    0.86730596148276
F         4.06564647311728    3.51265957144659    1.98125763710228
F         4.25569947457670    3.84739838595791   -0.11965645964809
F         2.78580317558591    4.91533944031226    1.00324916143779
C         2.28376457660886    3.72927671755932    2.62817408867206
F         3.59030321655004    3.51265997057976    2.75037870097715
F         2.14318168460923    4.91533956626619    2.04303190988612
F         1.79618325340524    3.84739782561575    3.85992562899767
C        -2.50473491433418    4.35941144902977    0.86730593917895
F        -2.08438487052912    4.95213043104453    1.98125838386969
F        -2.34400857369757    5.23632280881804   -0.11965581818547
F        -3.81390519137296    4.16837996597314    1.00324768478856
C        -2.84103082519036    3.32439911178427    2.62817407941587
F        -2.23127406184888    4.50005340761388    2.75037746012491
F        -4.01248672303644    3.55720929213525    2.04303264409737
F        -3.10404037880940    2.89718378306489    3.85992609894427
C         0.34440953624153    4.35941144868709    2.62817404748705
F        -0.83992598883967    4.95213069234126    2.75037577510431
F         1.15529636597892    5.23632261667420    2.04303359185445
F         0.80829780400759    4.16837989546168    3.85992670963205
C        -4.92005227074660   -1.03501232949151    0.86730592957069
F        -5.35386609588658   -0.45207588830481    1.98125865327758
F        -5.70437742108406   -0.61117153086585   -0.11965558739362
F        -5.14292645153878   -2.33913927311179    1.00324714649869
C        -4.03961820246674   -1.67468514775899    2.62817407948106
F        -4.96930660042402   -0.73147479244129    2.75037763231441
F        -4.62303373288711   -2.71686348978894    2.04303253910982
F        -3.71458666614022   -2.05683907990832    3.85992603200073
C         0.34440953624153   -4.35941144868709    2.62817404748705
F        -0.83992598883967   -4.95213069234126    2.75037577510431
F         1.15529636597892   -5.23632261667420    2.04303359185445
F         0.80829780400759   -4.16837989546168    3.85992670963205
C        -1.08016271022039   -3.32439912180418    3.71645041587937
F        -1.46215754230407   -4.50005299330749    3.22571838851551
F        -0.03290491502764   -3.55721032900471    4.50254840735999
F        -2.06425285383526   -2.89718320022386    4.50255037491024
C         2.50473491433418   -4.35941144902977   -0.86730593917895
F         2.08438487052912   -4.95213043104453   -1.98125838386969
F         3.81390519137296   -4.16837996597314   -1.00324768478856
F         2.34400857369757   -5.23632280881804    0.11965581818547
C         4.92005227074660   -1.03501232949151   -0.86730592957069
F         5.35386609588658   -0.45207588830481   -1.98125865327758
F         5.14292645153878   -2.33913927311179   -1.00324714649869
F         5.70437742108406   -0.61117153086585    0.11965558739362
C         2.84103082519036    3.32439911178427   -2.62817407941587
F         2.23127406184888    4.50005340761388   -2.75037746012491
F         3.10404037880940    2.89718378306489   -3.85992609894427
F         4.01248672303644    3.55720929213525   -2.04303264409737
C         0.53602450593361    4.99908416128281   -0.86730591619822
F         1.22448605650957    5.23152837615597   -1.98125850960180
F        -0.63540201352706    5.61404743764837   -1.00324736766175
F         1.18149064144157    5.61404773804446    0.11965571789346
C         2.50473491433418    4.35941144902977   -0.86730593917895
F         2.08438487052912    4.95213043104453   -1.98125838386969
F         3.81390519137296    4.16837996597314   -1.00324768478856
F         2.34400857369757    5.23632280881804    0.11965581818547
C        -4.58877084110522    2.05459160147071   -0.86730597290559
F        -4.59709252483521    2.78118520641283   -1.98125951001435
F        -5.53562669678859    1.13053295630600   -1.00324569798425
F        -4.97417519512416    2.85850196315549    0.11965482382298
C        -4.25247495652193   -1.01957928511255   -2.62817407757680
F        -4.45020405360857   -2.32910962270745   -2.75037677428973
F        -4.21414295278389   -0.51936236815949   -3.85992636334022
F        -5.33704498641440   -0.51936149478962   -2.04303305824599
C        -2.28376457660886   -3.72927671755932   -2.62817408867206
F        -3.59030321655004   -3.51265997057978   -2.75037870097715
F        -1.79618325340527   -3.84739782561575   -3.85992562899768
F        -2.14318168460923   -4.91533956626621   -2.04303190988614
C        -3.37204091334889   -3.72927672645244   -0.86730596148276
F        -4.06564647311728   -3.51265957144659   -1.98125763710228
F        -2.78580317558591   -4.91533944031226   -1.00324916143779
F        -4.25569947457670   -3.84739838595791    0.11965645964809
156
 energy: -494.212361923106 gnorm: 7.793766564845 xtb: 6.4.1 (a3dbbd7)
C        -1.23556156375809    0.00100731191885    3.32419166570831
C        -0.38058935078938   -1.16887224314460    3.31380865573474
C         1.00055247003813   -0.72683719299947    3.32055163614083
C         0.99917465637545    0.72824865668368    3.32542570633960
C        -0.38132409916797    1.17446268813506    3.33282029626272
C         2.34558571015887   -2.60054538056321    0.59609278432108
C         3.19206829490405   -1.42444532001003    0.59762730221091
C         2.96282470929154   -0.69874433109022    1.83058787064086
C         1.96444725211092   -1.42649475771225    2.59324987609038
C         1.58185289529235   -2.59474143481392    1.82702669282255
C         3.19941373415210    1.42452324526584    0.59714726924428
C         2.33757622068922    2.58798446330355    0.59225504026663
C         1.57772700711486    2.59090355474539    1.82743725062524
C         1.96475092679924    1.42632728107237    2.59331984467545
C         2.96357249701811    0.70005901536739    1.83032529715905
C        -0.36862387483405    3.48310855083814    0.59574909001975
C        -1.74844025964306    3.03214003713819    0.59245624057764
C        -1.98406333072890    2.30382328176605    1.83050649762346
C        -0.75047952462828    2.30923059107010    2.59465676059763
C         0.24505044375153    3.02874420474441    1.82806318465591
C        -3.42543905804594    0.72623429566287    0.59782499911714
C        -3.42344043100168   -0.72457992954799    0.59284661239517
C        -2.80331051986495   -1.17454491432479    1.83070773992595
C        -2.42764315533331    0.00068338204605    2.59423857901239
C        -2.80906719094500    1.17391297849255    1.83065175663927
C        -1.74859656418993   -3.03600115248813    0.59562459532410
C        -0.36806171429481   -3.48221675800781    0.59407606079193
C         0.24737015919149   -3.02626884176669    1.82139044869593
C        -0.74962517075269   -2.29912938596344    2.58299244772610
C        -1.98635226623160   -2.30835785844431    1.83134678129197
C        -0.24655836786235   -3.03377296273496   -1.83151755801470
C         0.74975260693573   -2.30701381113111   -2.59341842840808
C         1.98423917313195   -2.30591352270335   -1.83329753664851
C         1.74972117311495   -3.03535370102330   -0.59637457916767
C         0.36572067250348   -3.48171980794771   -0.59571849613217
C         2.80706865725594   -1.17450090247331   -1.83242579058526
C         2.42489922847201   -0.00000926016276   -2.59424346181490
C         2.80885333651335    1.17261198085627   -1.83175484254200
C         3.42692960824545    0.72708254157455   -0.59651671693490
C         3.41967393809331   -0.72283492862819   -0.59813927116232
C         1.98206371021093    2.29984142659612   -1.82974728300314
C         0.74859335560228    2.30736113398608   -2.59622685816536
C        -0.25187468784111    3.03333656333917   -1.83227542632917
C         0.36386809017509    3.47727843401453   -0.59438134910436
C         1.74357569325047    3.02010297734120   -0.59354083365601
C        -1.58040646691719    2.60091387641207   -1.83024234319947
C        -1.96283048226314    1.42474661577413   -2.59316201679068
C        -2.96048293034323    0.70249968155846   -1.83378943924281
C        -3.20067749769736    1.42757433414620   -0.59622109139998
C        -2.34300631838774    2.60069651582865   -0.59825780518953
C        -2.96252907517570   -0.70004917654076   -1.83151658452934
C        -1.96077566531007   -1.42503840341697   -2.59633356348331
C        -1.57862393334712   -2.59962314980829   -1.83127334460040
C        -2.34339842279184   -2.59911072573756   -0.59271334060216
C        -3.19840923974213   -1.42670375611489   -0.59495354058974
C        -0.99835691667868   -0.72560380078836   -3.32992156824164
C        -0.99906938925487    0.72626232483672   -3.33030630318352
C         0.38137037769421    1.17419321691218   -3.33011799929794
C         1.23572945046947    0.00001450175789   -3.33000784413935
C         0.38163017304433   -1.17486201002714   -3.33014628843493
C        -1.77883137941494    0.00655924298358    4.76231507086286
F        -0.80430941960545    0.04478476295835    5.70499053002220
F        -2.56747529012872   -1.00724722795321    5.05382587159705
F        -2.51230651562497    1.07305838646432    5.05332955016943
C        -0.54903618541466   -1.68044000411746    4.73944919405565
F        -0.26707206416887   -0.77382642756241    5.71675369607908
F        -1.76312082469442   -2.09269200318123    5.08415466895692
F         0.20086742176596   -2.72535536286619    5.09450272206669
C         1.43974191016997   -1.04290666917205    4.75532210958441
F         0.66873105144240   -0.46768128252551    5.71482488809286
F         1.48548157284181   -2.33057409062030    5.05763317260304
F         2.66607447127925   -0.68649137178501    5.05191967697228
C         1.44610013232653    1.04181369948393    4.75983815961329
F         0.62529863890484    0.51058511816474    5.70465763523629
F         2.66781062610428    0.68908647361904    5.05080056782854
F         1.40045343752453    2.34385992103604    5.05560274831521
C         4.57258896789533   -2.04940212314394    0.87067531362129
F         4.62050123561290   -2.77002214411321    1.96964882174862
F         4.97675322788616   -2.89182762455981   -0.10158299442293
F         5.54436784355271   -1.13689971067207    1.04410146520131
C         2.27989506526573   -3.71398618200598    2.61542434935309
F         3.57614287555500   -3.52925625163097    2.76844968448017
F         2.17635476180742   -4.92722887878377    2.03256418871726
F         1.84490367671255   -3.83419862692853    3.88586218005077
C         3.34663531502036    3.71087694240779    0.85818660483590
F         4.11986959439186    3.50770188659935    1.95681795226092
F         4.29900849576598    3.83326035628768   -0.09779902355691
F         2.84661222677284    4.93247559774668    0.98945438300156
C         2.26128699121915    3.71190213681271    2.60599877197015
F         3.59282067178873    3.50787497071146    2.81035356138046
F         2.15716745069960    4.93117101972251    2.10271597185003
F         1.82703769269529    3.83890012973665    3.88890290076611
C        -2.50895991220768    4.35335000896551    0.85523296241000
F        -2.08891687046118    4.98670735244917    1.93761984629867
F        -2.34617908320553    5.23909833758441   -0.12035434431282
F        -3.80237264473829    4.21064724320986    0.93876513786203
C        -2.84692747289068    3.31249808578006    2.62675771919369
F        -2.25326096289051    4.48074592463477    2.79800545117873
F        -4.02866385446943    3.51944998868436    2.10968498293519
F        -3.10485176439889    2.89738812598418    3.86414078575695
C         0.34508333772470    4.33783035239047    2.61619935912063
F        -0.81520677840024    4.96726761028338    2.76420291735305
F         1.10517712375743    5.27766305519475    2.03255349808995
F         0.77489469796309    4.17604375830738    3.88938460212191
C        -4.91627770320249   -1.03801077672369    0.85573894966347
F        -5.38486949451051   -0.42825809068960    1.94204738803446
F        -5.70749694064388   -0.61316104986836   -0.11663306441339
F        -5.18057971325302   -2.31620621772097    0.93880618117346
C        -4.03082126353133   -1.68202689388767    2.62531638083470
F        -4.95489280800292   -0.74054968883465    2.80293204218288
F        -4.59225818537273   -2.74423270517338    2.11018073450855
F        -3.71931734171633   -2.05853622953529    3.86268810843003
C         0.35054992216964   -4.32712656555931    2.61299863851250
F        -0.82654668354412   -5.00220176208365    2.72032705793353
F         1.13727131007677   -5.26998674187493    2.02700137524014
F         0.82835233896276   -4.22708618427613    3.85445311873197
C        -1.06655637143318   -3.30048286890708    3.69838597259879
F        -1.51750125492220   -4.50029307863147    3.24740451284023
F        -0.08194613015673   -3.57479893959894    4.54002349646216
F        -2.10022081039641   -2.93023869526477    4.49476621015891
C         2.50249297377998   -4.35834193901559   -0.86950544278591
F         2.08479149305689   -4.95376198733468   -1.98218857243080
F         3.81546805650484   -4.17136996369952   -1.00488094751471
F         2.34492363933503   -5.23985411105471    0.11844782806059
C         4.90238738982660   -1.03024411264145   -0.87350911349475
F         5.35771213384709   -0.45097760073771   -1.98363643653882
F         5.15297603722373   -2.34069097082863   -1.04046326499098
F         5.72858595953718   -0.57879223107573    0.09961881936801
C         2.84590882653562    3.30237432106517   -2.62168200246452
F         2.23758927879508    4.49051492978748   -2.81446755771454
F         3.10501308515286    2.89792623347644   -3.86527351918571
F         4.03958303154510    3.51675479807231   -2.11140293094296
C         0.52689336385611    4.98410644138786   -0.84891229022856
F         1.17415376042634    5.26495105633462   -2.00585875255571
F        -0.63603645005392    5.61910451007757   -1.00713794480372
F         1.10460435025558    5.65144619195228    0.13123346611027
C         2.49702229772883    4.31883458798963   -0.84380395031924
F         2.11685295529553    4.99129781904972   -1.97803797691577
F         3.81294680566611    4.22245438165974   -0.98347299377232
F         2.39238373118017    5.26235433128050    0.09198429166590
C        -4.58776891112858    2.05422462117322   -0.86840717293290
F        -4.59808787620106    2.78241542578533   -1.98232897472191
F        -5.53778201049972    1.13539171325828   -1.00298312778170
F        -4.97776410914870    2.85774427763670    0.11933721182846
C        -4.25174509392633   -1.01416314938067   -2.62808475247688
F        -4.46857833637132   -2.30450583050078   -2.76171159402361
F        -4.21483742862494   -0.51904185872577   -3.86182945225158
F        -5.33846893609780   -0.52154309960055   -2.04761804055555
C        -2.27150222896535   -3.73039765686987   -2.62860116824476
F        -3.56407213505264   -3.52704136137449   -2.79745358150721
F        -1.79572199634994   -3.84774572068536   -3.86321465758925
F        -2.10178053108821   -4.91960870191115   -2.10997808088849
C        -3.36614535669275   -3.73041880452189   -0.85715524298973
F        -4.09611301973225   -3.52706264515013   -1.93701459469491
F        -2.82712797532342   -4.91975678193079   -0.93601287481070
F        -4.25764431824749   -3.85077743769026    0.12057581324718
156
 energy: -501.164095936982 gnorm: 6.883941477270 xtb: 6.4.1 (a3dbbd7)
C        -1.23555986840542    0.00473574111559    3.31941206581186
C        -0.38120879384332   -1.16387561705200    3.30659618443953
C         1.00179941561105   -0.72767541170871    3.31454756860545
C         0.99749656036780    0.72992501131776    3.32252170559175
C        -0.38066349501628    1.17311970655395    3.33639762788547
C         2.34629204386781   -2.59921388031055    0.59750453557913
C         3.19032109641824   -1.42568876805100    0.60104686451456
C         2.96232024225540   -0.69607586294608    1.83116614311098
C         1.96704486791739   -1.42670101783866    2.59139478135336
C         1.58622812303579   -2.59076903118839    1.82535406828659
C         3.20007100864717    1.42319225369389    0.59928639527075
C         2.33676172414457    2.57687792121390    0.59266980888095
C         1.57842819380088    2.58723350726455    1.82945221337858
C         1.96769601274875    1.42723189878222    2.59269684090870
C         2.96324154412301    0.69922048094905    1.82809557712264
C        -0.36984650855821    3.48257725548767    0.59770505456816
C        -1.74712661030006    3.03209127606121    0.59001864458591
C        -1.98256596576521    2.30135736801255    1.83214832875229
C        -0.75140846040937    2.31139065106751    2.59415658409733
C         0.23889985754212    3.02720185401248    1.82703756765338
C        -3.42453170670657    0.72611935535400    0.60183762367696
C        -3.42177133048254   -0.72224944065565    0.59093412983574
C        -2.79997779646487   -1.17342163004054    1.83182349962178
C        -2.43006408620928    0.00202328965420    2.59320275940588
C        -2.81060228318255    1.17075948861355    1.82882213167507
C        -1.74726657956656   -3.03879208180350    0.59731005815964
C        -0.36869162069802   -3.48148443461778    0.59206096090105
C         0.24557211124320   -3.02580225216774    1.81636165375318
C        -0.75220221154032   -2.29493395695648    2.57238122524651
C        -1.98632027939231   -2.31019099392537    1.83125945890943
C        -0.24131895979091   -3.03440538923768   -1.82969368293116
C         0.75066783975076   -2.30659086119310   -2.59188687943325
C         1.98201411353983   -2.30328220625376   -1.83599773271146
C         1.75102493324076   -3.03952440154323   -0.59845726641575
C         0.36253331367527   -3.48031176371742   -0.59706859735220
C         2.80507315612559   -1.17446454967713   -1.83448747277426
C         2.42417638942631    0.00035820961155   -2.59350579824374
C         2.81000726306569    1.16798799500361   -1.83186903894110
C         3.42714020654756    0.72760277701826   -0.59845010538286
C         3.41925592467370   -0.71996164988547   -0.60148672845941
C         1.98099570130920    2.29574414113008   -1.83182248921263
C         0.74615070132602    2.30674614287536   -2.59747219027516
C        -0.25323726158039    3.03189416592563   -1.83504679010267
C         0.36084362502525    3.47613781228769   -0.59446166841420
C         1.74080641134619    3.01241392499812   -0.59432598385711
C        -1.58027939356184    2.59885301502007   -1.82834913944396
C        -1.96355909421614    1.42349778211466   -2.59102289787770
C        -2.95570555120335    0.70660937325039   -1.83579169040845
C        -3.20373065577050    1.43026713405024   -0.59857109022447
C        -2.34136188908375    2.60123793872469   -0.60222696685408
C        -2.96531428620375   -0.70134316672380   -1.83390941413762
C        -1.95844135303201   -1.42387575134265   -2.59782911136719
C        -1.57768748961020   -2.59846099701617   -1.83354809424446
C        -2.34283343211597   -2.59634747664896   -0.59048928530201
C        -3.19817260273616   -1.42766964823732   -0.59562718435994
C        -0.99646212857192   -0.72425874709567   -3.32876788227826
C        -0.99802648882592    0.72579822868645   -3.33117961720457
C         0.38043344367930    1.17285081002840   -3.32978238811728
C         1.23518284008749   -0.00040092273748   -3.32999063748158
C         0.38163993402425   -1.17365311469166   -3.33102678000495
C        -1.79564034102375   -0.00056718064458    4.73690148442114
F        -0.84127855788051    0.11305479849565    5.73005592535140
F        -2.60362257701634   -0.96488729788206    5.05777159242531
F        -2.51288176586530    1.07599018343851    5.05700417632342
C        -0.56477743341416   -1.68063461653097    4.68228089007248
F        -0.33836292620974   -0.85203877556605    5.76236052272365
F        -1.72009588346533   -2.09206878302581    5.12998861452316
F         0.18030367873446   -2.72733815231272    5.14695767542082
C         1.45027410968454   -1.05588196058096    4.72506955246651
F         0.77840530219275   -0.47176147380022    5.75087355212146
F         1.54412355109662   -2.32096172795623    5.05974602014234
F         2.66908864648264   -0.73180243272545    5.05559099928160
C         1.46380542380333    1.04823566015846    4.73618874444913
F         0.62067834846134    0.57629883526251    5.73003609216035
F         2.67209941170602    0.73664501951217    5.05350108149004
F         1.39783114062221    2.34395669240775    5.06102241302408
C         4.56332946291062   -2.04637171582927    0.87457262397754
F         4.64241440339867   -2.75972514746014    1.95907089675641
F         4.97270695193484   -2.93262140796696   -0.04736172092639
F         5.53717153818287   -1.17475965574494    1.12006422674333
C         2.27684205977075   -3.70069731511957    2.60473031266138
F         3.56271274570601   -3.54547977165430    2.78600081172956
F         2.23494663457586   -4.92480847812834    2.02737117126047
F         1.93159713965848   -3.80136597263940    3.90650861012385
C         3.30483948912687    3.69772443006920    0.84603305335027
F         4.16923966039948    3.50511234574147    1.94214725335387
F         4.36229017906360    3.80582892426692   -0.05481972016267
F         2.90953517045778    4.93628284719595    0.98800048827313
C         2.22971399584360    3.70860728803268    2.57151053510076
F         3.60638873011435    3.50317053733590    2.86188219387269
F         2.21101437512510    4.91323573392499    2.17224608378296
F         1.89297965264722    3.82368524329856    3.91022927532840
C        -2.51411815889935    4.34600929723737    0.84331280643855
F        -2.09632809029590    5.01270242580805    1.91025433221276
F        -2.34891690443743    5.24045033950118   -0.11922495396948
F        -3.79523569630285    4.23789336030944    0.90161133212761
C        -2.85336247155676    3.30094815659121    2.62404971210791
F        -2.27232270692003    4.47085542095698    2.83005241817787
F        -4.03936376433686    3.49774022739635    2.14971019426384
F        -3.10512083973157    2.89832940946679    3.86624288586847
C         0.34764516114443    4.32044844349322    2.60719272540213
F        -0.78833263217665    4.98164699190723    2.77812088291758
F         1.01612535117497    5.32411510533496    2.01889681304942
F         0.71094654481988    4.19503652117196    3.90915680213529
C        -4.91099301256987   -1.04334762709326    0.84429035494026
F        -5.40787279774586   -0.41003410968544    1.92224469312538
F        -5.70999618526221   -0.61583563160566   -0.11163031129661
F        -5.20498333325777   -2.30215885284029    0.90184399727283
C        -4.02172266518209   -1.69101774099857    2.62097797723244
F        -4.95070863186488   -0.74212291439013    2.83819013725389
F        -4.57516882977488   -2.76108151625293    2.15011280033631
F        -3.72568992759846   -2.05890349069972    3.86209264439874
C         0.36201287154305   -4.28372741618656    2.61421794195959
F        -0.82564168906613   -5.04981161415144    2.69796233959163
F         1.08999673506155   -5.30896307375210    2.01773084746294
F         0.79964855914616   -4.30131149334714    3.82958611566789
C        -1.03771396537251   -3.26966313235735    3.67847841983887
F        -1.56529762358595   -4.50648824172840    3.26483886287179
F        -0.13185479825395   -3.59921038287024    4.56410041569365
F        -2.15088751078061   -2.98361577343930    4.47614256970284
C         2.50032357238831   -4.35708426939448   -0.87161558243859
F         2.08505953626961   -4.95532976256655   -1.98319219668175
F         3.81553964266296   -4.17462595667899   -1.00693022680346
F         2.34559531145810   -5.24274157239522    0.11592015043121
C         4.89394766574854   -1.02529026209428   -0.87697286678096
F         5.36125098714345   -0.44946651860349   -1.98749145021410
F         5.16710186796846   -2.31499035718923   -1.10194707380516
F         5.75095170031446   -0.53111686592854    0.03104643167140
C         2.85537752960461    3.27775913131821   -2.61117761256769
F         2.23684403745845    4.47964318382978   -2.88740816674432
F         3.10486290173479    2.89941663556296   -3.86924864070825
F         4.05532118265021    3.48829007753882   -2.15706301536455