63
 energy: -142.082398744065 gnorm: 0.136606914437 xtb: 6.4.1 (a3dbbd7)
C        -1.29585809770389    0.00401118895665    3.54517689253707
C        -0.36796043462932   -1.17243305037605    3.30515820978008
C         0.98298838983527   -0.72191219207564    3.27512267938171
C         0.98156472667820    0.71960753568128    3.26971969810914
C        -0.37066843460465    1.17924059903467    3.30150764336582
C         2.33648296603916   -2.58548060331365    0.57950289353032
C         3.18657767574002   -1.41946403927647    0.57781419519059
C         2.94957050639235   -0.69854930596759    1.80123308070154
C         1.95308396824160   -1.41752165468763    2.55613481575760
C         1.57961582989334   -2.57968580837377    1.80518673242103
C         3.18767024140451    1.40991878522763    0.57593180000620
C         2.33807592116844    2.57402574447607    0.57591940981122
C         1.57683795432701    2.56605672107525    1.79975339071644
C         1.95304946465436    1.40835201077487    2.55205927518980
C         2.95072023087345    0.68875745016373    1.80098024572921
C        -0.36516779407368    3.42666371337356    0.57921714423118
C        -1.72924376763824    3.01648005769000    0.58287705261872
C        -2.09463355992581    2.46231283092052    1.94730853815858
C        -0.73027134402217    2.28553619303067    2.58224921102021
C         0.24829448349984    2.97593693112150    1.80334175266563
C        -3.37466967425340    0.70300551354290    0.57574930054980
C        -3.39003092747716   -0.73268815647906    0.56838248265369
C        -2.76818811332164   -1.16356142379097    1.78871572221350
C        -2.38904763706855    0.02437925876362    2.53264263719760
C        -2.74834472563595    1.12995086275151    1.81420011519069
C        -1.73481952350512   -3.00995345714269    0.57938225060336
C        -0.36149853481650   -3.44686666227317    0.58178847315895
C         0.25217194581416   -2.99475012292755    1.80551621994623
C        -0.72930832442940   -2.27346636839910    2.56467955448571
C        -1.97147545426586   -2.28746259170963    1.79868366133100
C        -0.24419850626392   -3.01431906333444   -1.82647673840836
C         0.74940205407495   -2.29291975825760   -2.58286291053874
C         1.97453700933417   -2.29239152843074   -1.82543977586922
C         1.74139873400736   -3.01127177410490   -0.59946235558356
C         0.36858334367966   -3.45436466613801   -0.59762914044760
C         2.79442417392884   -1.17031401259636   -1.82833550603033
C         2.41574661888024   -0.00512369156855   -2.58546959716668
C         2.79806943075341    1.16104826420258   -1.83045397172065
C         3.41356646771945    0.71553904943849   -0.60565027142670
C         3.41126633561149   -0.72579612454708   -0.60436594395851
C         1.98256115248497    2.28538932455247   -1.82964816243281
C         0.75350030257848    2.28551308199782   -2.58573232036207
C        -0.23508280213456    3.00436687409655   -1.82344140492918
C         0.37359850932028    3.44286488622179   -0.60220138863872
C         1.74684322376492    3.00246743943424   -0.60372642363492
C        -1.55566653231806    2.56818250386052   -1.80941223575869
C        -1.93859434646944    1.40592010794080   -2.57168095880615
C        -2.93551210457882    0.68461262535792   -1.82146846772098
C        -3.16898901542976    1.39767486975662   -0.59605965548237
C        -2.30435127723071    2.57332623923171   -0.58497549467516
C        -2.94114405309208   -0.70773319324488   -1.83440725641731
C        -1.94505174577217   -1.42387954875747   -2.59102123506710
C        -1.56548890447542   -2.59170746585215   -1.83211639425372
C        -2.32839595515909   -2.59312664323360   -0.60918315818311
C        -3.17773883494341   -1.43218193772331   -0.61434027474195
C        -0.98775846759569   -0.72638522820754   -3.31322849837523
C        -0.98659864719709    0.71557045430270   -3.30737103326374
C         0.38544609985482    1.16109326139683   -3.31071431261235
C         1.23106807703669   -0.00470839638716   -3.31198800126459
C         0.38446650889097   -1.17000629330740   -3.31255499443923
Cl       -1.95494402230001   -0.00808767739961    5.23350834621500
Cl       -3.13453400437008    3.62205440029917    2.87428256883422
Cl        4.22898077764110   -1.75755958881035   -2.76283536368823
63
 energy: -142.106385237891 gnorm: 0.058699486125 xtb: 6.4.1 (a3dbbd7)
C        -1.29642864958420    0.00422072056459    3.54567459693344
C        -0.36863877174518   -1.17216110623014    3.30656139322273
C         0.98153605150093   -0.72045265013583    3.27513790779069
C         0.98034373064808    0.72131807303916    3.27063237189084
C        -0.37178135658476    1.17992022044958    3.30194727776669
C         2.33044340652832   -2.58492690945215    0.58118178477432
C         3.17617146492613   -1.41033473329442    0.58185864724773
C         2.94922024060172   -0.69440335623213    1.80702766189184
C         1.95183879778157   -1.41537100666940    2.55631934585270
C         1.57753336722815   -2.57869247040259    1.80409788929913
C         3.18649470477847    1.41481744247427    0.58348921488339
C         2.33592064872774    2.57806274083856    0.57908078315484
C         1.57526743471033    2.56979201633449    1.80254090657612
C         1.95164105597755    1.41193688630335    2.55460870409508
C         2.95198759410414    0.69454893238513    1.80636767949861
C        -0.36728358596273    3.42880485125033    0.58091330719063
C        -1.73066499351099    3.01755862210359    0.58371213641477
C        -2.09611397763839    2.46302312568642    1.94784290484246
C        -0.73179112056795    2.28659627932925    2.58287231523203
C         0.24611408705144    2.97820691137588    1.80519982063176
C        -3.37528145576629    0.70385330754020    0.57626987425945
C        -3.39046344253771   -0.73205991140370    0.56927145156400
C        -2.76868994254085   -1.16314665174557    1.79005186400532
C        -2.38930701361124    0.02439875337669    2.53301991485231
C        -2.74888716132589    1.13030555627645    1.81387064410095
C        -1.74005011152651   -3.01198477172863    0.58224925625394
C        -0.36845369574286   -3.45185414028672    0.58517441315250
C         0.24834900267892   -2.99640163390259    1.80706693993105
C        -0.73073914025549   -2.27448506583783    2.56550607687245
C        -1.97342423539657   -2.28814663436283    1.80091114775667
C        -0.25512140079075   -3.02159420739455   -1.82231358967762
C         0.74113127127638   -2.29389765000132   -2.57097411093872
C         1.96399086569802   -2.31585805559371   -1.82916278046185
C         1.72704442591406   -3.00848793204785   -0.59913807298222
C         0.35676576352703   -3.46206089324303   -0.59494386837701
C         2.88112489547048   -1.20457340116878   -1.88449743198484
C         2.40565671371921    0.00800671208995   -2.58258673083732
C         2.78689380912126    1.16207784474744   -1.82530461442392
C         3.40333961931204    0.71618136942435   -0.59928764271040
C         3.40596210498987   -0.71663971504434   -0.59169438057688
C         1.97774097858715    2.29349857603960   -1.82944258724719
C         0.75191524421140    2.29357871772699   -2.58578731690136
C        -0.23700342464040    3.00887559694957   -1.82191202092935
C         0.37139795852018    3.44706410799861   -0.60044238134304
C         1.74432370651686    3.00676913536024   -0.60146608038899
C        -1.55663451940630    2.57015622830887   -1.80848079590136
C        -1.93919127607017    1.40719492133053   -2.57038136519304
C        -2.93675076908589    0.68576499733106   -1.82116779239449
C        -3.16966354412559    1.39810002502387   -0.59623653011300
C        -2.30515549680270    2.57418723088501   -0.58451655756608
C        -2.94233390346061   -0.70796251845658   -1.83395266992739
C        -1.94912472331657   -1.42478244355623   -2.58948973433320
C        -1.57301209157861   -2.59488175244629   -1.82999262622814
C        -2.33360466901821   -2.59478573036134   -0.60651206799744
C        -3.17969290908725   -1.43170428957738   -0.61285594953637
C        -0.98779348192211   -0.72604612780131   -3.31101732646261
C        -0.98715372247495    0.71749735070943   -3.30557132819911
C         0.38222085295804    1.16788154728201   -3.31083688771245
C         1.22383026656510    0.00261689857361   -3.30155165613483
C         0.37941261336547   -1.16940042215524   -3.30945974922350
Cl       -1.95550395952626   -0.00755602779882    5.23419110064604
Cl       -3.13589278938389    3.62258304973209    2.87489842231088
Cl        4.35094621541369   -1.80055979052938   -2.83909836078778
63
 energy: -142.112295348005 gnorm: 0.013278764244 xtb: 6.4.1 (a3dbbd7)
C        -1.29895805660701    0.00521409097457    3.54690399288324
C        -0.37118428159856   -1.17105997997367    3.30833144227454
C         0.97864265909673   -0.71903272528470    3.27497919245107
C         0.97780130295957    0.72312139307226    3.27220842424326
C        -0.37445539163672    1.18098843162302    3.30297299988960
C         2.32983725936523   -2.58632246596400    0.58147500459850
C         3.17373061169834   -1.40620301288241    0.57676511382186
C         2.94230690161206   -0.69192959121896    1.80236584613604
C         1.94819202919904   -1.41303787921040    2.55407669331819
C         1.57508062688049   -2.57663384383024    1.80032073107048
C         3.18187400563980    1.41405401544038    0.58543991502410
C         2.33239046423153    2.57859569633778    0.58103251608528
C         1.57219240111521    2.57224870123643    1.80474294467078
C         1.94923089677985    1.41481034685041    2.55735390540591
C         2.94784186420666    0.69738741673167    1.80638540960839
C        -0.37074205153352    3.43140910608961    0.58343454516761
C        -1.73369312849326    3.01954655737176    0.58580721894501
C        -2.09939678306120    2.46460454040811    1.94978253546129
C        -0.73490679505942    2.28835211122280    2.58462853435255
C         0.24258111998106    2.98062979191209    1.80780270237477
C        -3.37764598533641    0.70538456120689    0.57838149226086
C        -3.39287403162822   -0.73079979451441    0.57117798892207
C        -2.77088213303812   -1.16188441337535    1.79224188435264
C        -2.39184869687854    0.02535148318905    2.53464494280470
C        -2.75151381063560    1.13164551433909    1.81514509587803
C        -1.74504575274270   -3.01308308738135    0.58535203464087
C        -0.37258444391455   -3.45105550327681    0.58722854500220
C         0.24449443375378   -2.99629838866273    1.80896875324406
C        -0.73322193577735   -2.27423418041049    2.56668176757836
C        -1.97691340810568   -2.28796126183651    1.80361331044299
C        -0.25796408804820   -3.01832692146055   -1.81784856091316
C         0.74418133075447   -2.28918020016045   -2.56188855358881
C         1.95912963812452   -2.31699478991620   -1.82758396536555
C         1.72375051803959   -2.99975192199496   -0.60261009543128
C         0.35276526413098   -3.45852853626371   -0.59274389060617
C         2.95868360522190   -1.23213736140591   -1.93354454593156
C         2.40850782548046    0.00969028678495   -2.58598318437357
C         2.77744946816698    1.15399400079451   -1.82340853058309
C         3.39421846216988    0.70837991545627   -0.59752452073943
C         3.41068662291496   -0.71649890235891   -0.59149835398885
C         1.97299288139546    2.29293419338233   -1.82725707708053
C         0.74985433246434    2.29514001052272   -2.58130327670025
C        -0.23987454495463    3.01265032934536   -1.82008638571622
C         0.36836843353385    3.44974778550506   -0.59798205240329
C         1.74080627478416    3.00727131937589   -0.59958422394014
C        -1.55903817741143    2.57238409051597   -1.80667392865493
C        -1.94074294675544    1.40815257175013   -2.56794929645707
C        -2.93936157499245    0.68740893660312   -1.81918708631543
C        -3.17172402057533    1.39908779770045   -0.59472702226879
C        -2.30736526019441    2.57560795679580   -0.58281695794613
C        -2.94405924653151   -0.70722789769889   -1.83204732214283
C        -1.95271636460169   -1.42401054912207   -2.58669134241732
C        -1.57625274259509   -2.59367975479992   -1.82642665281856
C        -2.33853770248733   -2.59533515486208   -0.60386860910344
C        -3.18307258440262   -1.43072088701989   -0.61032205342076
C        -0.98588763930544   -0.72632165586607   -3.30632685870913
C        -0.98763347827485    0.71782270206076   -3.30092102144351
C         0.38175683709908    1.16610184452735   -3.30259516992134
C         1.22677961179206    0.00300880463411   -3.29545303471645
C         0.37825503794581   -1.16974960736035   -3.31019586575143
Cl       -1.95773919415736   -0.00632453869637    5.23583295366303
Cl       -3.13951485253347    3.62359868916194    2.87686161242852
Cl        4.43789594075214   -1.83781343613379   -2.89641786214790
63
 energy: -142.112593602152 gnorm: 0.007979795552 xtb: 6.4.1 (a3dbbd7)
C        -1.30039878276530    0.00588875785287    3.54780545949010
C        -0.37255202041723   -1.17042947523533    3.30918294304695
C         0.97708318970715   -0.71836029403135    3.27418527311377
C         0.97614607121752    0.72384377831738    3.27250484332997
C        -0.37606124434979    1.18186098976769    3.30391845343409
C         2.33148687938619   -2.58801548160568    0.58199340302432
C         3.17663458485123   -1.40727987296427    0.57335194135784
C         2.93888917353184   -0.69149591209521    1.79787530875357
C         1.94604575443947   -1.41186033084690    2.55166557827312
C         1.57438105989956   -2.57618466586033    1.79893690302964
C         3.17895940903312    1.41224053997551    0.58392417573992
C         2.33016131091421    2.57732636903934    0.58129032947761
C         1.57047877737131    2.57274753357554    1.80543262801306
C         1.94769996492705    1.41538382846914    2.55791419376574
C         2.94507405287753    0.69735513748705    1.80479864406273
C        -0.37252884678194    3.43288344739417    0.58466431610799
C        -1.73556656670040    3.02102078358573    0.58709453661906
C        -2.10135445764956    2.46560011420515    1.95108537095291
C        -0.73668469844033    2.28964373942631    2.58601494658750
C         0.24086833482619    2.98190380142512    1.80919463159281
C        -3.37913794294116    0.70614033515065    0.57958009115788
C        -3.39410829460063   -0.73025299417741    0.57209260565304
C        -2.77200453895613   -1.16142857077233    1.79333054729621
C        -2.39332330252829    0.02584362285721    2.53563679788561
C        -2.75311131608572    1.13236198292320    1.81613748681738
C        -1.74614561252400   -3.01292597045891    0.58633772583378
C        -0.37306981634473   -3.44942273866477    0.58751702515500
C         0.24350639083579   -2.99575325292256    1.80974629712008
C        -0.73413186478702   -2.27382282988846    2.56737269720803
C        -1.97827478601806   -2.28785140404384    1.80476661001640
C        -0.25687454763491   -3.01438563759028   -1.81620508690327
C         0.74810149268977   -2.28701239506141   -2.56121053783152
C         1.96088999819583   -2.31280693000225   -1.82707314524349
C         1.72639050669550   -2.99696891977695   -0.60452896993055
C         0.35340876193228   -3.45450299813591   -0.59205713998697
C         2.97807010112283   -1.23755226615824   -1.94532326696825
C         2.41594414423969    0.00674530864419   -2.59178217018622
C         2.77652047990686    1.15001076395889   -1.82444878980949
C         3.39335267162365    0.70445978651475   -0.59860368829544
C         3.41881323997556   -0.71999282524841   -0.59600993004447
C         1.97162730102091    2.29004027140362   -1.82544880888490
C         0.74916107689557    2.29388050050836   -2.57870884545390
C        -0.24114204427066    3.01339522190874   -1.81904330794196
C         0.36686795317314    3.45031385189789   -0.59683882021072
C         1.73882705647479    3.00584003330369   -0.59881513861086
C        -1.56021621025443    2.57312093243274   -1.80533822642730
C        -1.94101765962205    1.40828333550883   -2.56625447900705
C        -2.94055767301408    0.68827681612753   -1.81799375205893
C        -3.17306136418704    1.39983774211032   -0.59366184052230
C        -2.30891120576975    2.57668195775816   -0.58170019125792
C        -2.94460878453103   -0.70647763478338   -1.83104861655264
C        -1.95352108462393   -1.42303870356507   -2.58550892820301
C        -1.57603502249990   -2.59205718608343   -1.82483661498090
C        -2.33952963182875   -2.59489450693899   -0.60300890275380
C        -3.18431969180090   -1.43018299888608   -0.60931642160070
C        -0.98514561361848   -0.72650910076295   -3.30472245557176
C        -0.98704326269681    0.71732307476579   -3.29768704261176
C         0.38290474253305    1.16355303623937   -3.29805892449740
C         1.23069564802120    0.00133861190045   -3.29676627076049
C         0.37843361643753   -1.17001166374247   -3.31246227882970
Cl       -1.95958461530911   -0.00491781231872    5.23681585700101
Cl       -3.14251862292004    3.62357909859234    2.87828804616208
Cl        4.45004493913773   -1.84814298242530   -2.90652032773771
63
 energy: -142.112688637002 gnorm: 0.004632692515 xtb: 6.4.1 (a3dbbd7)
C        -1.30078260918229    0.00611862510973    3.54817573119306
C        -0.37292799267915   -1.17026840167970    3.30973589109476
C         0.97656242424985   -0.71813609990625    3.27386031737490
C         0.97550940565744    0.72413208476806    3.27261773869520
C        -0.37657531725438    1.18225566547016    3.30442661865620
C         2.33261584942602   -2.58938118556432    0.58311294025591
C         3.17803434154063   -1.40796805964846    0.57185024448596
C         2.93722302788276   -0.69117383170827    1.79544614557041
C         1.94502708174323   -1.41126465211491    2.55030557179294
C         1.57434803035349   -2.57640022940680    1.79882260081566
C         3.17699414084688    1.41124102495906    0.58295506884100
C         2.32895847406320    2.57657785452731    0.58140373057827
C         1.56988940755268    2.57302110234822    1.80595419045350
C         1.94711636420715    1.41570859605589    2.55840583295824
C         2.94381016578327    0.69726063382521    1.80415172284979
C        -0.37319326831417    3.43374745258283    0.58513019425585
C        -1.73623746325584    3.02177087368794    0.58755881051585
C        -2.10196189220456    2.46599581480710    1.95157606848825
C        -0.73722114454727    2.29028741666977    2.58667180439063
C         0.24033413346936    2.98264012733993    1.80990128718901
C        -3.37943430379082    0.70636713597800    0.57988717592979
C        -3.39423358506790   -0.73017055845206    0.57218986038644
C        -2.77200216037713   -1.16139753256019    1.79356096497272
C        -2.39347629932948    0.02586277088253    2.53575788988558
C        -2.75333837589330    1.13250896953528    1.81627329809610
C        -1.74616569659592   -3.01290728040658    0.58656926912451
C        -0.37295402926095   -3.44873943660952    0.58761933109861
C         0.24334824889282   -2.99571283369589    1.81040829410175
C        -0.73421862114665   -2.27382906674621    2.56781673499735
C        -1.97852583743596   -2.28805828761832    1.80519699765554
C        -0.25603927389597   -3.01178122228159   -1.81521008055987
C         0.75043493824028   -2.28533970501261   -2.56114022559686
C         1.96147585445421   -2.30857168652179   -1.82588650721400
C         1.72829060727397   -2.99519467057118   -0.60526683904279
C         0.35396334563394   -3.45181686023613   -0.59165308208042
C         2.98621815531426   -1.23951551763051   -1.95017057197999
C         2.41992785607597    0.00472391079798   -2.59494409095010
C         2.77557418320315    1.14792926449318   -1.82481024832967
C         3.39244033796635    0.70241164143190   -0.59893638785598
C         3.42304660665942   -0.72222508868101   -0.59863982328957
C         1.97071907649315    2.28826283638322   -1.82413218385578
C         0.74873222417435    2.29328798143155   -2.57760115488562
C        -0.24182676110683    3.01392142156244   -1.81870110257512
C         0.36615360847689    3.45074962486817   -0.59650910404604
C         1.73775239100192    3.00498669244568   -0.59841455368466
C        -1.56073142314751    2.57346636832530   -1.80480777404653
C        -1.94110049551496    1.40840123536556   -2.56573303814555
C        -2.94105380929564    0.68869984472946   -1.81771967709070
C        -3.17354604788529    1.40018338683562   -0.59339701464070
C        -2.30957644818423    2.57726262580119   -0.58133367551578
C        -2.94471458513074   -0.70612939126690   -1.83093293356918
C        -1.95393382470483   -1.42250303598291   -2.58536723296593
C        -1.57568126322136   -2.59129803748438   -1.82433422144860
C        -2.33948488179891   -2.59470011863269   -0.60288626274518
C        -3.18461676619082   -1.43006274165659   -0.60917997098772
C        -0.98508583168235   -0.72657888737328   -3.30458638438419
C        -0.98661826769100    0.71703129806506   -3.29603162372203
C         0.38364761790071    1.16228724075818   -3.29572404186677
C         1.23243613570214    0.00046660306764   -3.29762475031548
C         0.37797821951036   -1.16999859397657   -3.31444863999919
Cl       -1.96076375559483   -0.00412794214773    5.23707207493563
Cl       -3.14399356800060    3.62311970125206    2.87889361446787
Cl        4.44838090305361   -1.85325012060733   -2.90771207131341
63
 energy: -142.112728072906 gnorm: 0.002410802036 xtb: 6.4.1 (a3dbbd7)
C        -1.30062004844803    0.00603444423746    3.54812562045166
C        -0.37273526014367   -1.17034627114817    3.30990849998598
C         0.97671211586361   -0.71818991630095    3.27387401373659
C         0.97553899377149    0.72415102889630    3.27258047797007
C        -0.37647209865168    1.18223685818552    3.30448454557152
C         2.33306253383343   -2.58998379303704    0.58399482279343
C         3.17811368116767   -1.40794231695942    0.57164046000603
C         2.93691630876650   -0.69093052370882    1.79478680189188
C         1.94498409713803   -1.41114167124258    2.54999721693324
C         1.57470190584571   -2.57676811499827    1.79922528166065
C         3.17630694483712    1.41109298456623    0.58267835817695
C         2.32869663430288    2.57643060789067    0.58145243912821
C         1.56997014850253    2.57315190294933    1.80622273179655
C         1.94717567094610    1.41590575051688    2.55872228195603
C         2.94370906535893    0.69731118174229    1.80420083756371
C        -0.37318660660685    3.43396084798739    0.58512439547825
C        -1.73615829991607    3.02183248028462    0.58752602961366
C        -2.10186467086864    2.46592292553464    1.95154180595786
C        -0.73710597971494    2.29034316908986    2.58670486470264
C         0.24041585319639    2.98281678798260    1.81004337016320
C        -3.37912832955188    0.70626658794209    0.57972885667013
C        -3.39385646349997   -0.73032143283790    0.57194294279704
C        -2.77154865008416   -1.16154413876006    1.79335760569863
C        -2.39311295637925    0.02566009629898    2.53549798208796
C        -2.75301936844674    1.13233577130755    1.81603204964651
C        -1.74578807205849   -3.01300317435995    0.58644038828921
C        -0.37267636806588   -3.44879783896881    0.58764106093124
C         0.24359696496301   -2.99591247099356    1.81079124154356
C        -0.73391422820558   -2.27402339197576    2.56792697754359
C        -1.97824814570758   -2.28831540360222    1.80516991406239
C        -0.25571195064482   -3.01084432106966   -1.81480784564272
C         0.75118627679697   -2.28429987341361   -2.56093574782312
C         1.96095084092844   -2.30566486176835   -1.82459639387977
C         1.72888597449846   -2.99413632395944   -0.60526957694082
C         0.35414991849730   -3.45081580446829   -0.59153606967876
C         2.98861598072609   -1.24015701282739   -1.95162029941288
C         2.42068752058497    0.00408404832233   -2.59553579451450
C         2.77479128561029    1.14738892498985   -1.82467511100743
C         3.39167221880608    0.70188181378193   -0.59874763626353
C         3.42374671165487   -0.72283901724061   -0.59929317614111
C         1.97040611350803    2.28782600345766   -1.82359050123082
C         0.74860587596248    2.29335119699788   -2.57752364632228
C        -0.24199215647210    3.01426969528561   -1.81876569430268
C         0.36603094023950    3.45101240350043   -0.59660684907338
C         1.73750278241750    3.00480568062375   -0.59832467689619
C        -1.56074116608218    2.57353153295047   -1.80479413705135
C        -1.94107625919725    1.40849551156058   -2.56594309693048
C        -2.94105233252039    0.68876526820807   -1.81792571075023
C        -3.17347609367000    1.40017331928350   -0.59356429917964
C        -2.30959159052389    2.57734484407384   -0.58140693100441
C        -2.94454894780296   -0.70612304417079   -1.83121874215143
C        -1.95405153664736   -1.42235010761685   -2.58571830738622
C        -1.57547052517304   -2.59124698338292   -1.82447107505264
C        -2.33908369218852   -2.59472915798929   -0.60307822073680
C        -3.18439654157980   -1.43016377466502   -0.60939539641123
C        -0.98521295308769   -0.72653804731233   -3.30512764302582
C        -0.98642921770365    0.71702117857976   -3.29577906992040
C         0.38396572443866    1.16211241432859   -3.29513739970828
C         1.23261737678971    0.00041264671938   -3.29765160882003
C         0.37747292746236   -1.16981881122117   -3.31548609526752
Cl       -1.96123704855886   -0.00397011069101    5.23689474066139
Cl       -3.14431199410864    3.62261570681882    2.87890893579709
Cl        4.44155772231732   -1.85544115422411   -2.90516805133653
63
 energy: -142.112739787547 gnorm: 0.001298428061 xtb: 6.4.1 (a3dbbd7)
C        -1.30038297155877    0.00587459676788    3.54793212467957
C        -0.37247409457458   -1.17045593903056    3.30980911118111
C         0.97699393229476   -0.71829777879379    3.27398004450810
C         0.97576295226061    0.72407883066147    3.27250265041908
C        -0.37625081220219    1.18207618273884    3.30434092759577
C         2.33302520477535   -2.58986604565243    0.58416229596299
C         3.17776427647366   -1.40760022117188    0.57199315529696
C         2.93729971470983   -0.69084262697110    1.79517899189596
C         1.94537184853954   -1.41126638835666    2.55031363272909
C         1.57502677978225   -2.57691539671638    1.79951479241284
C         3.17660070211331    1.41140172994265    0.58285603225617
C         2.32894261982192    2.57663826667842    0.58146137708669
C         1.57018530878213    2.57316615565745    1.80621683467975
C         1.94740334193653    1.41596130587445    2.55875509340400
C         2.94408249887091    0.69743059350025    1.80446039734787
C        -0.37300172503213    3.43377437483909    0.58498519684278
C        -1.73591085124584    3.02158618651041    0.58735960243686
C        -2.10163640395592    2.46570963300874    1.95135499553332
C        -0.73689509144602    2.29014561223886    2.58650380290362
C         0.24059133715697    2.98266084859943    1.80989868415617
C        -3.37883256200019    0.70609955646342    0.57952457337229
C        -3.39355311273468   -0.73047045426006    0.57174853279937
C        -2.77124664281832   -1.16166194171617    1.79313530112768
C        -2.39284975684786    0.02549979850876    2.53529213304105
C        -2.75277586828461    1.13215142328895    1.81583556949919
C        -1.74552252219395   -3.01309843368887    0.58626901305883
C        -0.37249772598571   -3.44908634753692    0.58761915703475
C         0.24385246052357   -2.99605091727013    1.81080102053845
C        -0.73365669829253   -2.27415911294057    2.56779966886135
C        -1.97796764985110   -2.28841979299500    1.80498281592589
C        -0.25577114318118   -3.01118113087839   -1.81490430235571
C         0.75085751169870   -2.28409129177949   -2.56071701788853
C         1.96020421291921   -2.30493387162595   -1.82396670241838
C         1.72855002008466   -2.99391384404388   -0.60499375846627
C         0.35408666029651   -3.45113631448637   -0.59162935394079
C         2.98823466568767   -1.24025078283126   -1.95145607897564
C         2.41985479225711    0.00448837597867   -2.59484578082306
C         2.77465939923714    1.14779427267848   -1.82448812487126
C         3.39154715393923    0.70227686435504   -0.59851600704448
C         3.42281139835162   -0.72236618156505   -0.59877497797152
C         1.97056260249954    2.28823685545770   -1.82371981814271
C         0.74869181236432    2.29364231481863   -2.57783619422665
C        -0.24185464357658    3.01434161165593   -1.81890167009493
C         0.36617849631347    3.45104049033486   -0.59674812683424
C         1.73771363794150    3.00502376024903   -0.59839266210643
C        -1.56055741825890    2.57345409566042   -1.80494945681419
C        -1.94101076817314    1.40851282189411   -2.56625828748161
C        -2.94086378265462    0.68864941155481   -1.81815544868612
C        -3.17326351208677    1.40001061992073   -0.59376709628571
C        -2.30937773295799    2.57716754978558   -0.58157562957264
C        -2.94434642390245   -0.70626438512314   -1.83145703821062
C        -1.95394991681413   -1.42242534658365   -2.58602181889601
C        -1.57542866988199   -2.59147629077603   -1.82476196192375
C        -2.33882390175360   -2.59484274009520   -0.60325686959236
C        -3.18410766527839   -1.43028433292072   -0.60957487674889
C        -0.98523777559531   -0.72646087145027   -3.30557718556342
C        -0.98643645913181    0.71715451357623   -3.29624716050350
C         0.38395510498613    1.16246297856814   -3.29554362564895
C         1.23223236948322    0.00075176277982   -3.29737504949459
C         0.37736698934030   -1.16966381143476   -3.31551172041872
Cl       -1.96109752939842   -0.00421318611072    5.23668840422409
Cl       -3.14403026818933    3.62242950252014    2.87869513281710