63
 energy: -142.087155784658 gnorm: 0.136982606791 xtb: 6.4.1 (a3dbbd7)
C        -1.30524132879597    0.00000000000538    3.57807329023422
C        -0.38198622120159   -1.16615737488772    3.28622995044209
C         0.97316446785684   -0.71953336628746    3.26852105894251
C         0.97316446785530    0.71953336630216    3.26852105894473
C        -0.38198622120459    1.16615737490379    3.28622995045274
C         2.33525790565848   -2.58178581715533    0.58265918378867
C         3.18402429064640   -1.41551052449968    0.58305164633927
C         2.94575551469093   -0.69331830539435    1.80727245276214
C         1.94633616722705   -1.41428833030776    2.55691587181014
C         1.57537284635923   -2.57710002453835    1.80571263196464
C         3.18402429064568    1.41551052450295    0.58305164633618
C         2.33525790565840    2.58178581715875    0.58265918378237
C         1.57537284635929    2.57710002454614    1.80571263195897
C         1.94633616722623    1.41428833031814    2.55691587180842
C         2.94575551468950    0.69331830540176    1.80727245276124
C        -0.36286725388684    3.43716117593932    0.57905462418204
C        -1.73307079475598    2.99275061625332    0.57524951534827
C        -1.97752320629156    2.27496221823572    1.79457083857807
C        -0.73661625909686    2.27496497778529    2.56523814188962
C         0.24797249911112    2.99276091828423    1.80557303834060
C        -3.36590164017822    0.71953732333088    0.57375248902312
C        -3.36590164017888   -0.71953732332215    0.57375248902510
C        -2.78105190250946   -1.16617827543313    1.79633080427055
C        -2.63331800734743    0.00000000000824    2.75326019131418
C        -2.78105190250706    1.16617827544612    1.79633080426590
C        -1.73307079475815   -2.99275061624643    0.57524951535621
C        -0.36286725388906   -3.43716117593443    0.57905462419038
C         0.24797249911082   -2.99276091827599    1.80557303834608
C        -0.73661625909661   -2.27496497777287    2.56523814188986
C        -1.97752320629363   -2.27496221822376    1.79457083858313
C        -0.24045690066217   -3.00743782548085   -1.83034246730529
C         0.75231661586805   -2.28840993805800   -2.58424128273324
C         1.97824017738855   -2.28845527885670   -1.82288383798471
C         1.74258918722144   -3.00745695556584   -0.59875134393160
C         0.36899288245124   -3.44813425118672   -0.59934302533638
C         2.79566620008723   -1.16591822783908   -1.82325695863853
C         2.41697359109874   -0.00000000000271   -2.58108531976838
C         2.79566620008779    1.16591822783556   -1.82325695864148
C         3.40959680691412    0.72110795434846   -0.59778286565664
C         3.40959680691433   -0.72110795434857   -0.59778286565546
C         1.97824017738961    2.28845527885345   -1.82288383799084
C         0.75231661586926    2.28840993805322   -2.58424128273948
C        -0.24045690066036    3.00743782547884   -1.83034246731341
C         0.36899288245285    3.44813425118749   -0.59934302534530
C         1.74258918722258    3.00745695556589   -0.59875134393955
C        -1.56217286029713    2.58178679356912   -1.83784975797872
C        -1.93879975252934    1.41553008402889   -2.59849355392507
C        -2.93052386427469    0.69331652856981   -1.84222173469045
C        -3.15943698990261    1.41427069975303   -0.61403881020582
C        -2.32163160591617    2.57707956787764   -0.61452432163280
C        -2.93052386427455   -0.69331652856949   -1.84222173468868
C        -1.93879975252999   -1.41553008403179   -2.59849355392122
C        -1.56217286029877   -2.58178679357009   -1.83784975797151
C        -2.32163160591823   -2.57707956787401   -0.61452432162573
C        -3.15943698990344   -1.41427069974849   -0.61403881020168
C        -0.98033776527170   -0.72109715720207   -3.32415755726590
C        -0.98033776527144    0.72109715719620   -3.32415755726739
C         0.39032106020777    1.16579648770428   -3.31706046827290
C         1.23757908177170   -0.00000000000348   -3.31355725238661
C         0.39032106020722   -1.16579648771087   -3.31706046826971
Cl       -1.60949318930206   -0.00000000015797    5.36443419001363
Cl       -4.09957109178614    0.00000000004209    3.81802953081684
Cl        3.53145200619869   -3.90206696877103    0.90215465249068
63
 energy: -142.111061899654 gnorm: 0.059139356134 xtb: 6.4.1 (a3dbbd7)
C        -1.30755046344835    0.00366863693519    3.58038146835146
C        -0.38418391246301   -1.16205077396014    3.29181755148303
C         0.96822267090031   -0.71479718635204    3.27367066448378
C         0.96986585405938    0.72380065230920    3.27117348660390
C        -0.38477726265900    1.17001570271568    3.28881670863350
C         2.40908058538829   -2.66053485022268    0.60284042548707
C         3.18438041409157   -1.40031637805509    0.58400214416027
C         2.94264596718238   -0.68721026928151    1.80433450000757
C         1.93885474524575   -1.40800510461254    2.55250107834470
C         1.56567833835825   -2.56644437085354    1.81230475378655
C         3.18202288121257    1.42171019577719    0.58532742185049
C         2.33297795752078    2.58572704112616    0.58423686215852
C         1.57314656719609    2.58155895233792    1.80771310805758
C         1.94262715583389    1.41900015540593    2.55847832220292
C         2.94063907007701    0.70091507132425    1.80544187236185
C        -0.36417617068330    3.43890285766156    0.57970848062107
C        -1.73370821505966    2.99443233244416    0.57575628665807
C        -1.97891508752713    2.27696596786376    1.79495637270041
C        -0.73879235210639    2.27784568923657    2.56617399222297
C         0.24572083864382    2.99611295148638    1.80665771754085
C        -3.36648808241996    0.72049451233281    0.57380878636470
C        -3.36669018761997   -0.71799872239273    0.57410979959348
C        -2.78165244785826   -1.16418440602305    1.79675682951918
C        -2.63445959625830    0.00182266201362    2.75391638267561
C        -2.78202703611856    1.16771379098523    1.79685764776778
C        -1.73201367812614   -2.99046497304021    0.57429554590974
C        -0.36639224535052   -3.43367041475192    0.57650480164440
C         0.24347404968902   -2.97889661365782    1.80410490818722
C        -0.74064598406459   -2.27083758267871    2.56901147261317
C        -1.97784229822811   -2.27231375208691    1.79525417206189
C        -0.24839743232826   -3.00532319031247   -1.84128168412238
C         0.74321928384036   -2.28744322622114   -2.59470610613310
C         1.96479866103140   -2.28416114576362   -1.82423487032038
C         1.73622422406897   -3.02079886848805   -0.61993642905689
C         0.36524877863542   -3.43661927420639   -0.60763154876618
C         2.79184737267373   -1.16344604053385   -1.82506144614355
C         2.41456373464818   -0.00080512506318   -2.58062052733157
C         2.79259868332859    1.16665788042049   -1.82269482885930
C         3.40429695694408    0.72633410487936   -0.59675456310991
C         3.40585512270130   -0.71269765880272   -0.59512887683661
C         1.97630825542475    2.28928973014437   -1.82269674690372
C         0.75170064856098    2.28998571383265   -2.58509093925051
C        -0.24062530444081    3.00799387957787   -1.83047270679126
C         0.36838625025903    3.44960205638064   -0.59918185225834
C         1.74090399048431    3.00911076810327   -0.59821128691470
C        -1.56243987973672    2.58275349630589   -1.83765720443767
C        -1.93961195857864    1.41694811956710   -2.59891123739751
C        -2.93147354783790    0.69476803071151   -1.84245971507113
C        -3.15965633114247    1.41546032364571   -0.61391009584658
C        -2.32166319016007    2.57779104114009   -0.61461045913666
C        -2.93264586517246   -0.69139534135083   -1.84319016025434
C        -1.94324306150268   -1.41316948961373   -2.60231768904859
C        -1.56839346847678   -2.58046044264664   -1.84368178313472
C        -2.32430322993454   -2.57515835983027   -0.61709657407651
C        -3.16022431010497   -1.41325111053204   -0.61492664022939
C        -0.98471396911896   -0.71879897045294   -3.32813452977298
C        -0.98228456924749    0.72314447545139   -3.32571533205267
C         0.38931574847709    1.16641430722183   -3.31861112037373
C         1.23441210662882    0.00130966424996   -3.31728326730055
C         0.38510236918686   -1.16394120331909   -3.32438103939710
Cl       -1.61179349575332    0.00274794988435    5.36624480782558
Cl       -4.10094910033480    0.00102746718215    3.81790651526901
Cl        3.63345472322489   -4.00889830431939    0.93320418014834
63
 energy: -142.116986355892 gnorm: 0.013391065588 xtb: 6.4.1 (a3dbbd7)
C        -1.30981966692830    0.00769309115670    3.58192073723170
C        -0.38567586918909   -1.15652762148029    3.28919598738111
C         0.96318989013807   -0.71148404866795    3.26995322821644
C         0.96862897291379    0.72720518270699    3.26998982094139
C        -0.38629710939721    1.17413715212673    3.28979190955765
C         2.47160968706551   -2.72810318617002    0.62258335370982
C         3.18374434524073   -1.39880025400793    0.58402393663138
C         2.93122591361194   -0.68623337811449    1.79198311796237
C         1.92934241814094   -1.40792070414409    2.54090768205285
C         1.56540149589210   -2.56830076264484    1.81557842910972
C         3.18326313896709    1.42594453707893    0.58755227611918
C         2.33317043608490    2.59032925421720    0.58529874957350
C         1.57228748325669    2.58589768655937    1.80849780161728
C         1.94264062361286    1.42259149856207    2.55798838912968
C         2.94203309844983    0.70475599398280    1.80460137632935
C        -0.36669970040395    3.44118406710697    0.58014074874234
C        -1.73583606335141    2.99666227365121    0.57586278403988
C        -1.98082081159068    2.27931830043798    1.79500984941770
C        -0.74088364451509    2.28162024189008    2.56657209346632
C         0.24383187584194    2.99979231282587    1.80687551915450
C        -3.36743958809617    0.72150525840479    0.57331745273986
C        -3.36869660472330   -0.71634076558097    0.57391167704641
C        -2.78201936744415   -1.16223908536090    1.79601879791078
C        -2.63617802181181    0.00381777439124    2.75410775526121
C        -2.78338403520307    1.16938415450785    1.79689574530542
C        -1.72892821736793   -2.98859048520964    0.57249496202247
C        -0.36779425714102   -3.43571987486495    0.57605748667397
C         0.24690753652242   -2.97474809285840    1.80236939454099
C        -0.73919811505971   -2.26498176355266    2.56356615885562
C        -1.97717494746811   -2.26945913917057    1.79350734567071
C        -0.25056483649440   -2.99995947167630   -1.84179637482979
C         0.73882777497870   -2.28311825842022   -2.59443190413007
C         1.95841021649113   -2.28169058729088   -1.81698855400550
C         1.73124022608778   -3.01900730417184   -0.62380520401974
C         0.36958520878886   -3.42754503949288   -0.60697245810676
C         2.79005002645600   -1.16294694469201   -1.82802848498859
C         2.41061881491646   -0.00138243064138   -2.57782472818988
C         2.78935876055666    1.16720196541996   -1.81971082504914
C         3.40402305388729    0.72708855977119   -0.59477606408174
C         3.39426440436095   -0.71189809308875   -0.58998940265654
C         1.97392282198469    2.29061101385528   -1.82145009140674
C         0.74959590362478    2.29233596354111   -2.58479085656071
C        -0.24280549088405    3.00924553052300   -1.83035130425551
C         0.36656810197423    3.45110775827510   -0.59887562444053
C         1.73906016263409    3.01179493214677   -0.59726904210516
C        -1.56483015185471    2.58439439471754   -1.83763768234830
C        -1.94210151305716    1.41878050509059   -2.59953782616200
C        -2.93378983146811    0.69615421135432   -1.84293297706004
C        -3.16130211911417    1.41686601885028   -0.61416305634999
C        -2.32352361976696    2.57891087164036   -0.61485486594750
C        -2.93586323715712   -0.68969274470507   -1.84461306922089
C        -1.94761274359141   -1.41142799983614   -2.60555080588754
C        -1.57094797156172   -2.57747180753838   -1.84544165908968
C        -2.32672472856770   -2.57316351072119   -0.61873318816790
C        -3.16150320191752   -1.41230192028063   -0.61572277794378
C        -0.98909198337210   -0.71648840526296   -3.33176634738288
C        -0.98552305068703    0.72569082028514   -3.32717473098742
C         0.38707078214723    1.16815971784404   -3.31899065624737
C         1.23079313169748    0.00428418082740   -3.31919139554816
C         0.38109933213823   -1.16089488000428   -3.32590248535931
Cl       -1.61686287179483    0.00778020905788    5.36723496455401
Cl       -4.10356346808534    0.00220495304964    3.81676824233590
Cl        3.70653147225776   -4.08807879497681    0.95037447619577
63
 energy: -142.117294234015 gnorm: 0.008172940381 xtb: 6.4.1 (a3dbbd7)
C        -1.31052149907969    0.00823139411424    3.58153708611444
C        -0.38521651341054   -1.15559441004717    3.28763528816855
C         0.96295800896034   -0.71143791560916    3.26607100430940
C         0.96716361337718    0.72728520964365    3.26819830239151
C        -0.38757025158888    1.17524257887198    3.28932935192738
C         2.48754793087593   -2.74297713430829    0.62839834322258
C         3.19213841591935   -1.40610920863995    0.58525280184043
C         2.93082262433074   -0.68892981789547    1.78858033828096
C         1.92931437629690   -1.41075142552855    2.53752863769124
C         1.57182642715052   -2.57603831907213    1.81752689259350
C         3.17863308416606    1.42448105120505    0.58734290766691
C         2.33136606503587    2.59125733375149    0.58526053102064
C         1.57039716214204    2.58670705062268    1.80828973446039
C         1.94044157686450    1.42220846110092    2.55639773531507
C         2.93946202138329    0.70295666445538    1.80330332501822
C        -0.36829169230410    3.44300717099707    0.58028820538900
C        -1.73747123789566    2.99879017338675    0.57584217923459
C        -1.98246078285369    2.28154108328073    1.79511763654564
C        -0.74250531705432    2.28340658961874    2.56686257172089
C         0.24218871043512    3.00170083172934    1.80710787505170
C        -3.36855332902706    0.72325775445154    0.57306178207685
C        -3.36917231699832   -0.71452653009166    0.57390980179418
C        -2.78098574970136   -1.16044953586294    1.79531613123209
C        -2.63687276522440    0.00568361291105    2.75355123435497
C        -2.78472650373284    1.17142183514273    1.79674462846259
C        -1.72743393171256   -2.98756137875669    0.57197478948034
C        -0.36787004086717   -3.43793777362623    0.57694668557720
C         0.25091582264481   -2.97770368510817    1.80277447031856
C        -0.73621153309252   -2.26352969521997    2.56045310402031
C        -1.97512794197868   -2.26723961632766    1.79212609258272
C        -0.24967539982048   -2.99684287982750   -1.83886949164702
C         0.73904835943452   -2.28059480615876   -2.59100733347245
C         1.96009400193982   -2.28225792607370   -1.81299216032861
C         1.73265457814068   -3.01643420842235   -0.61983683531604
C         0.37335487054781   -3.42642855045718   -0.60423525391390
C         2.79200458058655   -1.16330848105648   -1.82914100383212
C         2.40921802854820   -0.00190216396062   -2.57709733187281
C         2.78628263880572    1.16642890191059   -1.81869793919230
C         3.39837539139858    0.72366662494716   -0.59348099173900
C         3.39715433990320   -0.71613575462145   -0.58881450911355
C         1.97204797549220    2.29067176839625   -1.82125384818530
C         0.74802882889913    2.29352896572000   -2.58501512090976
C        -0.24422205921570    3.01048717619532   -1.83057838073086
C         0.36508347201905    3.45231680848304   -0.59890219994206
C         1.73718515834097    3.01255533203294   -0.59725143136105
C        -1.56638488351162    2.58603731488102   -1.83794933550888
C        -1.94351774552047    1.42032281827390   -2.60009891857735
C        -2.93515515733540    0.69761507250995   -1.84321450235076
C        -3.16273587556830    1.41868514857226   -0.61445125730498
C        -2.32490383432431    2.58061515202874   -0.61509606489873
C        -2.93708406960906   -0.68826421973919   -1.84489262044415
C        -1.94858154372431   -1.41017248366979   -2.60568758591444
C        -1.57053296503690   -2.57528926845794   -1.84458452510789
C        -2.32704492696680   -2.57141892201741   -0.61847448662109
C        -3.16169780323487   -1.41084459560021   -0.61553566020432
C        -0.99009377572376   -0.71526129160792   -3.33211685786439
C        -0.98703381859669    0.72712142342695   -3.32789972755095
C         0.38588679360112    1.16917276115588   -3.31915232360273
C         1.22962091623322    0.00556532040749   -3.31931202220539
C         0.38027576357711   -1.15965797958012   -3.32454352270612
Cl       -1.61806776851107    0.01085980982892    5.36650852271076
Cl       -4.10589571408232    0.00316324042033    3.81397637844225
Cl        3.71696748190906   -4.10245942590043    0.94864668037126
63
 energy: -142.117395248699 gnorm: 0.004670270853 xtb: 6.4.1 (a3dbbd7)
C        -1.31094977826544    0.00887873010455    3.58126635388910
C        -0.38538852789746   -1.15505482004434    3.28721240822815
C         0.96259045843184   -0.71099149134894    3.26362299741516
C         0.96635698284943    0.72754912837178    3.26702938043431
C        -0.38813778381960    1.17610084778884    3.28924524338943
C         2.49466374104207   -2.74948227721504    0.63134226716477
C         3.19659053476313   -1.41046275386380    0.58584260304807
C         2.93003981439226   -0.69001193166487    1.78649960343348
C         1.92857037757571   -1.41184194228311    2.53537182074955
C         1.57518256091708   -2.58058837193030    1.81832138469025
C         3.17649246288672    1.42392492051520    0.58703405276099
C         2.33067303907797    2.59196234875918    0.58510838994279
C         1.56982033233849    2.58746161967550    1.80810059381327
C         1.93918551692635    1.42214591200779    2.55532994576466
C         2.93743088304034    0.70197077892110    1.80232748372469
C        -0.36876236216693    3.44398801337081    0.58036083255707
C        -1.73792267242677    2.99961346498465    0.57585999573629
C        -1.98295661569660    2.28240830055886    1.79520366232546
C        -0.74305769152813    2.28452871754735    2.56721433314066
C         0.24173030737396    3.00297117943615    1.80733036861784
C        -3.36898124843618    0.72373346323986    0.57307739586464
C        -3.36952921625700   -0.71406615731290    0.57397460458666
C        -2.78071909424276   -1.16010555515563    1.79503861066686
C        -2.63672280751029    0.00605465745115    2.75303968260018
C        -2.78504419574281    1.17206904337357    1.79671046243294
C        -1.72729169410834   -2.98758909741589    0.57184441619757
C        -0.36889354066377   -3.43963322890313    0.57775597867877
C         0.25250861215808   -2.97945413349611    1.80311196947939
C        -0.73466372179395   -2.26278245956981    2.55888479062965
C        -1.97404811303805   -2.26628880392290    1.79135426283560
C        -0.24904460850628   -2.99480023092363   -1.83684660063864
C         0.73927637901087   -2.27893301021729   -2.58861737089961
C         1.96149220126068   -2.28223898814066   -1.81045712392985
C         1.73278525233938   -3.01298402151805   -0.61636948667314
C         0.37537069451757   -3.42577372000989   -0.60205157401524
C         2.79374601412261   -1.16305654000814   -1.83043572074771
C         2.40911820182653   -0.00199072262953   -2.57724039523903
C         2.78466165503540    1.16589139847712   -1.81801775892323
C         3.39541891475827    0.72188251431032   -0.59257169360716
C         3.39872886421965   -0.71816367802295   -0.58836318242830
C         1.97145454559833    2.29073150849135   -1.82124185294157
C         0.74763080718528    2.29413574683631   -2.58525751892577
C        -0.24458799345045    3.01102448123457   -1.83075359994301
C         0.36462866989192    3.45305844979860   -0.59900860499600
C         1.73640108968824    3.01295411258644   -0.59735290919461
C        -1.56674763447267    2.58647525148541   -1.83804818036781
C        -1.94373107473607    1.42062702237774   -2.60028753599022
C        -2.93545838732020    0.69785805997613   -1.84328373434699
C        -3.16309431584264    1.41913741193067   -0.61448234228307
C        -2.32514086525739    2.58097181911615   -0.61513790292562
C        -2.93750367654387   -0.68801152400206   -1.84501824111096
C        -1.94867008994627   -1.40989762166718   -2.60557988865098
C        -1.57019416712002   -2.57447764702485   -1.84402917989443
C        -2.32746110744777   -2.57091510109324   -0.61822020567068
C        -3.16187660176919   -1.41055036125343   -0.61537664385595
C        -0.99010139154216   -0.71498363736168   -3.33209494545542
C        -0.98729102375767    0.72750917791447   -3.32827113219402
C         0.38579123649975    1.16960021572125   -3.31932988488561
C         1.22954245051768    0.00624050910450   -3.31954561324618
C         0.38025148439703   -1.15920253109821   -3.32381754572091
Cl       -1.62088275381021    0.01143747322339    5.36539403364051
Cl       -4.10446085411953    0.00302448842876    3.81511575670340
Cl        3.71602179624960   -4.10565537679295    0.94386049152769
63
 energy: -142.117428890207 gnorm: 0.002665309046 xtb: 6.4.1 (a3dbbd7)
C        -1.31130933951728    0.00902874578490    3.58228152038283
C        -0.38562850248383   -1.15473186431293    3.28742214548975
C         0.96242149860520   -0.71068061921103    3.26281672597305
C         0.96615533849836    0.72758560831407    3.26658462294643
C        -0.38833129435062    1.17603926928441    3.28927985775282
C         2.49680954318530   -2.75159578736332    0.63223671864901
C         3.19731697444917   -1.41148077135111    0.58585181224293
C         2.92930169492505   -0.68991720570093    1.78560026012854
C         1.92780307218226   -1.41177393310374    2.53439759400433
C         1.57582566157144   -2.58164531789822    1.81828395340025
C         3.17638601414556    1.42409591552822    0.58696272080957
C         2.33072650000555    2.59234844818928    0.58514730865996
C         1.56989839178501    2.58778679583339    1.80809705705121
C         1.93888743849621    1.42217282783377    2.55500513888117
C         2.93674589829854    0.70183496904449    1.80206585651095
C        -0.36873139161011    3.44401358003428    0.58048240700973
C        -1.73783798885835    2.99943627988807    0.57595105391353
C        -1.98296022996380    2.28227069932650    1.79533212902491
C        -0.74313361222537    2.28459415853181    2.56748358667537
C         0.24174181074493    3.00319918741239    1.80752793300122
C        -3.36885513311247    0.72352823547872    0.57312051166113
C        -3.36952298333883   -0.71421508303641    0.57411283620625
C        -2.78065279741985   -1.16005264185289    1.79523716393119
C        -2.63741418500873    0.00598596051691    2.75356028782045
C        -2.78490345492892    1.17180782183417    1.79675088629103
C        -1.72759744793897   -2.98793347741743    0.57222952987641
C        -0.36978400495730   -3.44029621627603    0.57836028277588
C         0.25261348307085   -2.97962956902274    1.80337113729879
C        -0.73419847283452   -2.26246645526769    2.55872868866982
C        -1.97372479066404   -2.26601416529857    1.79147704438373
C        -0.24881301293055   -2.99406386467875   -1.83604988952719
C         0.73928881210708   -2.27837918973610   -2.58769151134526
C         1.96188038339320   -2.28181234179807   -1.80932004544177
C         1.73204703698106   -3.01017847350109   -0.61452288756356
C         0.37590962036319   -3.42515329162823   -0.60088912828912
C         2.79457235177557   -1.16264082148801   -1.83121464095488
C         2.40960203341295   -0.00188138386688   -2.57759051139296
C         2.78443158701450    1.16574805087178   -1.81774416537332
C         3.39491466864503    0.72156518135714   -0.59213125910901
C         3.39876767628624   -0.71830717048278   -0.58823266214086
C         1.97163087951324    2.29077012477452   -1.82123029480643
C         0.74781388064246    2.29417407780499   -2.58529042753472
C        -0.24444645809985    3.01095479330497   -1.83075217455213
C         0.36467826896093    3.45312159257057   -0.59896963189289
C         1.73632645420405    3.01299512056438   -0.59730557736086
C        -1.56653393426260    2.58619746645961   -1.83798797815159
C        -1.94343705116466    1.42029484001090   -2.60025054457385
C        -2.93521952171462    0.69750536637991   -1.84325679647699
C        -3.16285748630359    1.41885498975132   -0.61445209070348
C        -2.32488159960783    2.58060538735033   -0.61508197374430
C        -2.93741243183339   -0.68832111916533   -1.84497455519251
C        -1.94840793836685   -1.41016094651075   -2.60536026603904
C        -1.57005830187622   -2.57459479813672   -1.84371981998346
C        -2.32769024523809   -2.57109108505983   -0.61786793166479
C        -3.16183866644668   -1.41081745920003   -0.61517928447269
C        -0.98978844832116   -0.71522652930446   -3.33191669925074
C        -0.98702626698689    0.72728805363965   -3.32830409312124
C         0.38611342577701    1.16953321473928   -3.31935827217051
C         1.22988123294338    0.00639531535844   -3.31971871015778
C         0.38049263714993   -1.15928138273994   -3.32368787015793
Cl       -1.61439705893166    0.01134796965421    5.36734854651124
Cl       -4.10952634806853    0.00287407162782    3.80989051586159
Cl        3.71077640188866   -4.10367812341627    0.93873166631889
63
 energy: -142.117439867148 gnorm: 0.002123829291 xtb: 6.4.1 (a3dbbd7)
C        -1.31116117310915    0.00894415076334    3.58135579564585
C        -0.38569861602447   -1.15504600994227    3.28785831091236
C         0.96239975364078   -0.71060617791458    3.26315708981996
C         0.96627066512813    0.72762034616519    3.26677856374076
C        -0.38821290409177    1.17615140196918    3.28942669279169
C         2.49691181259952   -2.75190309088835    0.63209931177465
C         3.19637701347822   -1.41077140128583    0.58568356884904
C         2.92880062859506   -0.68939619987894    1.78550491398073
C         1.92730265391892   -1.41133970985788    2.53429559891411
C         1.57530857501462   -2.58100961370573    1.81795302293667
C         3.17713009507554    1.42448452164184    0.58704573785260
C         2.33112932728192    2.59250504514195    0.58520610453544
C         1.57027958667233    2.58790822098884    1.80811305157353
C         1.93908536937876    1.42230006198502    2.55516439147166
C         2.93685977965411    0.70210897345582    1.80225794291408
C        -0.36842372254916    3.44379884748602    0.58034958771552
C        -1.73752391317751    2.99917123936892    0.57577741460580
C        -1.98268741900520    2.28211687063839    1.79515750553552
C        -0.74286050231455    2.28455853168334    2.56739337675370
C         0.24205577361215    3.00316619893560    1.80743419122949
C        -3.36870167977536    0.72318430833859    0.57319244924400
C        -3.36951901030879   -0.71464955987966    0.57427681613323
C        -2.78080306805990   -1.16062555968782    1.79548420318770
C        -2.63638771633832    0.00578838195535    2.75301411967480
C        -2.78475436642431    1.17176516523576    1.79670838267918
C        -1.72784513662783   -2.98855370415053    0.57248096632632
C        -0.37014615728333   -3.44051332664806    0.57850321890168
C         0.25232575300528   -2.97934110363313    1.80337551251932
C        -0.73413102429161   -2.26270905820645    2.55894434201505
C        -1.97372747817620   -2.26645702359720    1.79170424217373
C        -0.24874070076936   -2.99414640273812   -1.83617608854734
C         0.73928272710981   -2.27848667000678   -2.58777868591748
C         1.96174083691223   -2.28129708294945   -1.80912852687004
C         1.73119199354399   -3.00833958834382   -0.61396227851730
C         0.37581809961685   -3.42472469273956   -0.60069366750973
C         2.79483162317566   -1.16230489927836   -1.83151412102006
C         2.41023745623718   -0.00175025634124   -2.57791207396447
C         2.78494509399469    1.16581404571080   -1.81777548625521
C         3.39558258889719    0.72190981216749   -0.59201200691516
C         3.39822996785806   -0.71766959173601   -0.58820197810788
C         1.97211989457097    2.29076233637275   -1.82130838344480
C         0.74821662459908    2.29393773032047   -2.58532236170241
C        -0.24411659426177    3.01064493845145   -1.83082382497464
C         0.36500758965354    3.45293615696427   -0.59908436696500
C         1.73664032789258    3.01288073513785   -0.59730419861049
C        -1.56615265361876    2.58573122101388   -1.83800317868151
C        -1.94304860631141    1.41979160362404   -2.60017135816480
C        -2.93483224886711    0.69702992899438   -1.84318499069262
C        -3.16252147174217    1.41842097087850   -0.61442264290240
C        -2.32454522981569    2.58015490560494   -0.61516241155740
C        -2.93710687264949   -0.68875319448165   -1.84485876227643
C        -1.94807559779767   -1.41054273304291   -2.60521253012680
C        -1.56999517813570   -2.57507726913358   -1.84371768797205
C        -2.32773845792683   -2.57157535018703   -0.61772778040630
C        -3.16173062247390   -1.41128985574037   -0.61504301615137
C        -0.98943347202829   -0.71560153551145   -3.33178853936382
C        -0.98663727778069    0.72687762253744   -3.32821617100788
C         0.38652205025165    1.16924157956782   -3.31937342781773
C         1.23032270926249    0.00628156172877   -3.31985200349699
C         0.38081066232157   -1.15954478584746   -3.32391039997648
Cl       -1.62386132643875    0.01115793047335    5.36436581038322
Cl       -4.10271470997920    0.00289481548693    3.81710223086486