156
 energy: -486.668920104494 gnorm: 9.686719210716 xtb: 6.4.1 (a3dbbd7)
C        -1.23626340000000    0.00000000000000    3.32997640000000
C        -0.38202640000000   -1.17575640000000    3.32997640000000
C         1.00015810000000   -0.72665740000000    3.32997640000000
C         1.00015810000000    0.72665740000000    3.32997640000000
C        -0.38202640000000    1.17575640000000    3.32997640000000
C         2.34433560000000   -2.60145750000000    0.59464210000000
C         3.19857260000000   -1.42570110000000    0.59464210000000
C         2.96246730000000   -0.69904370000000    1.83090550000000
C         1.96230920000000   -1.42570110000000    2.59495830000000
C         1.58028280000000   -2.60145750000000    1.83090550000000
C         3.19857260000000    1.42570110000000    0.59464210000000
C         2.34433560000000    2.60145750000000    0.59464210000000
C         1.58028280000000    2.60145750000000    1.83090550000000
C         1.96230920000000    1.42570110000000    2.59495830000000
C         2.96246730000000    0.69904370000000    1.83090550000000
C        -0.36750900000000    3.48258920000000    0.59464210000000
C        -1.74969350000000    3.03349030000000    0.59464210000000
C        -1.98579880000000    2.30683290000000    1.83090550000000
C        -0.74953540000000    2.30683290000000    2.59495830000000
C         0.25062270000000    3.03349030000000    1.83090550000000
C        -3.42570570000000    0.72665740000000    0.59464210000000
C        -3.42570570000000   -0.72665740000000    0.59464210000000
C        -2.80757400000000   -1.17575640000000    1.83090550000000
C        -2.42554760000000    0.00000000000000    2.59495830000000
C        -2.80757400000000    1.17575640000000    1.83090550000000
C        -1.74969350000000   -3.03349030000000    0.59464210000000
C        -0.36750900000000   -3.48258920000000    0.59464210000000
C         0.25062270000000   -3.03349030000000    1.83090550000000
C        -0.74953540000000   -2.30683290000000    2.59495830000000
C        -1.98579880000000   -2.30683290000000    1.83090550000000
C        -0.25062270000000   -3.03349030000000   -1.83090550000000
C         0.74953540000000   -2.30683290000000   -2.59495830000000
C         1.98579880000000   -2.30683290000000   -1.83090550000000
C         1.74969350000000   -3.03349030000000   -0.59464210000000
C         0.36750900000000   -3.48258920000000   -0.59464210000000
C         2.80757400000000   -1.17575640000000   -1.83090550000000
C         2.42554760000000    0.00000000000000   -2.59495830000000
C         2.80757400000000    1.17575640000000   -1.83090550000000
C         3.42570570000000    0.72665740000000   -0.59464210000000
C         3.42570570000000   -0.72665740000000   -0.59464210000000
C         1.98579880000000    2.30683290000000   -1.83090550000000
C         0.74953540000000    2.30683290000000   -2.59495830000000
C        -0.25062270000000    3.03349030000000   -1.83090550000000
C         0.36750900000000    3.48258920000000   -0.59464210000000
C         1.74969350000000    3.03349030000000   -0.59464210000000
C        -1.58028280000000    2.60145750000000   -1.83090550000000
C        -1.96230920000000    1.42570110000000   -2.59495830000000
C        -2.96246730000000    0.69904370000000   -1.83090550000000
C        -3.19857260000000    1.42570110000000   -0.59464210000000
C        -2.34433560000000    2.60145750000000   -0.59464210000000
C        -2.96246730000000   -0.69904370000000   -1.83090550000000
C        -1.96230920000000   -1.42570110000000   -2.59495830000000
C        -1.58028280000000   -2.60145750000000   -1.83090550000000
C        -2.34433560000000   -2.60145750000000   -0.59464210000000
C        -3.19857260000000   -1.42570110000000   -0.59464210000000
C        -1.00015810000000   -0.72665740000000   -3.32997640000000
C        -1.00015810000000    0.72665740000000   -3.32997640000000
C         0.38202640000000    1.17575640000000   -3.32997640000000
C         1.23626340000000    0.00000000000000   -3.32997640000000
C         0.38202640000000   -1.17575640000000   -3.32997640000000
C        -1.76086815247998    0.00000000000000    4.78849957557021
F        -0.76911826531252    0.00000000000000    5.67468926254662
F        -2.50968386795825   -1.06794314680471    5.04863888333743
F        -2.50968386795825    1.06794314680471    5.04863888333743
C        -0.54413818249354   -1.67468516033722    4.78849957845317
F        -0.23767107904745   -0.73147481112462    5.67468925997942
F        -1.79120914301982   -2.05683909935453    5.04863874564184
F         0.24013968171955   -2.71686350152345    5.04863903502921
C         1.42457227037960   -1.03501233722714    4.78849957248258
F         0.62223011468481   -0.45207589682711    5.67468926529602
F         1.40265511061956   -2.33913928186680    5.04863905501621
F         2.65809836182651   -0.61117154425495    5.04863869666890
C         1.42457227037960    1.03501233722714    4.78849957248258
F         0.62223011468481    0.45207589682711    5.67468926529602
F         2.65809836182651    0.61117154425495    5.04863869666891
F         1.40265511061956    2.33913928186680    5.04863905501621
C         3.37204091334889   -3.72927672645244    0.86730596148276
F         4.06564647311728   -3.51265957144659    1.98125763710228
F         4.25569947457670   -3.84739838595791   -0.11965645964809
F         2.78580317558591   -4.91533944031226    1.00324916143779
C         4.58877084110522   -2.05459160147071    0.86730597290559
F         4.59709252483521   -2.78118520641283    1.98125951001435
F         4.97417519512416   -2.85850196315549   -0.11965482382298
F         5.53562669678859   -1.13053295630600    1.00324569798425
C         2.82790274436383   -2.05459160758554    3.71645040671519
F         3.82797483682855   -2.78118494419178    3.22571836876305
F         3.37293748548841   -1.13053297859378    4.50255013394648
F         2.11749631416700   -2.85850222732984    4.50254863174647
C        -2.50473491433418    4.35941144902977    0.86730593917895
F        -2.08438487052912    4.95213043104453    1.98125838386969
F        -2.34400857369757    5.23632280881804   -0.11965581818547
F        -3.81390519137296    4.16837996597314    1.00324768478856
C        -4.03961820246674   -1.67468514775899    2.62817407948106
F        -4.96930660042402   -0.73147479244129    2.75037763231441
F        -4.62303373288711   -2.71686348978894    2.04303253910982
F        -3.71458666614022   -2.05683907990832    3.85992603200073
C        -3.49548004549360    0.00000000000000    3.71645041414084
F        -4.73163621497510    0.00000000000000    3.22571838476757
F        -3.39327517264965   -1.06794314680471    4.50254938956302
F        -3.39327517264965    1.06794314680471    4.50254938956303
C        -1.08016271022039   -3.32439912180418    3.71645041587937
F        -1.46215754230407   -4.50005299330749    3.22571838851551
F        -0.03290491502764   -3.55721032900471    4.50254840735999
F        -2.06425285383526   -2.89718320022386    4.50255037491024
C         1.08016271022039   -3.32439912180418   -3.71645041587937
F         1.46215754230406   -4.50005299330749   -3.22571838851551
F         0.03290491502765   -3.55721032900471   -4.50254840736000
F         2.06425285383526   -2.89718320022386   -4.50255037491024
C         4.03961820246674   -1.67468514775899   -2.62817407948106
F         4.96930660042401   -0.73147479244129   -2.75037763231445
F         3.71458666614023   -2.05683907990836   -3.85992603200072
F         4.62303373288714   -2.71686348978891   -2.04303253910981
C         3.49548004549360    0.00000000000000   -3.71645041414084
F         4.73163621497510    0.00000000000000   -3.22571838476757
F         3.39327517264965   -1.06794314680471   -4.50254938956302
F         3.39327517264965    1.06794314680471   -4.50254938956303
C         1.08016271022039    3.32439912180418   -3.71645041587937
F         1.46215754230407    4.50005299330749   -3.22571838851551
F         2.06425285383526    2.89718320022386   -4.50255037491024
F         0.03290491502764    3.55721032900471   -4.50254840735999
C        -2.28376457660886    3.72927671755932   -2.62817408867206
F        -3.59030321655004    3.51265997057978   -2.75037870097715
F        -1.79618325340527    3.84739782561575   -3.85992562899768
F        -2.14318168460923    4.91533956626621   -2.04303190988614
C        -4.25247495652193    1.01957928511255   -2.62817407757680
F        -4.45020405360863    2.32910962270744   -2.75037677428969
F        -4.21414295278388    0.51936236815955   -3.85992636334025
F        -5.33704498641440    0.51936149478958   -2.04303305824604
C        -4.58877084110522    2.05459160147071   -0.86730597290559
F        -4.59709252483521    2.78118520641283   -1.98125951001435
F        -5.53562669678859    1.13053295630600   -1.00324569798425
F        -4.97417519512416    2.85850196315549    0.11965482382298
C        -4.25247495652193   -1.01957928511255   -2.62817407757680
F        -4.45020405360857   -2.32910962270745   -2.75037677428973
F        -4.21414295278389   -0.51936236815949   -3.85992636334022
F        -5.33704498641440   -0.51936149478962   -2.04303305824599
C        -2.82790274436383   -2.05459160758554   -3.71645040671519
F        -3.82797483682855   -2.78118494419178   -3.22571836876305
F        -3.37293748548841   -1.13053297859378   -4.50255013394648
F        -2.11749631416700   -2.85850222732984   -4.50254863174647
C        -3.37204091334889   -3.72927672645244   -0.86730596148276
F        -4.06564647311728   -3.51265957144659   -1.98125763710228
F        -2.78580317558591   -4.91533944031226   -1.00324916143779
F        -4.25569947457670   -3.84739838595791    0.11965645964809
C        -1.42457227037960    1.03501233722714   -4.78849957248258
F        -0.62223011468481    0.45207589682711   -5.67468926529602
F        -2.65809836182651    0.61117154425495   -5.04863869666891
F        -1.40265511061956    2.33913928186680   -5.04863905501621
C         0.54413818249354    1.67468516033722   -4.78849957845317
F         0.23767107904745    0.73147481112462   -5.67468925997942
F        -0.24013968171955    2.71686350152345   -5.04863903502921
F         1.79120914301982    2.05683909935453   -5.04863874564184
C         0.54413818249354   -1.67468516033722   -4.78849957845317
F         0.23767107904745   -0.73147481112462   -5.67468925997942
F        -0.24013968171955   -2.71686350152345   -5.04863903502921
F         1.79120914301982   -2.05683909935453   -5.04863874564184
156
 energy: -493.913589977205 gnorm: 7.735905850069 xtb: 6.4.1 (a3dbbd7)
C        -1.22966828471452    0.00054825233587    3.31944456835170
C        -0.37816822094557   -1.16828162327674    3.31136462078509
C         0.99425945772771   -0.72227792814692    3.31236700804745
C         0.99979724645427    0.72891595497935    3.32381479525676
C        -0.38235083291654    1.17748446549824    3.33210245497078
C         2.34068854359773   -2.60100580605653    0.59425432243478
C         3.19697401637111   -1.42288070018823    0.59484188629962
C         2.96281071343807   -0.69877179055050    1.83080429034910
C         1.96136578442752   -1.42501522349712    2.58579326797394
C         1.58151413350251   -2.60257458177888    1.83132501277941
C         3.19815936975430    1.42568791553013    0.59549735301237
C         2.34381943255756    2.60131817823012    0.59546346655004
C         1.58094375060526    2.60129839190117    1.82955451414317
C         1.96505401389689    1.42736791059009    2.59149782383065
C         2.96268661219874    0.70193653465698    1.83050682939337
C        -0.36398227085010    3.48140116680598    0.59535619755816
C        -1.75043806234031    3.03674081427056    0.59636250860255
C        -1.98289584027068    2.30521241972459    1.83330322416746
C        -0.75103383358330    2.30912147676123    2.59161209141477
C         0.24991160663600    3.03349494232173    1.82986528233707
C        -3.42676150024243    0.72532682253188    0.59718899745346
C        -3.42709575879910   -0.72520008384378    0.59566714862698
C        -2.80454946056275   -1.17605851006267    1.82489042240929
C        -2.42268042154519    0.00178203669215    2.58675364736909
C        -2.80787130568331    1.17641347318452    1.83043580694154
C        -1.74579660145398   -3.03425914290720    0.59739576276270
C        -0.36885321503993   -3.48116466758196    0.59514051711516
C         0.24856470212454   -3.03542359888027    1.82986229061103
C        -0.74876568951014   -2.30573010580219    2.58562090046253
C        -1.98452517089044   -2.30927093399588    1.82985347131330
C        -0.24866218143544   -3.03474610372965   -1.82934109135710
C         0.74907677492637   -2.30697786528091   -2.58671049631127
C         1.98533721307305   -2.30882235050541   -1.83077871277202
C         1.74720745895654   -3.03523274418395   -0.59591676492896
C         0.36790996520411   -3.48131124631092   -0.59559637462459
C         2.80508492953265   -1.17629058926862   -1.82660046375619
C         2.42295963660263    0.00149003966662   -2.59191201489197
C         2.81057317422434    1.17531056369626   -1.82998013337660
C         3.42568883985581    0.72723054960629   -0.59469609453555
C         3.42611630184079   -0.72469844850765   -0.59577671886780
C         1.98562405406604    2.30959948830760   -1.82989894985024
C         0.74994876475795    2.30572659659092   -2.58552853697911
C        -0.24778518481388    3.03560345141686   -1.83030226251959
C         0.36800873446336    3.48165467347462   -0.59392129089333
C         1.74895935380261    3.03336016478964   -0.59452381316100
C        -1.58121879715739    2.60192024975990   -1.83001875391007
C        -1.96360587758461    1.42607050981537   -2.59441448734486
C        -2.95623679629150    0.70108228674567   -1.82779063927799
C        -3.19394628049702    1.42531507185731   -0.59076779679943
C        -2.34521570654597    2.60046403509625   -0.59621511363885
C        -2.95654479444336   -0.70099581078867   -1.82451570262282
C        -1.95774675613145   -1.42642530244594   -2.59215469804348
C        -1.58095184187853   -2.60285708010071   -1.83155939183832
C        -2.34561923879884   -2.60223971612250   -0.59509636145903
C        -3.19931074380147   -1.42566871767574   -0.59599349222579
C        -0.99912267401100   -0.72573720198685   -3.33136821716940
C        -1.00167038578035    0.72441447532208   -3.32547906133834
C         0.38216144582847    1.17129342128190   -3.32285554807241
C         1.23529575794030    0.00042409070454   -3.33178492030088
C         0.38024213608184   -1.17022961094381   -3.32689698210220
C        -1.77029094626077    0.01384842018655    4.74339767639191
F        -0.79864372823703    0.04502288863817    5.71258743778835
F        -2.52839080704747   -1.02423603666133    5.09837721012634
F        -2.47988561865662    1.09584390443787    5.08168757110355
C        -0.53879470175263   -1.67526972140542    4.74305574030657
F        -0.26281338521271   -0.77525288026519    5.71721496420697
F        -1.76757015782982   -2.09659314590643    5.09339880829321
F         0.19809667142048   -2.73190351842881    5.09385550535848
C         1.43156696286106   -1.03838619248484    4.74004524944814
F         0.66486530755816   -0.46746221428747    5.71871246047251
F         1.44255161642225   -2.32554371237622    5.09616347243198
F         2.66327927924744   -0.66020952453978    5.07987183767519
C         1.44167588362136    1.04471132679607    4.76205184297597
F         0.62384881035854    0.51299756130244    5.70635624878949
F         2.66727758523248    0.69489081562042    5.05344710839677
F         1.40151104664356    2.34369442898199    5.05233836110097
C         3.36391017093718   -3.73195366022420    0.85626274280586
F         4.04597468734570   -3.56513303606861    1.97675356641244
F         4.21202083869687   -3.91369562366090   -0.12156317388430
F         2.78471621035254   -4.91881461118857    1.00465584732934
C         4.58817556243472   -2.04663912181180    0.85723434508440
F         4.64054448682592   -2.74584953333071    1.97615461058154
F         5.02441236226277   -2.79697996602941   -0.11878295889339
F         5.53905108934093   -1.12824744238276    1.00441308749388
C         2.81432798826498   -2.04271858778545    3.69960037526797
F         3.82628366116336   -2.78014774824115    3.25774070971831
F         3.41991572216793   -1.13176206791733    4.49357862822984
F         2.14879051239771   -2.91359127818165    4.48343073656720
C        -2.50322028965520    4.35892523410240    0.86740166672295
F        -2.08456560413906    4.95383899673960    1.98281989612785
F        -2.34478099246040    5.23855742203248   -0.11716944955910
F        -3.81410760178985    4.17132624552610    1.00511807823129
C        -4.02593813070208   -1.68058792242698    2.62323163006977
F        -5.00151202473417   -0.76792853992752    2.71949274101806
F        -4.62708581021744   -2.71927451926939    2.04219019882075
F        -3.73905670890095   -2.13242500327059    3.82335658148394
C        -3.45845498387528   -0.00387178522311    3.70518199042714
F        -4.75400993273146    0.04500030311302    3.24853018659629
F        -3.43167162895422   -1.01954537831268    4.52419268674902
F        -3.43961517522705    1.09580830435090    4.49319780813001
C        -1.07836477784482   -3.31814439912641    3.69703690467828
F        -1.46408974467879   -4.50613867833947    3.22640731094927
F        -0.03034979984890   -3.61263182103436    4.48398295644211
F        -2.09472026901982   -2.93972895612834    4.48627609398767
C         1.07584733930860   -3.32103017567300   -3.69927742920397
F         1.46350354480354   -4.50321944897182   -3.22665176100300
F         0.02798225570045   -3.59762760405468   -4.49184707502407
F         2.09236014952275   -2.92964455095516   -4.49438383520615
C         4.02859112738736   -1.68281358566775   -2.62459986435754
F         4.99907423557102   -0.76887774136580   -2.72067009138533
F         3.73856732825785   -2.12371121190296   -3.82332441088824
F         4.62517609131821   -2.71892036955927   -2.04520691812554
C         3.48270948309727    0.00351107088746   -3.71660559600518
F         4.73325948065356    0.04602821488365   -3.25205865199848
F         3.37535144442471   -1.00578325011985   -4.55017182338564
F         3.39727603555349    1.07075073024642   -4.50562883103978
C         1.08247954219338    3.32064752064696   -3.69701062005829
F         1.46276317751348    4.50260496686671   -3.22675071791635
F         2.09320697701278    2.92667557807402   -4.49258700536569
F         0.02785175822293    3.59872849518253   -4.49721735353975
C        -2.27969211247719    3.73059389991194   -2.62514598077967
F        -3.57166826351916    3.53922156393607   -2.76231649489142
F        -1.79900745194882    3.85162837381302   -3.86133902332918
F        -2.14281645769169    4.91669875932020   -2.04671615768849
C        -4.23897396906877    0.99386409811031   -2.59629666721936
F        -4.46113191741806    2.31957514590771   -2.80528796908150
F        -4.22048774742041    0.56667082882927   -3.88270447577613
F        -5.34853089429893    0.52466547234782   -2.09504862754792
C        -4.58432883075639    2.04564627104070   -0.85619904349246
F        -4.62037485143229    2.81105606699945   -1.94082646561592
F        -5.55804303381796    1.16865139501854   -0.92859193319124
F        -4.97836598765994    2.86009468596850    0.12050469114226
C        -4.21782822530577   -0.99592576083305   -2.63069348991558
F        -4.50438681313839   -2.32100369515666   -2.73484544695842
F        -4.26639791325251   -0.52428309341225   -3.84920022529870
F        -5.36056277535721   -0.56555265675193   -2.03553086378921
C        -2.81820550462436   -2.04133347764042   -3.71424417593206
F        -3.80348349822837   -2.81246526183179   -3.26355631048713
F        -3.31771191234695   -1.17062991849317   -4.55605966338618
F        -2.11857058818543   -2.86540090973033   -4.50673955419898
C        -3.36886589412632   -3.73016634859796   -0.86266296713971
F        -4.06792280995840   -3.53938298556573   -1.95942702392857
F        -2.78586789686289   -4.91759374696715   -1.00347333001549
F        -4.25768552712283   -3.84871877454045    0.12035570358485
C        -1.42640897302418    1.04309472139430   -4.77375604114353
F        -0.67346004253953    0.44028512640145   -5.69520931925259
F        -2.66051593067865    0.61121628190612   -5.05559441227043
F        -1.48501513759878    2.32052142360776   -5.05537179860964
C         0.52910411365836    1.68834495689176   -4.74824353558626
F         0.28453964582165    0.74243188607017   -5.70238204332533
F        -0.18821119488516    2.72477435044589   -5.07391227392263
F         1.81194160522822    2.02743524084167   -5.08399213512213
C         0.54358765052881   -1.67162242338880   -4.76313959742465
F         0.24818712225042   -0.76112272619116   -5.68885535275742
F        -0.27120115559811   -2.70139215955555   -5.08051054742417
F         1.80618763887054   -2.02494461909398   -5.08100405183114
156
 energy: -500.893360916752 gnorm: 6.991907514419 xtb: 6.4.1 (a3dbbd7)
C        -1.22347910739605    0.00397542628116    3.31193855892674
C        -0.37674504255791   -1.16113137739483    3.29726162484518
C         0.99217850250878   -0.71896181937235    3.30330478325638
C         0.99939747084832    0.73204896696365    3.32144461491648
C        -0.38289252963481    1.17880006482299    3.33312468782710
C         2.33737703567881   -2.60141565288740    0.59441957007288
C         3.19630428596096   -1.41994086335449    0.59553673733747
C         2.96492029695338   -0.69777394501247    1.83140099205344
C         1.96372121592996   -1.42668111811931    2.57838327274392
C         1.58229489060219   -2.60392141062922    1.83186635555850
C         3.19797835935703    1.42585700866680    0.59622923533309
C         2.34317682299907    2.60132073114788    0.59661184214171
C         1.58181481775871    2.60105248106517    1.82795540753638
C         1.96878442533371    1.42931709183670    2.58730949450886
C         2.96020372711013    0.70472121519690    1.82899589065611
C        -0.35986077545535    3.48070920008530    0.59612862289130
C        -1.75162792420157    3.04119186196413    0.59891022460120
C        -1.97960742389655    2.30321836801317    1.83593960670445
C        -0.75275316947030    2.31088641394144    2.58799652500822
C         0.24884491040743    3.03366813347354    1.82870021968768
C        -3.42754110882518    0.72308020468853    0.60060589425169
C        -3.42852006675205   -0.72282439250045    0.59606213395584
C        -2.80335091932396   -1.17712705797115    1.82026598619865
C        -2.42289810248594    0.00468889674358    2.58170571468072
C        -2.80786648435996    1.17771112626890    1.82925657534477
C        -1.74117181470236   -3.03500228313651    0.60068212431482
C        -0.37028187409502   -3.47958233397969    0.59598973167279
C         0.24666982763547   -3.03660886992328    1.82709062734322
C        -0.74849778080639   -2.30675031325833    2.57814231302769
C        -1.98339658920569   -2.31182931217892    1.82698420570521
C        -0.24655571233848   -3.03584907804840   -1.82631691640994
C         0.74924560604425   -2.30910379588329   -2.58106084273212
C         1.98474913165958   -2.31067588195656   -1.82995453797247
C         1.74376667302356   -3.03715533851395   -0.59786969115434
C         0.36893980764739   -3.47953135480285   -0.59655455909216
C         2.80404983034336   -1.17712120930214   -1.82354684987821
C         2.42196441002173    0.00513574638250   -2.59006764556054
C         2.81346734077921    1.17544447538156   -1.82816793492003
C         3.42279137951622    0.72759006954199   -0.59433011959062
C         3.42857340421644   -0.72166414279166   -0.59729919166942
C         1.98541745825490    2.31184159309347   -1.82729702897539
C         0.75125961165039    2.30844738853148   -2.57808653851352
C        -0.24451891145154    3.03758193104511   -1.82753187218090
C         0.36819788049840    3.47958990921115   -0.59312035121313
C         1.74823859593943    3.03302314536835   -0.59471560014510
C        -1.58270237609720    2.60315074386719   -1.83053019993873
C        -1.96488899679055    1.42600346395927   -2.59409029722828
C        -2.95306083285814    0.70412885739896   -1.82774696720779
C        -3.18987849144243    1.42696907896953   -0.58701403806295
C        -2.34609780433962    2.59882720695914   -0.59774497879291
C        -2.95321329978522   -0.70428151970638   -1.81923838201116
C        -1.95279881777183   -1.42873578951779   -2.58922709570603
C        -1.58114492833915   -2.60339041942991   -1.83321762179753
C        -2.34789366975309   -2.60466204120024   -0.59640054699193
C        -3.20011308365710   -1.42550415062124   -0.59684080708013
C        -0.99826798239947   -0.72506185771871   -3.33276379085891
C        -1.00407504786366    0.72166167633487   -3.32197122252228
C         0.38291054773115    1.16876470911557   -3.32326732474589
C         1.23428708314187    0.00098376321961   -3.33244204468835
C         0.37887530215331   -1.16663215399364   -3.32806565001238
C        -1.78897271489022    0.00736815396655    4.69475878799124
F        -0.82721126902830    0.10906781757185    5.75578644537967
F        -2.52054725839465   -0.98634500781139    5.15326582573993
F        -2.40912918018320    1.10572120331435    5.13471691048905
C        -0.52598067454684   -1.66763268087838    4.69578465354975
F        -0.33506036630271   -0.84581171878414    5.75051459994291
F        -1.72882762741895   -2.10286460397992    5.15975803567764
F         0.16002475115958   -2.71748333286189    5.15948109947687
C         1.43328055549584   -1.04868436824842    4.68640397754730
F         0.76251952017703   -0.49157398784641    5.76446380421177
F         1.45772442858253   -2.28089382606131    5.16298252033089
F         2.64287521536566   -0.69071938520680    5.11904977164177
C         1.45768153325803    1.05398222370897    4.73757177862895
F         0.61567795514610    0.59649175695210    5.73282245559665
F         2.67471423892327    0.74697051893181    5.05387510692575
F         1.40012793420477    2.34577194633720    5.05434493846947
C         3.35650513714711   -3.73358506092577    0.84394228086977
F         4.03851768010724   -3.60182947869361    1.97312352169860
F         4.18885546776412   -3.95181543578055   -0.12310968608278
F         2.78450537019142   -4.92045304865527    1.00587939711590
C         4.58689276972784   -2.03978262572669    0.84606261561001
F         4.67261637066632   -2.72683245576449    1.97163243528720
F         5.05455189798105   -2.76327242791936   -0.11668200867749
F         5.54102454166258   -1.12720115135051    1.00551103571472
C         2.79635173472001   -2.03535451457580    3.68298749296298
F         3.82252650038036   -2.77649562606481    3.29190252499356
F         3.47570597353148   -1.13114511002422    4.47926583094287
F         2.19443767501662   -2.98567727059352    4.44057708770651
C        -2.50162285298740    4.35871308141626    0.86782204588367
F        -2.08482398071171    4.95540297535505    1.98437250103509
F        -2.34570487965709    5.24075483431871   -0.11413142610254
F        -3.81416211179167    4.17443296344645    1.00719802375733
C        -4.01391807763472   -1.68671073122298    2.62056017304506
F        -5.02521612756342   -0.78958277666812    2.69924922580538
F        -4.62946601134851   -2.71972693407206    2.04248581612789
F        -3.75458212258340   -2.18003882765753    3.79915765178036
C        -3.41412811313790   -0.01578568976619    3.70260464653608
F        -4.78755317587639    0.08676095135031    3.25990917957616
F        -3.48214797579644   -0.98062485536385    4.52383776219732
F        -3.52058129065335    1.10954998363937    4.45451418859319
C        -1.07469706072312   -3.31224620301357    3.68344680892541
F        -1.46610098744408   -4.51190262918588    3.22727215760220
F        -0.03125543718807   -3.68452890940915    4.44376387761422
F        -2.13228965721390   -3.00256535794498    4.44705481165738
C         1.07279903871679   -3.31956223173182   -3.68852149546318
F         1.46521339974488   -4.50717928692118   -3.22663864801594
F         0.04167848466837   -3.66254612096626   -4.45836065050300
F         2.11953069632698   -2.99543350847576   -4.46253869853645
C         4.01556513233035   -1.69179752200523   -2.62316093401030
F         5.02384869946698   -0.78765846157078   -2.70280612097254
F         3.75492753387794   -2.15981795198566   -3.80281394163497
F         4.62661228241721   -2.71947070991188   -2.04852897475821
C         3.47015881898480    0.00014241631858   -3.71788061948503
F         4.73865721761748    0.07829777726594   -3.26751763674028
F         3.36830583293348   -0.97022747035377   -4.57717391840121
F         3.40220183852664    1.07048651608212   -4.50586323145962
C         1.08781707651033    3.30943044944946   -3.67950189980484
F         1.46323106928902    4.50760878129070   -3.22830197557390
F         2.13004269760187    2.98589739678322   -4.46095424892811
F         0.01817684968006    3.65249775352319   -4.48529372760137
C        -2.27580012558518    3.73221192448811   -2.62175863402658
F        -3.55220088962835    3.56582189136352   -2.77350878553558
F        -1.80262190189487    3.85628706968112   -3.86201755322983
F        -2.14245567059218    4.91789355403491   -2.05073856144205
C        -4.22541585939652    0.96466121986569   -2.56289610382034
F        -4.47653268467607    2.32094957974439   -2.85014691253404
F        -4.22048794315463    0.63540732878369   -3.91596340014872
F        -5.34729284161724    0.56124190752115   -2.14690397373921
C        -4.58080582170631    2.03800819773595   -0.84678448524627
F        -4.64090130979896    2.82852535513420   -1.91248320459864
F        -5.57203292232830    1.19179418480266   -0.88148427363559
F        -4.98204121677351    2.85918826615978    0.11960364826746