63
 energy: -142.061187092599 gnorm: 0.135548281940 xtb: 6.4.1 (a3dbbd7)
C        -1.32333194775417    0.00617886347970    3.59125188963251
C        -0.38909456310608   -1.27772716531095    3.58793274117145
C         0.98734837171535   -0.72675165446744    3.28582848483634
C         0.97037352147027    0.69420630050098    3.25749094477592
C        -0.37633960723915    1.14742685553706    3.29074190055216
C         2.33092254703306   -2.58746567485154    0.56610397604514
C         3.16875994483946   -1.41579758165486    0.56774606192583
C         2.91978889080344   -0.69314490348597    1.79074016083681
C         1.93018806170321   -1.40549148670748    2.54814074589443
C         1.57476788296703   -2.59634073810083    1.79100274817011
C         3.18328087896891    1.41909085132624    0.57258499213333
C         2.33432229320876    2.58580968143883    0.57559918777772
C         1.57332139543398    2.57095369604789    1.79851755002390
C         1.94352282881158    1.40414426944103    2.54285112768194
C         2.93804115459266    0.69543633516321    1.79366637265872
C        -0.36752716666001    3.44413435035873    0.58029879258012
C        -1.74013210357057    3.00741588983283    0.58054459941955
C        -1.97818665379860    2.28654468588757    1.80361199533287
C        -0.73393250395930    2.25581684802015    2.55761528373596
C         0.24647420110131    2.98080949443068    1.80023381740862
C        -3.39591089216029    0.72883802558845    0.57533866561121
C        -3.37932885665645   -0.70504006359254    0.57786353554246
C        -2.74934612856665   -1.12865052488571    1.82052481704193
C        -2.40026274086307   -0.01382700939334    2.55826017594831
C        -2.77435746218519    1.16021035149421    1.80187148511327
C        -1.70577977915925   -3.00504292266898    0.57191390059864
C        -0.34657433486683   -3.46193150719564    0.56452064530943
C         0.25810980605866   -3.00738238851431    1.79111395103090
C        -0.74203335365356   -2.29289841924391    2.55243835495534
C        -1.91196172287597   -2.27950749485726    1.81757326885181
C        -0.23558165862281   -3.01371296632646   -1.83961821271520
C         0.75175047781152   -2.28700579367404   -2.59867644532734
C         1.98089777627659   -2.28868303835222   -1.84308617931945
C         1.74918768154887   -3.01946296828987   -0.62050040464920
C         0.38088379041600   -3.46658963937948   -0.62079308111870
C         2.79204993046375   -1.16413556659148   -1.83875967224219
C         2.41002754086118    0.00666527739579   -2.59106683151125
C         2.78807241943814    1.16926264052202   -1.83130610074559
C         3.40298548527550    0.72369088805355   -0.60835037131266
C         3.40110069057525   -0.71955382898331   -0.60923004493565
C         1.96912615256614    2.29475463280888   -1.82840259178522
C         0.74474441569639    2.29528025280401   -2.58515694980539
C        -0.24988429155059    3.01642431380723   -1.82795956514323
C         0.36353023978106    3.45499162487799   -0.59844520421847
C         1.73735095077191    3.01278425815446   -0.60243935985793
C        -1.56944867307335    2.59059487249377   -1.83048045584010
C        -1.94787757007795    1.42311330884846   -2.58910001301826
C        -2.94122296022124    0.70465889669871   -1.83002690890673
C        -3.17947337159538    1.42642572884929   -0.60816005298080
C        -2.33307692209202    2.59081264516620   -0.60600270171083
C        -2.93172079240255   -0.68656028280689   -1.82266620418654
C        -1.94059925011627   -1.40887980593779   -2.58138532694875
C        -1.55636984787224   -2.57670213587000   -1.82754179967090
C        -2.29848528094837   -2.57416283302738   -0.59738768824741
C        -3.15456863482430   -1.39758782868201   -0.59434922362650
C        -0.98936986995949   -0.71482485845558   -3.31408037280858
C        -0.99159024528376    0.72723605185279   -3.31429029098428
C         0.38014149579772    1.17201579903766   -3.31523274930469
C         1.22728121177112    0.00778684511203   -3.31823795360647
C         0.38205649969615   -1.16057927312445   -3.31917058806611
Cl       -2.09995733548554    0.29360223981566    5.20530702406437
Cl       -0.35034641589922   -2.11046483688082    5.19906768498811
Cl        2.37868201071935    3.88489923762520    2.74774955175808
63
 energy: -142.085312357792 gnorm: 0.057454219405 xtb: 6.4.1 (a3dbbd7)
C        -1.32438151512784    0.00473588080867    3.58916098238864
C        -0.39029805524180   -1.27999903306466    3.58688699934078
C         0.98702374311484   -0.73350439767894    3.28445407600891
C         0.96811974224483    0.68457886949233    3.24612558715883
C        -0.37947415579457    1.14598826782999    3.28953806015836
C         2.33122770826128   -2.59234209541090    0.56468685365593
C         3.16900554300197   -1.42089411346125    0.56590086261239
C         2.92035507139131   -0.70267725173158    1.79052424867095
C         1.93192620401203   -1.41289111731637    2.54705729493277
C         1.57502311498967   -2.60119416323594    1.78930830854810
C         3.17452553332761    1.41327163284031    0.56539175193709
C         2.33538692513250    2.57651880018795    0.56229896529643
C         1.62269367618669    2.65041765467443    1.85454991636417
C         1.94435362226626    1.38943916257933    2.54141670490470
C         2.92745194631226    0.68833073544746    1.78839475701732
C        -0.37576076222235    3.43326593088974    0.57968111995160
C        -1.75231545477498    3.00519389576301    0.57857107308142
C        -1.98935424104932    2.28516929322928    1.80074897853382
C        -0.74071313477250    2.25173575442343    2.54561550602229
C         0.22606649878110    2.99498663360061    1.80301666001354
C        -3.40053937015334    0.72550868896661    0.57402443049510
C        -3.38116148259669   -0.70773711840585    0.57689726408311
C        -2.75090272530185   -1.13078388032058    1.81958820722715
C        -2.40324699232099   -0.01554044700300    2.55771256992607
C        -2.78117966119052    1.15699553103991    1.80153373493576
C        -1.70668633055491   -3.00601066477457    0.57079743357520
C        -0.34775241358997   -3.46353643886651    0.56346437132465
C         0.25686574145470   -3.00928134683667    1.78990114456885
C        -0.74283518797893   -2.29491534885448    2.55129650727299
C        -1.91308972736667   -2.28101407185730    1.81653791661711
C        -0.23606094721285   -3.01496160097142   -1.84079740012627
C         0.75144790282906   -2.28883854720451   -2.59967969034459
C         1.98024816098106   -2.29173255179510   -1.84430121631359
C         1.74844078721962   -3.02264885487632   -0.62213174009263
C         0.37991866276128   -3.46807149564619   -0.62193090233910
C         2.79305757622327   -1.16785189953418   -1.84095230070145
C         2.41118043417800    0.00302641728692   -2.59368561733357
C         2.79203190860680    1.16562314012584   -1.83702495342233
C         3.40400450621565    0.71931737971029   -0.61559893255314
C         3.40158176938221   -0.72415862699109   -0.61211144563766
C         1.97136022551287    2.29161113059801   -1.83505810424170
C         0.74519293032097    2.29295428609786   -2.58605390254505
C        -0.25011842777955    3.01408148349145   -1.82642997285259
C         0.36005916470001    3.45342152099365   -0.60158291815622
C         1.73430908497530    3.00025356682252   -0.60753440468881
C        -1.57322036173129    2.58862705215186   -1.83132716057572
C        -1.94914809479342    1.42250006903974   -2.58940288181108
C        -2.94269048012070    0.70268339183859   -1.83109493395610
C        -3.18411623387895    1.42356014222099   -0.60935544721181
C        -2.34072016015252    2.58941606248444   -0.60823502495779
C        -2.93225848903335   -0.68794864684448   -1.82356374545212
C        -1.94055889470129   -1.40983824737089   -2.58241485047279
C        -1.55657671182836   -2.57712709699151   -1.82879496716450
C        -2.29917340894925   -2.57503782202393   -0.59851360422626
C        -3.15560465662877   -1.39955712078802   -0.59559471171865
C        -0.98928643772243   -0.71521720745595   -3.31469819311502
C        -0.99170201301261    0.72628677800011   -3.31559699559573
C         0.38001813968558    1.17010006743794   -3.31581591984714
C         1.22755993638332    0.00563306724742   -3.31927988447604
C         0.38217274723372   -1.16188819796528   -3.32008084082191
Cl       -2.09851591911566    0.29535669934852    5.20434339141838
Cl       -0.35076369418655   -2.11099533983148    5.19858832788469
Cl        2.45301474427312    3.99371657959846    2.82477174563712
63
 energy: -142.091425325578 gnorm: 0.012785549473 xtb: 6.4.1 (a3dbbd7)
C        -1.32390788015645    0.00524751702582    3.58486324595695
C        -0.39190941382943   -1.28065710810391    3.58225023944536
C         0.98296034432226   -0.73085152775376    3.27620256889188
C         0.96954172657744    0.68718306591418    3.23929396551723
C        -0.37929191630493    1.14884549734306    3.29314262870683
C         2.32961972938288   -2.59615173707365    0.56228471535296
C         3.16567933767766   -1.42334030066057    0.56414390515949
C         2.91401192040958   -0.70454332143726    1.78784825207316
C         1.92869452591607   -1.41448343963807    2.54185555668091
C         1.57360180049030   -2.60519189229994    1.78720723990518
C         3.16128707181196    1.41504018341026    0.56236383619380
C         2.33907125444756    2.58068900667451    0.56169048414355
C         1.66980613905698    2.72100993226099    1.90435454305592
C         1.94731383655468    1.39200348024979    2.54465387195569
C         2.91131205102564    0.69008440830341    1.78554745960189
C        -0.37099433650953    3.42282551049361    0.58363328842673
C        -1.75100766234947    2.99781768843870    0.57695074364917
C        -1.98635662620027    2.27827739707279    1.79666886015135
C        -0.73401436530399    2.24995645883387    2.53727672341143
C         0.22455347645541    2.99593500903238    1.80199655586116
C        -3.40481448460942    0.72138687989689    0.57257743106781
C        -3.38400702331879   -0.71173731109598    0.57499955091955
C        -2.75329723762399   -1.13489844708065    1.81780660578043
C        -2.40576642588669   -0.01952866784673    2.55620312972537
C        -2.78183128364472    1.15185768151216    1.79943606913373
C        -1.70857213967914   -3.00944317903806    0.56826921036275
C        -0.34961936934272   -3.46698413911120    0.56109292961343
C         0.25470876975508   -3.01260282111709    1.78752807310746
C        -0.74472152820550   -2.29761511053654    2.54822578757955
C        -1.91543078381513   -2.28481801537477    1.81422459883977
C        -0.23767058027938   -3.01835021426721   -1.84329961947409
C         0.75004404655887   -2.29233848008034   -2.60187583739767
C         1.97855178339765   -2.29589847434652   -1.84655077974387
C         1.74673257076571   -3.02691812291346   -0.62475346475490
C         0.37818447521833   -3.47157656125630   -0.62436976819980
C         2.79190377430220   -1.17164055410546   -1.84268759498982
C         2.41103391442082   -0.00071984815379   -2.59658857781276
C         2.79018639549902    1.16103300588616   -1.83762049807535
C         3.39895708797809    0.71750483240154   -0.61747894540323
C         3.39865830000448   -0.72691111602425   -0.61390479178419
C         1.96754434719527    2.28590962030344   -1.83117594877576
C         0.74400275394008    2.28880245454502   -2.58413290731567
C        -0.24999619333772    3.01065998553867   -1.82167552217683
C         0.35985946174542    3.45635136860743   -0.60306345280092
C         1.73498744005611    2.99680086096400   -0.60328010373235
C        -1.57588407267863    2.58501665362669   -1.83216712347151
C        -1.95032206810572    1.41994918220008   -2.58956467802248
C        -2.94488662505992    0.69898838461450   -1.83257987219689
C        -3.18789617730108    1.41985093090387   -0.61076388404861
C        -2.34220711721699    2.58459316375969   -0.60912155598265
C        -2.93408049192488   -0.69119240200038   -1.82539413967665
C        -1.94204395257003   -1.41306581102333   -2.58447398174707
C        -1.55792605602152   -2.57984644962464   -1.83123332724943
C        -2.30092500827332   -2.57815004002229   -0.60073722333380
C        -3.15766514186319   -1.40325755038444   -0.59758048597017
C        -0.99063676664740   -0.71758867091644   -3.31592088446042
C        -0.99291651009774    0.72337899889549   -3.31707185862236
C         0.37873675016183    1.16721323234148   -3.31591968402823
C         1.22671463006744    0.00248816953255   -3.32107335762882
C         0.38102448705526   -1.16458266211389   -3.32148706315000
Cl       -2.09741296220660    0.29565722144703    5.20097775994792
Cl       -0.35262568443753   -2.11041404382972    5.19437153535166
Cl        2.50677129362580    4.07905105835932    2.88174865526909
63
 energy: -142.091752458754 gnorm: 0.007864134438 xtb: 6.4.1 (a3dbbd7)
C        -1.32446954057941    0.00544096356180    3.58382122883115
C        -0.39175842249048   -1.27927840538229    3.57924525852925
C         0.98156732483424   -0.72723774976019    3.27217425850928
C         0.97172594131190    0.69167143804853    3.24180063088166
C        -0.37904202595171    1.14984629506755    3.29642162476240
C         2.32800632296654   -2.59724384982973    0.56110177015705
C         3.16245352841941   -1.42317524668464    0.56326198667007
C         2.90959604179610   -0.70247900679967    1.78559699007944
C         1.92606669437766   -1.41321173804966    2.53868692770238
C         1.57200126985239   -2.60592701257353    1.78594659933600
C         3.15761621543539    1.41806800429985    0.56305894854292
C         2.34360600342638    2.58911418326577    0.56627443371399
C         1.68311483495579    2.73828517787835    1.91684901667779
C         1.95119762410511    1.39991756983014    2.55092339438549
C         2.90629598460947    0.69324490722806    1.78619601180305
C        -0.36581916555191    3.42110591549148    0.58610795274476
C        -1.74646732020047    2.99341550632336    0.57655988271322
C        -1.98144888259253    2.27422319681452    1.79501724603936
C        -0.72877545049686    2.25038575358007    2.53716625496878
C         0.23001898880946    2.99462996283695    1.80230662401811
C        -3.40534637932814    0.71962232664303    0.57205173817694
C        -3.38558439045020   -0.71367440812010    0.57418277068241
C        -2.75452645966725   -1.13689809982603    1.81690072245390
C        -2.40588345872397   -0.02121652999335    2.55488768351828
C        -2.78027309827745    1.14973731346154    1.79822159969620
C        -1.71012820194940   -3.01177502078339    0.56691013261209
C        -0.35102823112211   -3.46915257281888    0.55975406820808
C         0.25322281344952   -3.01368970781125    1.78590886020103
C        -0.74552350449555   -2.29763081273862    2.54607056135580
C        -1.91683613254712   -2.28667776379751    1.81289856024363
C        -0.23890611552918   -3.02059743866702   -1.84477902073306
C         0.74908374819147   -2.29453527009116   -2.60327467819861
C         1.97758350040695   -2.29795369639389   -1.84777346239648
C         1.74559146060586   -3.02910020921184   -0.62598053442147
C         0.37695968918894   -3.47390988610022   -0.62571129909128
C         2.79059875346856   -1.17308264167809   -1.84323496598573
C         2.41016265712963   -0.00210701222332   -2.59718850222928
C         2.78804358824518    1.15945002667124   -1.83626289673453
C         3.39523882103556    0.71746197534476   -0.61590076940052
C         3.39569578559037   -0.72719636346365   -0.61411824791229
C         1.96539923791814    2.28370949305177   -1.82688680365378
C         0.74330992946047    2.28641676798263   -2.58164629628653
C        -0.24980296598835    3.00969977646949   -1.81972921101420
C         0.36085029954231    3.45942770592200   -0.60389075508890
C         1.73723263906682    3.00016859305478   -0.60008410900372
C        -1.57589977759333    2.58319430646339   -1.83236313009655
C        -1.95036727992604    1.41840593954732   -2.58965837171407
C        -2.94559909087041    0.69726392880939   -1.83324301611184
C        -3.18802014975523    1.41810212163422   -0.61114600730155
C        -2.34046519333819    2.58171629069116   -0.60889191756896
C        -2.93525076915469   -0.69293732532180   -1.82641567696347
C        -1.94322798182052   -1.41502845953936   -2.58572402758477
C        -1.55916573486405   -2.58184587215635   -1.83265379695266
C        -2.30247219401761   -2.58030474891835   -0.60204887040244
C        -3.15917398038458   -1.40527283950121   -0.59857598962018
C        -0.99156674514507   -0.71925848076521   -3.31675815349533
C        -0.99351926796097    0.72167228718108   -3.31763037893306
C         0.37808022823738    1.16567707230437   -3.31506233061437
C         1.22581293248565    0.00080051631667   -3.32140563493161
C         0.38015392108802   -1.16638379369706   -3.32245388795440
Cl       -2.10113771537346    0.29809100870868    5.19850099649796
Cl       -0.34729280090563   -2.11234158554054    5.18935815750083
Cl        2.51390925811532    4.09726804491272    2.89047293899524
63
 energy: -142.091835345134 gnorm: 0.004801993673 xtb: 6.4.1 (a3dbbd7)
C        -1.32419723884694    0.00469498081504    3.58240773982137
C        -0.39141038507256   -1.27769880386150    3.57686929376829
C         0.98116791090199   -0.72486166902377    3.26988113155430
C         0.97309651884230    0.69437265196240    3.24367488268222
C        -0.37916734203493    1.15000947559224    3.29867045813148
C         2.32719818953841   -2.59779547576219    0.56083178139984
C         3.16056225694353   -1.42295011798174    0.56277518844563
C         2.90682869010455   -0.70106565845089    1.78397745151364
C         1.92467194616510   -1.41249278635233    2.53715215387978
C         1.57105574446649   -2.60626975480785    1.78556429566927
C         3.15523136781905    1.41947384367762    0.56307349983895
C         2.34582767943663    2.59412167741799    0.56884809260187
C         1.68924337375106    2.74581075729362    1.92198402593562
C         1.95324713882171    1.40508988595033    2.55451376377580
C         2.90310758383158    0.69486497429445    1.78625306295832
C        -0.36220765987087    3.42004949955184    0.58711959867478
C        -1.74322892635528    2.99056739711327    0.57620464450244
C        -1.97804836637258    2.27166448239453    1.79387493202401
C        -0.72546231859794    2.25049013135888    2.53745517990586
C         0.23409490560914    2.99219916162613    1.80152273499363
C        -3.40537262330868    0.71920168841859    0.57194528884210
C        -3.38648921028242   -0.71423192577585    0.57396553152383
C        -2.75535138357935   -1.13778622477069    1.81654004640102
C        -2.40591980110352   -0.02190186382480    2.55417376673832
C        -2.77952255568514    1.14893365062232    1.79791043749101
C        -1.71098905437064   -3.01299154299233    0.56638776150233
C        -0.35180138512272   -3.47037424186640    0.55934100932581
C         0.25233118913611   -3.01426642382191    1.78538366148964
C        -0.74614141215717   -2.29772735012130    2.54521285023921
C        -1.91771446470653   -2.28753068150061    1.81231194595906
C        -0.23936916511672   -3.02139292669533   -1.84524204418681
C         0.74878973050332   -2.29542409822222   -2.60383397358538
C         1.97734590173478   -2.29889248949266   -1.84829249536678
C         1.74519444361356   -3.03014697702278   -0.62634595368633
C         0.37644447743145   -3.47492086227230   -0.62608491970955
C         2.79012523469149   -1.17369964937121   -1.84367536561391
C         2.40988660461520   -0.00276275327330   -2.59773562188947
C         2.78706875841277    1.15875000710491   -1.83582564881650
C         3.39292891862456    0.71726811731601   -0.61494300855584
C         3.39397739821124   -0.72728407068632   -0.61421545378787
C         1.96451254834106    2.28256403101979   -1.82469124363444
C         0.74310508649223    2.28522234344089   -2.58032455028982
C        -0.24962251307684    3.00983658128739   -1.81935140078549
C         0.36139053534865    3.46176930354689   -0.60538905287016
C         1.73841621822313    3.00218535954182   -0.59888268790287
C        -1.57568168514404    2.58266424036721   -1.83278724140214
C        -1.95014580319844    1.41801683336853   -2.58987595829635
C        -2.94574200429162    0.69690968119731   -1.83352981088646
C        -3.18764994585454    1.41763306936852   -0.61119361778902
C        -2.33913781496671    2.58053428888938   -0.60885049802455
C        -2.93563274896495   -0.69329692335027   -1.82677916413866
C        -1.94359746498659   -1.41557356837493   -2.58617307689875
C        -1.55956769078762   -2.58237832853655   -1.83310806647268
C        -2.30314665173451   -2.58098736861546   -0.60250234783722
C        -3.15979142324579   -1.40579518948326   -0.59889591329580
C        -0.99184471368667   -0.71981040754466   -3.31716836153873
C        -0.99365299624045    0.72113347397824   -3.31803103791329
C         0.37797389857223    1.16517792498459   -3.31478934785828
C         1.22544322524154    0.00009966321048   -3.32155949556854
C         0.37986151555785   -1.16713272521807   -3.32295282496764
Cl       -2.09743809661854    0.28513839904711    5.20100276139295
Cl       -0.35200167920187   -2.10365653190788    5.19047332089607
Cl        2.51233514467461    4.10276263638177    2.88987097850374
63
 energy: -142.091854429256 gnorm: 0.003608760449 xtb: 6.4.1 (a3dbbd7)
C        -1.32541759600297    0.00430502423120    3.58411642027480
C        -0.39110789673806   -1.27796728420073    3.57779612041011
C         0.98027266925670   -0.72383760355844    3.26848868307863
C         0.97313520572125    0.69545639038920    3.24577302948279
C        -0.38044411277903    1.14927344125411    3.30077494597932
C         2.32681720711519   -2.59832927526240    0.56086292825651
C         3.15925313547309   -1.42287042500601    0.56261430383367
C         2.90447917380052   -0.70028356086485    1.78287388522343
C         1.92320369041963   -1.41224968397044    2.53613723563154
C         1.57048045542293   -2.60669602997164    1.78541342725019
C         3.15286967039138    1.41982542866435    0.56325340377836
C         2.34658449303313    2.59698243461663    0.57089634936617
C         1.69262219850140    2.75000019752807    1.92538213754064
C         1.95349370478494    1.40805317319901    2.55720672579205
C         2.89993516250623    0.69541462794759    1.78646280255411
C        -0.35944729635493    3.41884249113828    0.58768474748233
C        -1.74088758206032    2.98852968934776    0.57583327323351
C        -1.97560032259692    2.26984832100138    1.79279456501352
C        -0.72331733516450    2.24967034981737    2.53740281727423
C         0.23705074388378    2.98862622597340    1.80021442301314
C        -3.40510484001025    0.71924453429723    0.57206154074620
C        -3.38679135068877   -0.71425441751335    0.57442944143579
C        -2.75575238451343   -1.13807586566875    1.81711457441611
C        -2.40540661518457   -0.02181830613383    2.55409980326035
C        -2.77886127981248    1.14860543158719    1.79781632155320
C        -1.71144582131325   -3.01338507490734    0.56662304217073
C        -0.35229553660439   -3.47097349134170    0.55932324751608
C         0.25178797479406   -3.01433109033767    1.78510295883661
C        -0.74615346506086   -2.29750283907366    2.54516650061829
C        -1.91812482575451   -2.28776995447680    1.81269907173946
C        -0.23957844036777   -3.02155228876431   -1.84521135462391
C         0.74871977294729   -2.29573230639920   -2.60394143109911
C         1.97738189471180   -2.29938492724731   -1.84849127603441
C         1.74509626284391   -3.03081536738842   -0.62642156520832
C         0.37617946852369   -3.47532755337224   -0.62605582235337
C         2.79003579442335   -1.17401864087860   -1.84393269175365
C         2.40992827860821   -0.00311518150380   -2.59805707829530
C         2.78662914430452    1.15834383016601   -1.83546001029174
C         3.39119579495841    0.71689811969542   -0.61391322205991
C         3.39284545961366   -0.72739496335954   -0.61408349488964
C         1.96414617495283    2.28177158000253   -1.82303570518131
C         0.74317764799603    2.28456806886324   -2.57933379519960
C        -0.24940566766667    3.01042384789901   -1.81940515225597
C         0.36167646578200    3.46366653433224   -0.60689913588142
C         1.73901192955666    3.00317440256846   -0.59805651894876
C        -1.57543058883530    2.58268888926912   -1.83325974627214
C        -1.94985127147737    1.41810800550145   -2.59001346297407
C        -2.94568166987722    0.69705943563699   -1.83353387612941
C        -3.18718404098727    1.41765543596860   -0.61105457389122
C        -2.33822694506721    2.58016573008850   -0.60893101334450
C        -2.93567585620014   -0.69311510411887   -1.82657178664036
C        -1.94364520519349   -1.41551395532861   -2.58603756183592
C        -1.55966420841306   -2.58224802282406   -1.83290066808517
C        -2.30337029320030   -2.58091096364378   -0.60222766641153
C        -3.15991578633203   -1.40566262932170   -0.59856569873403
C        -0.99188187191947   -0.71987223186948   -3.31717684752074
C        -0.99357929183169    0.72108627439132   -3.31820354471061
C         0.37813143909045    1.16515362862487   -3.31460366038909
C         1.22533785858524   -0.00015928039088   -3.32143413902480
C         0.37979180261669   -1.16737188373597   -3.32307273993222
Cl       -2.10816948020606    0.29923025596863    5.19637318236530
Cl       -0.33488117365489   -2.11690343813318    5.18473501562830
Cl        2.50644698832430    4.10288266175709    2.88650140402960
63
 energy: -142.091896252666 gnorm: 0.002159817212 xtb: 6.4.1 (a3dbbd7)
C        -1.32472095130148    0.00434950168696    3.58382339950219
C        -0.39124657621926   -1.27793141009611    3.57779960743071
C         0.98089521708589   -0.72473863531067    3.26950281890661
C         0.97285847570911    0.69422534762867    3.24445984960267
C        -0.38010563861142    1.14927377380874    3.29986379955609
C         2.32728134347343   -2.59802303600575    0.56112574855310
C         3.16031745925893   -1.42298377895016    0.56282203738453
C         2.90609741679377   -0.70099129095146    1.78359414912517
C         1.92424046868797   -1.41270324559939    2.53710038290942
C         1.57101953640235   -2.60653369879628    1.78576905357767
C         3.15396144970487    1.41899166730994    0.56286941377341
C         2.34536881249144    2.59429296317073    0.56925133592442
C         1.69004023033484    2.74697076046627    1.92296120339392
C         1.95265423587452    1.40556362305537    2.55499784872006
C         2.90151604594885    0.69453145263380    1.78613335868260
C        -0.36098568594543    3.41895839131823    0.58704732908314
C        -1.74237603977996    2.98983339474289    0.57605003193668
C        -1.97711768766689    2.27101666588415    1.79335800782714
C        -0.72469078287116    2.24948697451522    2.53716118467240
C         0.23535305133030    2.98888979648718    1.79994573885407
C        -3.40509073058433    0.71963464003187    0.57221722596604
C        -3.38639939210928   -0.71380435541310    0.57450349324638
C        -2.75537726318158   -1.13759333648818    1.81716274342196
C        -2.40549643227328   -0.02154542942195    2.55450440639010
C        -2.77940715169212    1.14909228968076    1.79825712337136
C        -1.71099567618526   -3.01277988151158    0.56680204965435
C        -0.35187133579372   -3.47036671858003    0.55960700281918
C         0.25224527930082   -3.01417075707928    1.78557016039042
C        -0.74603167158331   -2.29768682358176    2.54564787019499
C        -1.91769029238175   -2.28730637081395    1.81281379314165
C        -0.23928777280887   -3.02095476255366   -1.84490366786905
C         0.74891964071816   -2.29511578125632   -2.60358635085808
C         1.97756156026801   -2.29882090178551   -1.84819581522636
C         1.74535069289515   -3.03016968766329   -0.62615297668517
C         0.37649518713326   -3.47464611769890   -0.62578770066906
C         2.79038809427365   -1.17366961447124   -1.84383498324230
C         2.41020771098514   -0.00277301945247   -2.59797112717429
C         2.78729879841100    1.15873205981787   -1.83596107046296
C         3.39250115274547    0.71692373110626   -0.61459764903061
C         3.39380327672497   -0.72736325573692   -0.61413289401546
C         1.96474662672489    2.28235960786786   -1.82433931955600
C         0.74338310259717    2.28530370578321   -2.58018268774977
C        -0.24940733865309    3.01062803776161   -1.81982782118633
C         0.36144189259131    3.46268525917140   -0.60653159484799
C         1.73844980934339    3.00200310674441   -0.59896770988505
C        -1.57549050443776    2.58315352332047   -1.83313800259609
C        -1.94988833167492    1.41852695790056   -2.58990262678401
C        -2.94553310820879    0.69746443111192   -1.83331440256451
C        -3.18727452595091    1.41807784984531   -0.61091709805126
C        -2.33884187565398    2.58095893912171   -0.60893779144948
C        -2.93539503216462   -0.69269220370176   -1.82635978105293
C        -1.94336707778846   -1.41501069556492   -2.58578014276773
C        -1.55937032598863   -2.58174189611568   -1.83265572701337
C        -2.30295719198038   -2.58035605999104   -0.60202895281537
C        -3.15953826681542   -1.40518765309141   -0.59843259017364
C        -0.99167791549849   -0.71939838146524   -3.31697260303923
C        -0.99346245813931    0.72155176049790   -3.31803750756186
C         0.37827063899188    1.16558402122275   -3.31490672541286
C         1.22558051269099    0.00030133710467   -3.32139488703603
C         0.37998701619659   -1.16684694911192   -3.32279978161101
Cl       -2.10357639950099    0.29176833687502    5.19911191085630
Cl       -0.34284180513926   -2.11019899815365    5.18827562941197