63
 energy: -142.084835286285 gnorm: 0.139551078935 xtb: 6.4.1 (a3dbbd7)
C        -1.29585809763920    0.00401118881931    3.54517689231029
C        -0.36796043466059   -1.17243305044266    3.30515820987539
C         0.98298838984909   -0.72191219210780    3.27512267957929
C         0.98156472691728    0.71960753564614    3.26971969840148
C        -0.37066843430553    1.17924059866277    3.30150764324135
C         2.33648296598357   -2.58548060321166    0.57950289371033
C         3.18657767566203   -1.41946403917212    0.57781419536533
C         2.94957050634668   -0.69854930588343    1.80123308089156
C         1.95308396825138   -1.41752165469557    2.55613481597303
C         1.57961582984989   -2.57968580834158    1.80518673258983
C         3.18767024138397    1.40991878537575    0.57593180017933
C         2.33807592119235    2.57402574463448    0.57591940987423
C         1.57683795447400    2.56605672116665    1.79975339077111
C         1.95304946478205    1.40835201085528    2.55205927541471
C         2.95072023090319    0.68875745027160    1.80098024590342
C        -0.36516779392141    3.42666371311492    0.57921714402649
C        -1.72924376731069    3.01648005687427    0.58287705229366
C        -2.09463355901587    2.46231282969886    1.94730853737491
C        -0.73027134368917    2.28553619224850    2.58224921046650
C         0.24829448370074    2.97593693088527    1.80334175247540
C        -3.37466967439567    0.70300551329579    0.57574930039426
C        -3.39003092771629   -0.73268815670587    0.56838248256510
C        -2.76818811346571   -1.16356142396752    1.78871572205038
C        -2.38904763717889    0.02437925858140    2.53264263708558
C        -2.74834472581071    1.12995086235998    1.81420011509538
C        -1.73481952354600   -3.00995345707075    0.57938225067925
C        -0.36149853487188   -3.44686666226009    0.58178847329193
C         0.25217194576597   -2.99475012297255    1.80551622011247
C        -0.72930832450935   -2.27346636848304    2.56467955460776
C        -1.97147545437730   -2.28746259180062    1.79868366143107
C        -0.24419850633136   -3.01431906314620   -1.82647673825261
C         0.74940205395547   -2.29291975806330   -2.58286291039202
C         1.97453700920709   -2.29239152825096   -1.82543977569151
C         1.74139873391846   -3.01127177396538   -0.59946235539016
C         0.36858334361035   -3.45436466601281   -0.59762914030018
C         2.79442417375665   -1.17031401238235   -1.82833550582627
C         2.41574661868216   -0.00512369138436   -2.58546959698227
C         2.79806943058290    1.16104826437995   -1.83045397159780
C         3.41356646756867    0.71553904959985   -0.60565027126811
C         3.41126633543504   -0.72579612437446   -0.60436594375932
C         1.98256115237360    2.28538932475628   -1.82964816243890
C         0.75350030248264    2.28551308222168   -2.58573232043658
C        -0.23508280223273    3.00436687434747   -1.82344140510130
C         0.37359850933878    3.44286488634390   -0.60220138875814
C         1.74684322375821    3.00246743965493   -0.60372642363152
C        -1.55566653240424    2.56818250404503   -1.80941223602174
C        -1.93859434660526    1.40592010808590   -2.57168095899201
C        -2.93551210472019    0.68461262540438   -1.82146846795257
C        -3.16898901543324    1.39767486955451   -0.59605965569985
C        -2.30435127708354    2.57332623889815   -0.58497549494069
C        -2.94114405324375   -0.70773319319533   -1.83440725651199
C        -1.94505174587464   -1.42387954866205   -2.59102123509086
C        -1.56548890453788   -2.59170746569988   -1.83211639417485
C        -2.32839595521473   -2.59312664308342   -0.60918315809929
C        -3.17773883520354   -1.43218193780650   -0.61434027481289
C        -0.98775846768414   -0.72638522805960   -3.31322849835342
C        -0.98659864734294    0.71557045446948   -3.30737103344774
C         0.38544609972999    1.16109326157285   -3.31071431262535
C         1.23106807690940   -0.00470839623161   -3.31198800118088
C         0.38446650877846   -1.17000629315169   -3.31255499434049
Cl       -1.95494402211016   -0.00808767691631    5.23350834623694
Cl       -3.13453400293270    3.62205440046694    2.87428256889563
Cl        2.95308875341636   -2.14300403764000    3.87892192722125
63
 energy: -142.108813180096 gnorm: 0.061013434781 xtb: 6.4.1 (a3dbbd7)
C        -1.30290970317511    0.01157041065848    3.54610486794455
C        -0.37227440934428   -1.15985234880284    3.29769824737791
C         0.96570031276170   -0.71124416450879    3.28913122620042
C         0.96950276633686    0.72318210125439    3.26254298082875
C        -0.38066607452702    1.18904848525312    3.30371764027588
C         2.32643792667028   -2.58075294602209    0.57199042538416
C         3.17707933674219   -1.41277059177677    0.57108701667671
C         2.94833662972585   -0.69127863745247    1.78621220037938
C         2.01192213293644   -1.46102262342212    2.63291414549795
C         1.57233068466913   -2.58471842379231    1.78817932729953
C         3.18993065776251    1.41269456313578    0.57031539621352
C         2.33723202048525    2.57362364003039    0.57377449357696
C         1.57486873942040    2.56582140005945    1.79853827647013
C         1.94823150920471    1.41145666013581    2.54953892629161
C         2.94364094691155    0.68944015808917    1.78857344140537
C        -0.36640008975662    3.42861550496104    0.57961856556207
C        -1.73113513766524    3.01867454974065    0.58243151092968
C        -2.09942030924479    2.46650192336587    1.94661799883718
C        -0.73632594823503    2.29307654231842    2.58327262282618
C         0.24495116469332    2.98038454353796    1.80299275079718
C        -3.37587536117512    0.70448974468667    0.57532871438411
C        -3.39046497715155   -0.73176475472472    0.56963710745692
C        -2.76947180950909   -1.16060263241695    1.78895235381263
C        -2.39303247628649    0.02751215034851    2.53163986474041
C        -2.75218511157858    1.13380991636457    1.81365334843415
C        -1.73286853132985   -3.01000822010784    0.57613826512107
C        -0.36297859265301   -3.45252179960976    0.57375104414766
C         0.24942131964263   -2.99086227322145    1.79085606145293
C        -0.73429013739468   -2.27461317758206    2.56183637517918
C        -1.96780573772829   -2.28671301946031    1.79860805911139
C        -0.24454443833370   -3.01579759552069   -1.83248445964167
C         0.74874913220599   -2.29358379209779   -2.58887067360280
C         1.97394728391052   -2.29296350685668   -1.83229310544546
C         1.73819317751277   -3.01546234139129   -0.60958685864995
C         0.36876246956468   -3.45985361510450   -0.60684966440436
C         2.79405095829206   -1.16991040157300   -1.83462344922018
C         2.41564459417338   -0.00454850364997   -2.59037647430204
C         2.79815282527036    1.16154884655218   -1.83488120596698
C         3.41654595573254    0.71693075297212   -0.61235840697559
C         3.41187762755747   -0.72194320904082   -0.61227774825525
C         1.98179490149108    2.28532501369746   -1.83190810574202
C         0.75355598974335    2.28598854463278   -2.58691859795275
C        -0.23514619081836    3.00438585163181   -1.82303967745222
C         0.37325946221740    3.44376974692669   -0.60283796056825
C         1.74584508516728    3.00226399597719   -0.60498095992184
C        -1.55573131387320    2.56823138312601   -1.80918469260326
C        -1.93882740900974    1.40590074634989   -2.57107575244035
C        -2.93575541110003    0.68497810739621   -1.82141982543154
C        -3.16953091714058    1.39834385241594   -0.59640028816544
C        -2.30502773596203    2.57434771965320   -0.58517267253331
C        -2.94158144221635   -0.70782452067372   -1.83348880272088
C        -1.94526987414782   -1.42378830421732   -2.59136644080567
C        -1.56545123444477   -2.59182186782617   -1.83457704691795
C        -2.32721198972201   -2.59247936773339   -0.61037631696992
C        -3.17803158436159   -1.43174197909000   -0.61450519079192
C        -0.98847527227837   -0.72589697642423   -3.31454293288911
C        -0.98693763799148    0.71579612613557   -3.30832675068139
C         0.38461973221591    1.16124313381329   -3.31246958906682
C         1.22998033317753   -0.00389421688010   -3.31528652931037
C         0.38329543012684   -1.16953291250577   -3.31582043071602
Cl       -1.95943373162354   -0.00604987033346    5.23414769677154
Cl       -3.13775389638439    3.62644388863422    2.87426553649519
Cl        3.03398891303785   -2.20083910888466    3.98546416057637
63
 energy: -142.114849353271 gnorm: 0.014261825527 xtb: 6.4.1 (a3dbbd7)
C        -1.30252970186762    0.01258701051845    3.53897567293420
C        -0.36547413765133   -1.15571756807543    3.29186964005240
C         0.95893838393322   -0.70921468516971    3.28623469440148
C         0.96644877881343    0.71875068456555    3.25484799341931
C        -0.38338092884030    1.19096940394067    3.29842904812233
C         2.31567779441427   -2.57419775806358    0.57416379434840
C         3.16581182356251   -1.40590675877700    0.57341498724103
C         2.95121811622361   -0.69209150608681    1.78673129403982
C         2.06615202563775   -1.50131627197390    2.69990000296409
C         1.57364314012419   -2.59023821336392    1.78745910115714
C         3.18231151748411    1.40820542289638    0.56842962200001
C         2.33345171341424    2.57133738503522    0.57162124792348
C         1.57175599183070    2.56263720472982    1.79737227028328
C         1.94694015758214    1.41283982778791    2.55029837548689
C         2.94000380496020    0.68319252308988    1.78625382311079
C        -0.36846245822601    3.43056989972027    0.57839306907404
C        -1.73448179057690    3.02248900016822    0.58035732729148
C        -2.10384383582355    2.47192349014571    1.94502248552831
C        -0.73991680859344    2.29588555882432    2.58047836734016
C         0.24166846780408    2.98377675513013    1.80097580012908
C        -3.37809854786377    0.70763330658492    0.57334676149720
C        -3.39009423607852   -0.72932586999998    0.56942701866517
C        -2.76958501677155   -1.15633155498506    1.78806073168010
C        -2.39489291054091    0.03084380393917    2.52803317032096
C        -2.75603938209586    1.13880450255779    1.81138241965563
C        -1.72978903778718   -3.00631899975026    0.57371603927521
C        -0.36055050726399   -3.44711566956394    0.57073834377272
C         0.25432639788126   -2.98858335067294    1.78788074274642
C        -0.73685306489139   -2.28016112520664    2.56415337044474
C        -1.96075366501982   -2.28262533194712    1.79948699412845
C        -0.24561517668953   -3.01657724814034   -1.83803873548938
C         0.74722281810359   -2.29298071887878   -2.59444748907079
C         1.97158530577622   -2.29184391523647   -1.83623552551156
C         1.73451960031613   -3.01394726013814   -0.61303694171231
C         0.36906058616109   -3.45821556167594   -0.61219396782421
C         2.79111632312621   -1.16858622125683   -1.83823826531514
C         2.41367082557115   -0.00361679764512   -2.59506324520750
C         2.79709845847037    1.16253739356894   -1.83958775147428
C         3.41228014293605    0.71585576084862   -0.61622593899171
C         3.40664645417472   -0.71940211985590   -0.61433631196919
C         1.97982688594659    2.28587730683122   -1.83512664420818
C         0.75205915865331    2.28682234217822   -2.58895814405149
C        -0.23693273531836    3.00536457623822   -1.82420927331396
C         0.37133220317264    3.44509560801085   -0.60503222629762
C         1.74338437164173    3.00202093252021   -0.60676426433881
C        -1.55757102424934    2.56971494292458   -1.81093528558125
C        -1.94046849484988    1.40725433629226   -2.57236373781053
C        -2.93736724772025    0.68698227076650   -1.82319615249905
C        -3.17178216369925    1.40070242897862   -0.59865834196708
C        -2.30735198957716    2.57705617195709   -0.58719681740826
C        -2.94258073125779   -0.70621234584927   -1.83379908889808
C        -1.94614931235869   -1.42231106503842   -2.59238486720597
C        -1.56608738422320   -2.59079479228317   -1.83741485782267
C        -2.32587244210297   -2.59013120732286   -0.61120509660105
C        -3.17812980499085   -1.42926464574587   -0.61564610227610
C        -0.99034364212801   -0.72421486727424   -3.31731064231555
C        -0.98888910605982    0.71732550024358   -3.31096657319933
C         0.38236180388602    1.16229786668649   -3.31559138024775
C         1.22764052529050   -0.00225994643278   -3.32002489457489
C         0.38094993854004   -1.16824868572741   -3.32040062049315
Cl       -1.95513883182284   -0.01218431625126    5.22639573457458
Cl       -3.14359257282325    3.63194043596143    2.87115759263017
Cl        3.08855070752836   -2.24061497410137    4.07081168575112
63
 energy: -142.115167603998 gnorm: 0.008698680953 xtb: 6.4.1 (a3dbbd7)
C        -1.29997192967084    0.01190232235013    3.53469579825660
C        -0.36072370816144   -1.15722772824803    3.29093116020320
C         0.96132538498894   -0.71143234665568    3.28333905757817
C         0.96847699556221    0.71637886155530    3.25367852782006
C        -0.38201956096440    1.19034729848438    3.29539023699117
C         2.31334748793318   -2.57317400506851    0.57731710383593
C         3.16315382196005   -1.40479445520600    0.57653111250356
C         2.95629516443317   -0.69557855538812    1.79362806234189
C         2.07989904576310   -1.51145128566945    2.71495322554872
C         1.57829063596726   -2.59527728614124    1.79443018202850
C         3.17750491107479    1.40457962524986    0.56893613699132
C         2.33074583169104    2.56913810555351    0.57095423333219
C         1.57052877430637    2.56170218410197    1.79721742393354
C         1.94792226675557    1.41397448979527    2.55173373234143
C         2.94112519916083    0.68028969197818    1.78922535167972
C        -0.36920743744892    3.43141244777279    0.57744863061521
C        -1.73565285174674    3.02409086218951    0.57930592868183
C        -2.10494537705706    2.47367958563626    1.94429786133451
C        -0.74040290709020    2.29629403553288    2.57946500868483
C         0.24079668686932    2.98474419982045    1.80000220700083
C        -3.37895590544534    0.70897608991512    0.57252199498697
C        -3.38948035388516   -0.72829851438415    0.56872044202558
C        -2.76887063131917   -1.15493806315169    1.78717864113076
C        -2.39391298759304    0.03169351430384    2.52577311678851
C        -2.75700011418224    1.14048011461344    1.81027861641028
C        -1.72767809491135   -3.00339986918615    0.57293307937842
C        -0.35834901656865   -3.44328373204412    0.57115183437899
C         0.25758911428144   -2.99101799603469    1.79134996938150
C        -0.73768572781447   -2.28399113301666    2.56607081686619
C        -1.95814841564790   -2.28093458646909    1.79999633639188
C        -0.24631470166903   -3.01625624977141   -1.83966890089961
C         0.74619990488582   -2.29244195940487   -2.59635544390390
C         1.96975374089340   -2.29058969536295   -1.83656134630685
C         1.73331379954887   -3.01141856787316   -0.61223789587511
C         0.36908572525673   -3.45609101187387   -0.61282924103312
C         2.78863097202577   -1.16771337823059   -1.83843035247300
C         2.41222002012390   -0.00314063276544   -2.59662583641224
C         2.79573453321556    1.16277861338929   -1.84096270159642
C         3.40874344222173    0.71475773842460   -0.61645886372460
C         3.40254368665370   -0.71945308399178   -0.61318725281930
C         1.97824921170332    2.28592404704676   -1.83641761298533
C         0.75090197261130    2.28745015947300   -2.59044986306807
C        -0.23809599003821    3.00617741946104   -1.82538787208599
C         0.37022014252213    3.44573937540830   -0.60629293564050
C         1.74179990540822    3.00134729377864   -0.60746462338050
C        -1.55882163668723    2.57085545964145   -1.81226004843783
C        -1.94155848181172    1.40825063061036   -2.57354193542851
C        -2.93846350604730    0.68827915770074   -1.82433527586571
C        -3.17311760724939    1.40205208016298   -0.59978928544337
C        -2.30853100185456    2.57849850419158   -0.58830905509337
C        -2.94319129386678   -0.70508849888267   -1.83456652497733
C        -1.94696600428035   -1.42134195438200   -2.59350305129248
C        -1.56643120430171   -2.58961706268758   -1.83861081247178
C        -2.32481059440512   -2.58833116792385   -0.61147534906672
C        -3.17804151823981   -1.42780349170938   -0.61646937191226
C        -0.99155579335253   -0.72336020919513   -3.31926656742347
C        -0.99018722267497    0.71827916319530   -3.31265258023531
C         0.38111176110395    1.16307839334681   -3.31762523300971
C         1.22645278744357   -0.00148032445580   -3.32240298234749
C         0.37968626266911   -1.16772811145455   -3.32270574209489
Cl       -1.95127592685251   -0.01974409185072    5.22182211274467
Cl       -3.14541121646372    3.63520777867978    2.86794260590976
Cl        3.09316506346466   -2.24321789373336    4.08885404752137
63
 energy: -142.115282539912 gnorm: 0.004745583235 xtb: 6.4.1 (a3dbbd7)
C        -1.29819002550169    0.01162778772441    3.53207068435327
C        -0.35765159381396   -1.15823715281056    3.28934682224297
C         0.96302009363489   -0.71283728455728    3.27934219736068
C         0.97015140002304    0.71522961491130    3.25276096202629
C        -0.38084176378456    1.18982600788731    3.29346695133001
C         2.31157583160635   -2.57230716384161    0.57892568955753
C         3.16123891875544   -1.40388008983333    0.57804850138766
C         2.95901099691747   -0.69760952380732    1.79799096926845
C         2.08638419011241   -1.51604259345948    2.72144048816271
C         1.58089233913587   -2.59809418746177    1.79901115138656
C         3.17482316120456    1.40237915094834    0.56923856467697
C         2.32924016477804    2.56778466569119    0.57070113468649
C         1.57023389117634    2.56189663975805    1.79742004469651
C         1.94890229090386    1.41554008496978    2.55276218842369
C         2.94166025075238    0.67893003666900    1.79085740075503
C        -0.36922215980656    3.43176047830523    0.57715491386452
C        -1.73576859862030    3.02446820574682    0.57906913053314
C        -2.10527239728242    2.47416583090844    1.94426651766111
C        -0.74041116410566    2.29660492019865    2.57943107318506
C         0.24067717115607    2.98543185490592    1.79977103270097
C        -3.37939717324842    0.70947822151124    0.57252756438252
C        -3.38913641299119   -0.72805260243185    0.56846584789785
C        -2.76855044340460   -1.15447154440566    1.78682397220932
C        -2.39314390075795    0.03171551861454    2.52459414039407
C        -2.75753226245710    1.14113604711657    1.81004075530280
C        -1.72637308715413   -3.00172274236771    0.57247997212774
C        -0.35698784642792   -3.44126755068964    0.57145048656282
C         0.25911149334300   -2.99279960112862    1.79352628600386
C        -0.73906774737196   -2.28693907669375    2.56710491464550
C        -1.95698811325962   -2.28036028432841    1.80054497986461
C        -0.24679959035271   -3.01628780709471   -1.84054467760520
C         0.74563386254041   -2.29243427553820   -2.59734351146195
C         1.96865766782882   -2.28974975494420   -1.83658707872981
C         1.73250299511865   -3.00949117048539   -0.61167887596148
C         0.36893171975719   -3.45511166358364   -0.61307147541638
C         2.78714026462091   -1.16714919630418   -1.83840931883690
C         2.41174143330562   -0.00275711083940   -2.59747679877092
C         2.79521402463933    1.16304146415769   -1.84176869739089
C         3.40694702519842    0.71431554292154   -0.61651892789909
C         3.39980121372581   -0.71950836747708   -0.61249649697340
C         1.97751696096593    2.28592711581363   -1.83698090120631
C         0.75050202643441    2.28777284043143   -2.59117037961858
C        -0.23846858486619    3.00654620734482   -1.82584526464098
C         0.36991188614651    3.44605849639880   -0.60677230164810
C         1.74126499268257    3.00107567087758   -0.60770708211316
C        -1.55918646849549    2.57123510332489   -1.81266328695064
C        -1.94180580461166    1.40850499996670   -2.57381415338612
C        -2.93882460552389    0.68876272948796   -1.82462116887986
C        -3.17365317385420    1.40252112541293   -0.60003000925487
C        -2.30878975259323    2.57890261421606   -0.58851562931666
C        -2.94345065650618   -0.70470364613232   -1.83486144112747
C        -1.94739974260917   -1.42100675983990   -2.59405719904810
C        -1.56659778686164   -2.58901951106650   -1.83911959987387
C        -2.32419641626422   -2.58759622884282   -0.61146864445536
C        -3.17803139391192   -1.42716614476952   -0.61675988249993
C        -0.99203495485664   -0.72313765835547   -3.32022305764866
C        -0.99063022152227    0.71857728030935   -3.31329679966615
C         0.38071418340246    1.16336915017880   -3.31859055404756
C         1.22611785599718   -0.00117490613192   -3.32368691868168
C         0.37919738186971   -1.16769699056461   -3.32390236763895
Cl       -1.94816986884960   -0.02522871134199    5.21931515546573
Cl       -3.14559704161946    3.63712041756378    2.86631237460335
Cl        3.08848859875000   -2.23912222199312    4.09494967134255
63
 energy: -142.115325257456 gnorm: 0.002437287018 xtb: 6.4.1 (a3dbbd7)
C        -1.29755764530203    0.01156680488370    3.53134732405518
C        -0.35662428970341   -1.15845819113185    3.28796236889833
C         0.96317463468907   -0.71311763285848    3.27614209348468
C         0.97064316951844    0.71506651357807    3.25206744781264
C        -0.38044700318650    1.18960563729582    3.29297190709412
C         2.31070301297675   -2.57184550907720    0.57899888088016
C         3.16034210703054   -1.40338517798224    0.57804937689836
C         2.95908258364138   -0.69794254904544    1.79873638615981
C         2.08789248301874   -1.51699061727981    2.72286128389733
C         1.58118611383030   -2.59851063440693    1.79992379530852
C         3.17433393255388    1.40180850558469    0.56926208868446
C         2.32908501633234    2.56754103265095    0.57075819114793
C         1.57056140173932    2.56247906155802    1.79772100137654
C         1.94935794530484    1.41645672226876    2.55310619062121
C         2.94149909092795    0.67871971098559    1.79085932296155
C        -0.36892774218883    3.43173041055145    0.57733027392275
C        -1.73542405273243    3.02420941385581    0.57925304053681
C        -2.10509205285030    2.47399622470187    1.94451762726780
C        -0.74024342230631    2.29676424241147    2.57983120681674
C         0.24094032835789    2.98573771286317    1.79999653996371
C        -3.37940493752107    0.70947851703042    0.57291204492269
C        -3.38898299058704   -0.72819969418754    0.56861964141474
C        -2.76850003098912   -1.15459556771851    1.78693639775060
C        -2.39281012706908    0.03138338475712    2.52444040349509
C        -2.75753733801647    1.14114477524035    1.81025465943001
C        -1.72602287553248   -3.00158427119884    0.57235309222881
C        -0.35657323478770   -3.44111184914156    0.57143941132702
C         0.25926531152831   -2.99332596069590    1.79377996856653
C        -0.74004766967913   -2.28837820605816    2.56735626591042
C        -1.95680340687875   -2.28064940136159    1.80093049280959
C        -0.24691600246309   -3.01653731483055   -1.84078161036231
C         0.74553872622918   -2.29265111870001   -2.59752761741598
C         1.96845934332938   -2.28957281675566   -1.83657785061499
C         1.73232629977080   -3.00896051282402   -0.61166343315159
C         0.36883254069803   -3.45523402274372   -0.61319905990890
C         2.78687310748843   -1.16703019793804   -1.83841636154052
C         2.41189568513093   -0.00259981741491   -2.59766022850531
C         2.79536913239331    1.16317668176124   -1.84202708406810
C         3.40683692526445    0.71435085958198   -0.61658319664087
C         3.39910135273838   -0.71954901514153   -0.61246549179252
C         1.97751486986517    2.28588867455716   -1.83695927849068
C         0.75060492651344    2.28779702277968   -2.59112230183295
C        -0.23834233825679    3.00654094914683   -1.82569009227165
C         0.37009601808319    3.44608208641413   -0.60664663018042
C         1.74149000542884    3.00115485117204   -0.60761921926366
C        -1.55900817333478    2.57112114871454   -1.81243093319121
C        -1.94163007628553    1.40836847985917   -2.57352569991913
C        -2.93871275262566    0.68870415318495   -1.82435286375700
C        -3.17357874735760    1.40242784500663   -0.59976599314065
C        -2.30859202062923    2.57874267076746   -0.58824088093817
C        -2.94343020150398   -0.70479612670459   -1.83471626014747
C        -1.94742988790560   -1.42106166554446   -2.59398691496516
C        -1.56656127653554   -2.58896686947863   -1.83907863960553
C        -2.32403840591874   -2.58774533108992   -0.61130603731357
C        -3.17800947067527   -1.42714533584195   -0.61660857392134
C        -0.99198696973599   -0.72322123531791   -3.32019270314535
C        -0.99055553333845    0.71850970036261   -3.31314638163425
C         0.38080537176272    1.16331657263094   -3.31854653945208
C         1.22622739494354   -0.00117881906656   -3.32383948353633
C         0.37922111287136   -1.16782820878905   -3.32400686000170
Cl       -1.94649043946273   -0.02715678892605    5.21891668040032
Cl       -3.14513301545963    3.63758125708096    2.86607250656886
Cl        3.08118972005547   -2.23337886283513    4.09420634640938
63
 energy: -142.115337316792 gnorm: 0.001314207132 xtb: 6.4.1 (a3dbbd7)
C        -1.29767758127086    0.01155654345264    3.53170355331438
C        -0.35690259327207   -1.15826279522252    3.28746417759913
C         0.96256461150990   -0.71279950496682    3.27486632977303
C         0.97038877916068    0.71534930179381    3.25176874529848
C        -0.38057649807018    1.18963539255320    3.29330721536312
C         2.31074465873789   -2.57190144458926    0.57851378261103
C         3.16041889870342   -1.40341451032456    0.57753871810037
C         2.95830968322904   -0.69754308570366    1.79771262341420
C         2.08735405010587   -1.51652308171354    2.72244592814558
C         1.58059895523700   -2.59799959070294    1.79897193085550
C         3.17489984725992    1.40210195655222    0.56915953925566
C         2.32954807822323    2.56784539277975    0.57087253459958
C         1.57096360748398    2.56279088112045    1.79785867495132
C         1.94939429702244    1.41648033831076    2.55297368368762
C         2.94132079817904    0.67893689090226    1.79029447449569
C        -0.36871161092412    3.43159662724191    0.57757704438383
C        -1.73515221550067    3.02393290393022    0.57946516604197
C        -2.10482905318989    2.47374496649918    1.94470505586040
C        -0.74009006694537    2.29678319070823    2.58008901574187
C         0.24120452783925    2.98572039300696    1.80023481351977
C        -3.37922137057418    0.70933825934071    0.57318675537923
C        -3.38893421442333   -0.72837165865591    0.56884469755274
C        -2.76853887592219   -1.15485286560412    1.78716573563990
C        -2.39281498858734    0.03111950140616    2.52473305213351
C        -2.75730358185297    1.14094290391901    1.81047125429295
C        -1.72620932876410   -3.00213083971721    0.57240339999302
C        -0.35669306545034   -3.44169762664989    0.57130350497827
C         0.25897733951993   -2.99318070643928    1.79321056093483
C        -0.74022963931084   -2.28854297258488    2.56724522825533
C        -1.95699671462864   -2.28113354201101    1.80105438883746
C        -0.24681133039184   -3.01669012369259   -1.84069046764692
C         0.74564922291123   -2.29276076134391   -2.59736059415376
C         1.96869553220455   -2.28975431234480   -1.83661503180423
C         1.73252013850231   -3.00932578665554   -0.61189640766829
C         0.36884552173784   -3.45564754652235   -0.61326576525944
C         2.78719641379654   -1.16715982376298   -1.83848627488562
C         2.41211167203068   -0.00263224196655   -2.59753418919612
C         2.79563743807727    1.16314879020093   -1.84196657463687
C         3.40735883098352    0.71448008309502   -0.61664885126522
C         3.39959123038554   -0.71959107589343   -0.61272004940304
C         1.97774699795792    2.28584374574804   -1.83677274693545
C         0.75077972242883    2.28771444491180   -2.59082940897245
C        -0.23815780002345    3.00642874434597   -1.82540270735421
C         0.37032061165072    3.44599622039585   -0.60638667897542
C         1.74182745603234    3.00128104886475   -0.60747996694068
C        -1.55879591019660    2.57095650791363   -1.81212039262436
C        -1.94148413731240    1.40824745138577   -2.57323270092758
C        -2.93855077575506    0.68855127948511   -1.82405938772637
C        -3.17334669805167    1.40223285136365   -0.59949766925561
C        -2.30840260798950    2.57854513219548   -0.58797101113027
C        -2.94334088097438   -0.70495252572586   -1.83448848349195
C        -1.94731224151086   -1.42117019856471   -2.59373148900938
C        -1.56646550606730   -2.58911121155251   -1.83889901407349
C        -2.32410103416965   -2.58808222907156   -0.61119316115286
C        -3.17798651951501   -1.42731880469553   -0.61639473449068
C        -0.99183438957832   -0.72329825310779   -3.31984935258540
C        -0.99041623120506    0.71841924314917   -3.31283617336478
C         0.38094277931853    1.16321142419376   -3.31819367327598
C         1.22634531187040   -0.00125085840124   -3.32352182777110
C         0.37934801730451   -1.16787893041746   -3.32368735126419
Cl       -1.94621052908713   -0.02681772967614    5.21947358055835
Cl       -3.14482438441503    3.63723233394432    2.86646228762122