50
energy: -106.345521736830
C       0.440065606015660     -0.391639236315490     -4.888920872444420
C       0.886809802982400      0.971319664856770     -4.745945607334420
C      -0.275939300966610      1.804540535242300     -4.573464853462930
C      -0.999539728250670     -0.400527302510210     -4.805974507975540
C      -1.442131693224420      0.956486286714240     -4.610856632270370
C      -1.364494736029390     -1.152267404405100     -3.633981115662970
C       0.947034718521720     -1.137652764174190     -3.768234605949510
C      -0.167287811943520     -1.700069785451810     -3.044044021479900
C       1.665147448025610      1.051398046386790     -3.537373858917140
C       1.793938292126240     -0.273542167568670     -2.981582191712950
C      -0.203506076421570      2.390085363223270     -3.261229105669320
C       1.049160310439080      2.010647737011820     -2.653333703411990
C      -2.075547995196740      1.028556036459000     -3.320768928894970
C      -2.124622664495100     -0.297756934310000     -2.754392704215530
C      -1.372501735415410      1.995565017709310     -2.513003125778970
C      -2.034914876066010     -0.468050469711630     -1.365066172043570
C      -0.085476514502230     -1.864856283608480     -1.653489226919190
C      -1.226048389668830     -1.538702986934550     -0.828086301641990
C       1.867668269455840     -0.444335688807730     -1.591276904781300
C       1.139241544147960     -1.524559140851930     -0.964983779524910
C       1.125723587033210      1.830956019128440     -1.264346152824480
C       1.873048712947430      0.715647646628150     -0.729404529087820
C      -1.285982401368950      1.815916623793090     -1.124565695564500
C      -1.953919137887590      0.692600132843510     -0.507351106833070
C      -0.038433366837620      2.085931771652410     -0.446208578319020
C      -1.872248592792540      0.519510375457450      0.882257862367030
C      -1.144408561846240     -1.711747549410150      0.561730974037460
C      -1.870577787182740     -0.816612636965440      1.433660726604600
C       1.220840741432930     -1.697612777572820      0.424313464449500
C       0.078932318288650     -2.213363974444150      1.145188240145630
C       1.954738549588980      0.542554796195890      0.660521105598300
C       2.032086195751790     -0.792883420370760      1.207415367514050
C       0.043159247189960      1.912914774126270      0.943205252967360
C      -1.121580084017640      1.467379208072480      1.674104179996230
C       1.290117740959490      1.482353070030830      1.534364465902840
C      -1.044835724680090      1.300825028534830      3.064773888645170
C      -1.796898520955720     -0.992331484353820      2.823311959679180
C      -1.663877814245350      0.155858266045610      3.687075663073230
C       0.160354443979400     -2.394582918473890      2.533754205336880
C      -0.952770791790580     -2.024937116277520      3.373603935251960
C       2.121811633244620     -0.968257413884230      2.596135891344050
C       1.358829162296350     -2.010395669545910      3.239998904694930
C       1.376893517672710      1.316039618754990      2.924371069796370
C       0.208285709082880      1.517238838871420      3.746855218566240
C       2.076917589507000      0.178694025319140      3.470050428207840
C      -0.886568365527990     -0.220296928470540      4.838418276364530
C      -0.444072591735550     -1.577165492622680      4.643623422896990
C       0.995507838300520     -1.568330360712380      4.559792315981930
C       0.279455782386720      0.627912356102230      4.875506863599260
C       1.442416501671930     -0.205453331406140      4.703850599699200
