62
 energy: -137.533609668042 gnorm: 0.000098162763 xtb: 6.4.1 (a3dbbd7)
C        -1.28860058684859   -0.00973106602425    3.52344414142571
C        -0.37191523488297   -1.19516097966661    3.30585539174933
C         0.96573264367527   -0.73787220353492    3.26280534700624
C         0.94477036455860    0.71625509367868    3.25060955810167
C        -0.36020162140393    1.16682305965208    3.32579773209588
C         2.33349785553098   -2.59184386984340    0.57867229337521
C         3.17455723114049   -1.41838542386777    0.58127130411691
C         2.93379053590960   -0.70411914248570    1.80224235444106
C         1.94461590628858   -1.42827442590139    2.55343830513342
C         1.57554880455314   -2.59649723747891    1.80532786559376
C         3.16943045463720    1.41582048748369    0.57443424299810
C         2.32770357767006    2.58231934998619    0.57210227362384
C         1.56830108199158    2.58355788419684    1.79534094945680
C         1.95737050844539    1.41720642309790    2.55687538119506
C         2.92309979647529    0.69668994515918    1.80550264284654
C        -0.34684576549966    3.43167280019770    0.58559329697186
C        -1.71435100386536    2.97320234631478    0.58769407027376
C        -1.95726970767080    2.28327842435963    1.80989780668489
C        -0.78440263984436    2.46020228892152    2.74505502906033
C         0.26373913860079    3.02700382229819    1.81110639782128
C        -3.37517511773725    0.71172064244189    0.57302786604861
C        -3.38315911759059   -0.72125552107312    0.57342636833294
C        -2.76665893894713   -1.15948284728358    1.81118612027681
C        -2.41504329717902   -0.01871225436473    2.55987048914980
C        -2.74023626136457    1.14241019619699    1.79866876526887
C        -1.73405329339342   -3.01408840095520    0.58517330449321
C        -0.36137027402295   -3.46123574322306    0.57956352132518
C         0.25251225540995   -3.01933037874291    1.80644788233600
C        -0.73928242751724   -2.30520445920496    2.56872730879347
C        -1.97095416902327   -2.31494160800050    1.81197063285103
C        -0.24453622376507   -3.01334092129491   -1.82674334478781
C         0.74563469709005   -2.29051685638634   -2.58185279226996
C         1.97130161806609   -2.29100996220948   -1.82500023956711
C         1.74021597504686   -3.01521867703554   -0.60096784709874
C         0.36758302572830   -3.46027939139245   -0.59992496744953
C         2.78897135297581   -1.16653705426674   -1.82453901717211
C         2.41111726115429   -0.00112914711181   -2.58606065900869
C         2.78876306673598    1.16435915415402   -1.83124796104439
C         3.39858932261739    0.72026425767817   -0.60229941248969
C         3.40248324964241   -0.72355724201312   -0.60245809592664
C         1.97593237213895    2.29134761567006   -1.83554497225828
C         0.74707553019814    2.28822876200119   -2.59244669633167
C        -0.24267091349165    3.00658745882813   -1.83309755583693
C         0.37425827843845    3.44895744977449   -0.60490712908292
C         1.74196062434530    3.01292456257993   -0.61243567304910
C        -1.56233290250643    2.57656859237825   -1.83153447010546
C        -1.94408922026096    1.41338375119101   -2.59225345136964
C        -2.93751205799035    0.69190218110990   -1.83420665575699
C        -3.16295818251576    1.40881683355340   -0.60764681253901
C        -2.31449179570581    2.56791991942970   -0.60291202273058
C        -2.93578864401886   -0.69806296840875   -1.83149154771964
C        -1.94500579063770   -1.41835610970392   -2.58689348443309
C        -1.56654259861810   -2.58457909806501   -1.82426789783301
C        -2.32507599153606   -2.58909898917830   -0.60413867115652
C        -3.16805720881271   -1.41811569486226   -0.60418569073881
C        -0.98874865750677   -0.72384820560192   -3.31620721215369
C        -0.98918527054338    0.71728080121361   -3.31984355899829
C         0.38284596964831    1.16298511705184   -3.32002694291616
C         1.22836356989862   -0.00287247446612   -3.31601312819122
C         0.38198210992908   -1.16811165046710   -3.31600252796108
Cl       -1.93306381928479   -0.00529130354904    5.23695453484029
Cl       -1.19665858874105    3.68145973639752    4.06679401030422
