62
 energy: -137.552600483122 gnorm: 0.000128988243 xtb: 6.4.1 (a3dbbd7)
C        -1.30060396625684    0.01099309565943    3.52334481018542
C        -0.35782816782101   -1.15746725587344    3.29698651978782
C         0.94988924611434   -0.71366356653402    3.26936324576826
C         0.96884873660266    0.72505922192854    3.26144564504366
C        -0.38131686159490    1.18891177204566    3.30031843700341
C         2.31434783093153   -2.57308559173569    0.57612688603411
C         3.15600557315106   -1.40260552682725    0.57910537212746
C         2.94727441485323   -0.69364292640526    1.79986120514056
C         2.08093036101180   -1.51806879200112    2.72662453002719
C         1.57403336987890   -2.59842969372366    1.79737788738124
C         3.16518009767192    1.40302663564800    0.57492179099226
C         2.32116702455091    2.57267913147287    0.57845517345134
C         1.56878352380163    2.57626558925567    1.80961661879147
C         1.94381424208470    1.42683912524880    2.56499000231905
C         2.92993353871479    0.68028278264057    1.79362684309149
C        -0.36805840465382    3.44674754514245    0.58610972560875
C        -1.74381549853581    3.00905795638554    0.58360819857907
C        -1.99030185729955    2.30129185926200    1.80520619249413
C        -0.74535502255913    2.29071994124364    2.56633499073806
C         0.24189350489195    3.01076876394834    1.80816539718429
C        -3.40856853821451    0.73141218665969    0.57123501146829
C        -3.39446682974674   -0.70549450418742    0.57685250089926
C        -2.76720914639202   -1.13095849990206    1.81806067820322
C        -2.42707588589920    0.00276078637478    2.55040709924037
C        -2.79026458318139    1.16949130865907    1.80014112246151
C        -1.71703806212156   -2.99732395423366    0.58295523330564
C        -0.35175706171909   -3.45024559570885    0.57315962218220
C         0.26279986834403   -3.00231571847271    1.79109310923437
C        -0.75144610864516   -2.29609251089571    2.56999992812261
C        -1.94556879843534   -2.28885285050750    1.82730790707198
C        -0.24266743204022   -3.01502970357658   -1.83670482068171
C         0.74563119398856   -2.29006185630495   -2.59595583871292
C         1.97348184038234   -2.28904942832849   -1.83997337380274
C         1.73602993045557   -3.00945772052409   -0.61220013920543
C         0.37289791500184   -3.45850346828785   -0.61432859432127
C         2.78552512250439   -1.16614120201590   -1.83642794122195
C         2.40750784764924    0.00289386659446   -2.59379492706665
C         2.78820489988500    1.16599212168616   -1.83599596548568
C         3.39904410787261    0.71694670635671   -0.61087747673196
C         3.39578387255389   -0.71751181284670   -0.60942879982663
C         1.96743111937120    2.28803482819550   -1.82923879676539
C         0.74374938064245    2.28947773872955   -2.58299913862188
C        -0.24992487081820    3.01218501311671   -1.82096691981351
C         0.36129347444473    3.45324500209177   -0.59937319340502
C         1.73246773290473    3.00488667491888   -0.59948520000567
C        -1.57337183148804    2.58667509236865   -1.82603611530791
C        -1.95069993716341    1.42040520791288   -2.58739253329256
C        -2.94592009010721    0.70195815264411   -1.83179823140941
C        -3.18463437641002    1.42543808123172   -0.60970353343565
C        -2.33472723523703    2.58925376520763   -0.60686166572262
C        -2.93942552757008   -0.68773256320146   -1.82301346101568
C        -1.94505854141365   -1.41099276808716   -2.57812158621753
C        -1.56237307050521   -2.57610410251830   -1.82207692574762
C        -2.30854878095558   -2.57267554812162   -0.59271078004910
C        -3.16626623851472   -1.39909400949391   -0.59463727882874
C        -0.99339997045424   -0.71733127502831   -3.31225175146239
C        -0.99503343791785    0.72469073612689   -3.31327276076299
C         0.37720503084236    1.16863922045994   -3.31548920730581
C         1.22353906697964    0.00361315877707   -3.31993042164499
C         0.37720083507833   -1.16385156206929   -3.31879658430823
Cl       -1.93461544795381   -0.00572961556159    5.23155132887411
Cl        3.05909890264190   -2.23358077691448    4.09197538342133
