64
 energy: -146.703216958776 gnorm: 0.000145357366 xtb: 6.4.1 (a3dbbd7)
C        -1.29939414329735    0.01156796239221    3.54762147622871
C        -0.36222899655026   -1.14568397478054    3.24089768733105
C         0.91819776808659   -0.71937079214690    3.20785137683837
C         0.95187456496522    0.73255781967996    3.22996554743754
C        -0.39153032370849    1.19008948623052    3.26997104485889
C         2.30434899115964   -2.56383634774570    0.57254509923660
C         3.15221915250289   -1.39807488517029    0.57552776282177
C         2.94397288395191   -0.69224294943706    1.79512528982905
C         2.07822092330252   -1.52238046152134    2.72234844918616
C         1.56504902026988   -2.59912070962324    1.79372118699988
C         3.16603692206561    1.40733730776109    0.57328970884763
C         2.32454379834878    2.57983600879836    0.57477737080762
C         1.56824109557871    2.58705165205555    1.80143563579664
C         1.93196923763346    1.42801178067242    2.55024096098793
C         2.92914937607603    0.68222442488519    1.78851766067517
C        -0.36758137375931    3.45350617898014    0.57110821383790
C        -1.73973483691460    3.01093247884548    0.56613953610166
C        -1.98726029779105    2.30008685122315    1.78940418400769
C        -0.74731122716983    2.30901712051182    2.56141538244526
C         0.23963851606905    3.01742863982870    1.80112720181339
C        -3.35666638121121    0.72894777219012    0.56884963517885
C        -3.33902753508433   -0.70886378084571    0.57082631474256
C        -2.74308219731629   -1.15428420437663    1.79132716023451
C        -2.62823326338928    0.01350717363318    2.74682886041808
C        -2.77994651376592    1.18237872888847    1.79085098578989
C        -1.71251286397863   -2.96537456604383    0.57067204986468
C        -0.34755674143507   -3.42054439148308    0.57169183948269
C         0.26399099483540   -3.02036471626923    1.79857084455316
C        -0.79618997436487   -2.47407290781832    2.73985448124008
C        -1.96019487705779   -2.27115298151947    1.79552444927429
C        -0.23948464362668   -3.00113217480487   -1.84951588162083
C         0.75135131932364   -2.28276758623120   -2.60746578801482
C         1.97621360484150   -2.28178110670094   -1.84573727847280
C         1.73377158977635   -2.99791916177189   -0.61913319782882
C         0.37228517133808   -3.43825980857613   -0.61912298808601
C         2.78991455697946   -1.15885762976582   -1.84207192968132
C         2.41480824629000    0.00715391178131   -2.60033126522875
C         2.79328944592115    1.17141263324634   -1.83900810447799
C         3.40205116679786    0.72164649705013   -0.61342091202826
C         3.39630005762491   -0.71208408104869   -0.61233951118286
C         1.97373853869364    2.29242416284433   -1.83328262957729
C         0.75014903699701    2.29453621057392   -2.59255857698134
C        -0.24269559722045    3.01506087500700   -1.83733967122270
C         0.36508298602472    3.45659458568654   -0.60778789086215
C         1.73735603343370    3.00958955545723   -0.60564522730998
C        -1.56487840785359    2.59110709856781   -1.84655942828424
C        -1.94053394817106    1.42454225413584   -2.60654423706097
C        -2.92986091133504    0.70265247940155   -1.84863828304843
C        -3.15905654796628    1.42387810272436   -0.62081784981037
C        -2.32499982836441    2.58955490203100   -0.62320826571367
C        -2.92845135953701   -0.68422399485631   -1.84853283234534
C        -1.93916381221872   -1.40783777014535   -2.60927419437120
C        -1.55879750062798   -2.57127450857983   -1.85061985099445
C        -2.30600646948551   -2.55962147599084   -0.61865265290276
C        -3.14488398501998   -1.40074719130244   -0.61789714432915
C        -0.98300690957292   -0.71211578943800   -3.33876916945777
C        -0.98318091497331    0.72966710301763   -3.33503187986518
C         0.38715651479159    1.17382310182143   -3.32997115479098
C         1.23421114093748    0.00860732777455   -3.33235381445589
C         0.38714421088638   -1.15781864196153   -3.33745267934452
Cl       -1.57696965563550   -0.03341203976326    5.33532695099617
Cl       -4.08887656674985    0.00376449058054    3.81245300834699
Cl        3.01847699012983   -2.18655983421361    4.11536643529712
Cl       -1.18834728007155   -3.61777570058404    4.08352778687659
