63
 energy: -142.063601215688 gnorm: 0.138175514549 xtb: 6.4.1 (a3dbbd7)
C        -1.32333194775417    0.00617886347970    3.59125188963251
C        -0.38909456310608   -1.27772716531095    3.58793274117145
C         0.98734837171535   -0.72675165446744    3.28582848483634
C         0.97037352147027    0.69420630050098    3.25749094477592
C        -0.37633960723915    1.14742685553706    3.29074190055216
C         2.33092254703306   -2.58746567485154    0.56610397604514
C         3.16875994483946   -1.41579758165486    0.56774606192583
C         2.91978889080344   -0.69314490348597    1.79074016083681
C         1.93018806170321   -1.40549148670748    2.54814074589443
C         1.57476788296703   -2.59634073810083    1.79100274817011
C         3.18328087896891    1.41909085132624    0.57258499213333
C         2.33432229320876    2.58580968143883    0.57559918777772
C         1.57332139543398    2.57095369604789    1.79851755002390
C         1.94352282881158    1.40414426944103    2.54285112768194
C         2.93804115459266    0.69543633516321    1.79366637265872
C        -0.36752716666001    3.44413435035873    0.58029879258012
C        -1.74013210357057    3.00741588983283    0.58054459941955
C        -1.97818665379860    2.28654468588757    1.80361199533287
C        -0.73393250395930    2.25581684802015    2.55761528373596
C         0.24647420110131    2.98080949443068    1.80023381740862
C        -3.39591089216029    0.72883802558845    0.57533866561121
C        -3.37932885665645   -0.70504006359254    0.57786353554246
C        -2.74934612856665   -1.12865052488571    1.82052481704193
C        -2.40026274086307   -0.01382700939334    2.55826017594831
C        -2.77435746218519    1.16021035149421    1.80187148511327
C        -1.70577977915925   -3.00504292266898    0.57191390059864
C        -0.34657433486683   -3.46193150719564    0.56452064530943
C         0.25810980605866   -3.00738238851431    1.79111395103090
C        -0.74203335365356   -2.29289841924391    2.55243835495534
C        -1.91196172287597   -2.27950749485726    1.81757326885181
C        -0.23558165862281   -3.01371296632646   -1.83961821271520
C         0.75175047781152   -2.28700579367404   -2.59867644532734
C         1.98089777627659   -2.28868303835222   -1.84308617931945
C         1.74918768154887   -3.01946296828987   -0.62050040464920
C         0.38088379041600   -3.46658963937948   -0.62079308111870
C         2.79204993046375   -1.16413556659148   -1.83875967224219
C         2.41002754086118    0.00666527739579   -2.59106683151125
C         2.78807241943814    1.16926264052202   -1.83130610074559
C         3.40298548527550    0.72369088805355   -0.60835037131266
C         3.40110069057525   -0.71955382898331   -0.60923004493565
C         1.96912615256614    2.29475463280888   -1.82840259178522
C         0.74474441569639    2.29528025280401   -2.58515694980539
C        -0.24988429155059    3.01642431380723   -1.82795956514323
C         0.36353023978106    3.45499162487799   -0.59844520421847
C         1.73735095077191    3.01278425815446   -0.60243935985793
C        -1.56944867307335    2.59059487249377   -1.83048045584010
C        -1.94787757007795    1.42311330884846   -2.58910001301826
C        -2.94122296022124    0.70465889669871   -1.83002690890673
C        -3.17947337159538    1.42642572884929   -0.60816005298080
C        -2.33307692209202    2.59081264516620   -0.60600270171083
C        -2.93172079240255   -0.68656028280689   -1.82266620418654
C        -1.94059925011627   -1.40887980593779   -2.58138532694875
C        -1.55636984787224   -2.57670213587000   -1.82754179967090
C        -2.29848528094837   -2.57416283302738   -0.59738768824741
C        -3.15456863482430   -1.39758782868201   -0.59434922362650
C        -0.98936986995949   -0.71482485845558   -3.31408037280858
C        -0.99159024528376    0.72723605185279   -3.31429029098428
C         0.38014149579772    1.17201579903766   -3.31523274930469
C         1.22728121177112    0.00778684511203   -3.31823795360647
C         0.38205649969615   -1.16057927312445   -3.31917058806611
Cl       -2.09995733548554    0.29360223981566    5.20530702406437
Cl       -0.35034641589922   -2.11046483688082    5.19906768498811
Cl        0.56680232439222    1.75704369109951   -5.01787778000782
63
 energy: -142.087697771769 gnorm: 0.060288480387 xtb: 6.4.1 (a3dbbd7)
C        -1.32360624391083    0.00666158743437    3.59124027544171
C        -0.38940929194746   -1.27757396664040    3.58797927187190
C         0.98742848327190   -0.72737157794079    3.28648335645456
C         0.97063103768018    0.69360301674424    3.25885251473365
C        -0.37612703664578    1.14757133632101    3.29155520281297
C         2.32994375637573   -2.58862343824916    0.56757778486132
C         3.16763282795553   -1.41619086112179    0.56894398453790
C         2.92096431579988   -0.69396357401069    1.79211960302649
C         1.93007022196887   -1.40589531328904    2.54845964561570
C         1.57450017136902   -2.59699452218124    1.79200069336537
C         3.18435773169250    1.42077728039449    0.57723263608265
C         2.33779562027388    2.58967479681622    0.58424451592352
C         1.57507993109410    2.57291216546609    1.80516773245348
C         1.94439858648486    1.40349428245164    2.54591525610685
C         2.93892482256253    0.69530317243100    1.79583348849490
C        -0.36613628167661    3.44814546348153    0.58823724307851
C        -1.73946262858202    3.00916751076861    0.58580757523778
C        -1.97690502555927    2.28854816421100    1.80438019175492
C        -0.73317086827749    2.25668813451773    2.56019276862104
C         0.24846625350213    2.98298547427789    1.80663566966622
C        -3.39494684620071    0.72678318394244    0.57619710470543
C        -3.38015358603735   -0.70782143551652    0.57900327778000
C        -2.75069201633587   -1.13002507380249    1.82034217092576
C        -2.39988190458715   -0.01201296673529    2.55741921115035
C        -2.77414519936099    1.15945152949234    1.80318004217920
C        -1.70705041090560   -3.00673418617783    0.57367987589955
C        -0.34756494362889   -3.46369137275450    0.56681644026631
C         0.25683489574773   -3.00782813878120    1.79241865551252
C        -0.74283403345394   -2.29303661059035    2.55309217996738
C        -1.91372470482243   -2.27975151879580    1.81869888836551
C        -0.23660638196554   -3.01952088348112   -1.83688310095426
C         0.75403576722055   -2.29490309823403   -2.59410593097411
C         1.98179645954826   -2.29647668872992   -1.84162747312595
C         1.74855940425254   -3.02331714731619   -0.61834074696386
C         0.37996221503675   -3.47078262257400   -0.61838638255697
C         2.79384668629361   -1.16999770846293   -1.83624981684140
C         2.40324876163691   -0.00023326156291   -2.57977139378524
C         2.78686257994369    1.17051562653297   -1.82483919004171
C         3.40090640918097    0.72426781051645   -0.60673764251852
C         3.39949415372123   -0.72047035630343   -0.60810781912873
C         1.96300306816735    2.29628291957010   -1.81445592254694
C         0.75070511670054    2.31951569032348   -2.57658820990737
C        -0.24371081045639    3.01271553002832   -1.81490153598440
C         0.36735071256486    3.46211071499987   -0.58615279009502
C         1.73976383775982    3.02039107644399   -0.58997435128939
C        -1.56999351516555    2.58904736614184   -1.82305163290611
C        -1.94807755215574    1.41279188808759   -2.57732297204644
C        -2.94759342985318    0.69921709211236   -1.82776710269219
C        -3.17877730269449    1.42309528776164   -0.60674011765311
C        -2.33124278245211    2.58943912907573   -0.60527199025032
C        -2.93766445522775   -0.69354403131891   -1.82138171850184
C        -1.94601924061583   -1.41493462794022   -2.57683779571589
C        -1.55758929792657   -2.58187582006175   -1.82517920426735
C        -2.30061829441926   -2.57803006697911   -0.59509205654429
C        -3.15763588633674   -1.40249605506531   -0.59286746528160
C        -0.99019624308793   -0.71650716884813   -3.30225352289094
C        -1.00117957775299    0.71736984807482   -3.30275698579992
C         0.38983275748128    1.20571310191238   -3.41675052105319
C         1.22917076144801   -0.00526282039774   -3.30738467054444
C         0.38275087992808   -1.16261212455665   -3.30750297822853
Cl       -2.10016122597653    0.29408413150314    5.20493945046428
Cl       -0.35065361552760   -2.11039947568878    5.19896280691466
Cl        0.57875033163026    1.79880947690598   -5.15981071613542
63
 energy: -142.093811354548 gnorm: 0.014478085742 xtb: 6.4.1 (a3dbbd7)
C        -1.32330992270858    0.00642149259682    3.59319221877188
C        -0.38980733434970   -1.27820459884233    3.59067733830329
C         0.98717163228666   -0.72812626195824    3.29012236944606
C         0.97122444469115    0.69298092330336    3.26314534919708
C        -0.37554159865805    1.14754315720675    3.29501091838714
C         2.32854445479066   -2.58972816625465    0.57041331296199
C         3.16575302478423   -1.41629949526505    0.57149175254340
C         2.92094075508659   -0.69493228832153    1.79553735024977
C         1.92920089678512   -1.40633616801134    2.55126547295605
C         1.57333557046992   -2.59697248268421    1.79442837448656
C         3.18483102095620    1.42115897508581    0.58213172661410
C         2.33859860085105    2.58935124189575    0.58984988176666
C         1.57713055462814    2.57426745380313    1.81191293122631
C         1.94532580167796    1.40289117900543    2.55120176329375
C         2.93887560621525    0.69460152971053    1.79931166443146
C        -0.36438632949462    3.44679673965719    0.59310808126322
C        -1.73826017322879    3.00826247127122    0.59126219453642
C        -1.97463687523330    2.28860772914387    1.80590052403767
C        -0.73190104287444    2.25720783286980    2.56488872592783
C         0.25041511714817    2.98466535621609    1.81324687892645
C        -3.39330171243558    0.72421987550069    0.57825727743769
C        -3.38086543903807   -0.71121690589332    0.58166520750620
C        -2.75130951875816   -1.13230139899138    1.82163505624067
C        -2.39867560375367   -0.01118303049610    2.55833912662568
C        -2.77272460614538    1.15694866661325    1.80620783771141
C        -1.70844004266439   -3.00976303906817    0.57723569688090
C        -0.34887331749658   -3.46613131895276    0.57089551401604
C         0.25519540958928   -3.00856905880438    1.79553265139411
C        -0.74352584271270   -2.29378515794348    2.55626983697507
C        -1.91520801389590   -2.28088397437536    1.82181599969402
C        -0.23722922337378   -3.02156534685610   -1.83334370621302
C         0.75420542168445   -2.29443719715592   -2.58924259428045
C         1.97788807701585   -2.29760222332704   -1.83784507101567
C         1.74756857364585   -3.02642120741474   -0.61515997351771
C         0.37853059797044   -3.47367193902418   -0.61487480849101
C         2.78571692715147   -1.16707798355737   -1.83193045934520
C         2.39509544192644   -0.00017309350635   -2.57940476037258
C         2.78741273849751    1.17256432151137   -1.82339321915066
C         3.39612224101475    0.72539744532658   -0.60566294156429
C         3.39501673563312   -0.71985782457820   -0.60555930884775
C         1.95442289316979    2.29181083746347   -1.81156137006741
C         0.74918059352398    2.32113600498569   -2.57048817719584
C        -0.23840904688968    3.00229360805576   -1.81327912570462
C         0.36846365553985    3.45820678273582   -0.58084255933966
C         1.73855658609882    3.01754153346928   -0.58465501742332
C        -1.57148375187031    2.58930357315148   -1.82101991096272
C        -1.94349628873855    1.40754127126135   -2.57696439317321
C        -2.94131110395160    0.69507466953568   -1.82409475668097
C        -3.17487613010125    1.41901535818859   -0.60405387842347
C        -2.32593288828898    2.58615384239679   -0.60542173553399
C        -2.93686730378697   -0.69804718255231   -1.81809071136846
C        -1.94562909124175   -1.41550162487269   -2.57188800020944
C        -1.55763635564997   -2.58394488670864   -1.82210235717502
C        -2.30209802533343   -2.58188769360231   -0.59170693415035
C        -3.16034278175875   -1.40731724770409   -0.59041444238126
C        -0.98765798884437   -0.70950478705041   -3.29289545413328
C        -1.00404764228619    0.71672877816423   -3.30605817632129
C         0.39753434589893    1.23346314332076   -3.50861327120102
C         1.23052715457335   -0.00663151557722   -3.31100212690929
C         0.38508566204708   -1.15532510152573   -3.29850258146916
Cl       -2.10206932701013    0.29402927213615    5.20512520900703
Cl       -0.35299975814533   -2.11112647030391    5.20162649084064
Cl        0.58852147011387    1.83659688022983   -5.26411715398750
63
 energy: -142.094137623036 gnorm: 0.008629795386 xtb: 6.4.1 (a3dbbd7)
C        -1.32311107925610    0.00622405594849    3.59445728852837
C        -0.38998425168959   -1.27844791239637    3.59237212439400
C         0.98725468392606   -0.72842772164795    3.29257240044609
C         0.97193330184384    0.69286743560965    3.26563291062241
C        -0.37499871398525    1.14757611513292    3.29705496879899
C         2.32745155888340   -2.58958246181003    0.57199555767930
C         3.16423285850062   -1.41581206017647    0.57262449649051
C         2.92087414443682   -0.69528421466993    1.79751578520539
C         1.92891330261539   -1.40663959799585    2.55321489723008
C         1.57273566254279   -2.59702008888602    1.79612745317254
C         3.18511127931734    1.42089002455032    0.58366585163211
C         2.33849340526084    2.58831172116687    0.59083230359455
C         1.57814285280241    2.57440174509129    1.81386908091221
C         1.94615115993072    1.40278994503347    2.55357320501331
C         2.93905615716757    0.69418194623576    1.80091177705480
C        -0.36338822675746    3.44477265442786    0.59387545647415
C        -1.73758818783391    3.00691031120326    0.59300406084725
C        -1.97349582318870    2.28788078834086    1.80663877228759
C        -0.73115827041796    2.25730934056562    2.56694622072789
C         0.25135612193866    2.98484818369079    1.81517929234341
C        -3.39180117903502    0.72283054746316    0.57910994797113
C        -3.38075105944700   -0.71282496833418    0.58309374364035
C        -2.75175113208796   -1.13389469345503    1.82283288389565
C        -2.39813063137132   -0.01149282790737    2.55918458608790
C        -2.77172364752185    1.15535233432901    1.80772832173090
C        -1.70926989269125   -3.01151072152822    0.57903243360498
C        -0.34951975792311   -3.46736007738552    0.57289137104863
C         0.25448533104437   -3.00920954698529    1.79737579787201
C        -0.74380419601805   -2.29441378117614    2.55822465255918
C        -1.91602880048589   -2.28202046891307    1.82366423131772
C        -0.23743985802487   -3.02072324616018   -1.83145656106358
C         0.75302341017141   -2.29161150235757   -2.58745123766677
C         1.97530811569838   -2.29592604544454   -1.83608260647101
C         1.74676825104495   -3.02658437832705   -0.61352993279671
C         0.37787241269822   -3.47414010084414   -0.61316766053030
C         2.78030740882582   -1.16377412775240   -1.83056891084775
C         2.39367239789811    0.00187749342405   -2.58333353483358
C         2.78921371444773    1.17358089045661   -1.82426413776174
C         3.39465268331744    0.72613873630712   -0.60529775862995
C         3.39150855782542   -0.71871274314352   -0.60448158469028
C         1.95262282211524    2.28982071184746   -1.81424284803914
C         0.74715997592374    2.31664301583280   -2.57146751544043
C        -0.23737231421114    2.99836470942464   -1.81634381163538
C         0.36826437039824    3.45367162381345   -0.58072503555711
C         1.73748884761455    3.01384321040931   -0.58470478081470
C        -1.57319620286089    2.59035314493691   -1.82170429645184
C        -1.94216929482375    1.40807469760322   -2.58097510063039
C        -2.93606412186443    0.69371193648462   -1.82303810185062
C        -3.17164241621464    1.41686823714472   -0.60296024822712
C        -2.32372870239924    2.58483095028078   -0.60547048431373
C        -2.93486719296668   -0.69893454027697   -1.81666088842247
C        -1.94341987891018   -1.41441336018796   -2.57023706119031
C        -1.55718877851694   -2.58354172713829   -1.82046262901756
C        -2.30267242401981   -2.58338671174460   -0.59019882116406
C        -3.16092754683490   -1.40898576348711   -0.58921777810250
C        -0.98665016464105   -0.70595109643427   -3.29237827453886
C        -1.00395780368607    0.71997088476064   -3.31528575227190
C         0.39874313930835    1.23887390035752   -3.53156966802814
C         1.23189751003090   -0.00345399478321   -3.32038986590423
C         0.38600476563379   -1.15154139545225   -3.29809854086479
Cl       -2.10378392876059    0.29364795019647    5.20524838621024
Cl       -0.35563658633785   -2.11074412107715    5.20383509924200
Cl        0.59005978636732    1.84720203044205   -5.28000417383173
63
 energy: -142.094242455780 gnorm: 0.004756775470 xtb: 6.4.1 (a3dbbd7)
C        -1.32307670765027    0.00626405432060    3.59467573865976
C        -0.38998714701159   -1.27843903836677    3.59295838156396
C         0.98736123854919   -0.72848476676796    3.29336576134801
C         0.97235480798813    0.69294100551474    3.26643909173716
C        -0.37473917395944    1.14773774463469    3.29751772576734
C         2.32693356521281   -2.58943501611008    0.57265471389222
C         3.16375091379972   -1.41563630537436    0.57289790709229
C         2.92099775852222   -0.69539884925429    1.79807650251917
C         1.92885398040331   -1.40671863997824    2.55375036140732
C         1.57258997374599   -2.59706455422451    1.79684697468546
C         3.18570622671062    1.42078336830689    0.58422172194363
C         2.33866388330285    2.58784431936617    0.59100141767104
C         1.57865164445453    2.57447797436632    1.81426947722594
C         1.94670853600867    1.40285463794947    2.55437606740395
C         2.93933941663387    0.69399142310171    1.80139967899320
C        -0.36295750883844    3.44385106083822    0.59384305024047
C        -1.73763118040704    3.00637645085122    0.59372356548811
C        -1.97310403635704    2.28774163530157    1.80659962426342
C        -0.73088416685277    2.25752599661236    2.56748251421175
C         0.25180883354724    2.98498246338744    1.81554033971156
C        -3.39130723552199    0.72225901088926    0.57924886345734
C        -3.38081578736033   -0.71359455855389    0.58371777719631
C        -2.75226206727933   -1.13484330903192    1.82322544593568
C        -2.39790048024945   -0.01139433348264    2.55913398869982
C        -2.77129296276442    1.15451158789691    1.80824815074155
C        -1.70982717155914   -3.01248651316543    0.57980311031659
C        -0.34986041887692   -3.46805995204149    0.57379821197528
C         0.25414959869399   -3.00949975448331    1.79819090719243
C        -0.74380894915044   -2.29458943647073    2.55892023678874
C        -1.91660883548712   -2.28253264484069    1.82439784766100
C        -0.23756677841685   -3.02008034503552   -1.83027968544235
C         0.75217804628433   -2.28984051043410   -2.58616523489490
C         1.97417269199098   -2.29511579059421   -1.83520432217066
C         1.74649979471584   -3.02680552139365   -0.61269080643117
C         0.37769639032133   -3.47445408935859   -0.61231876026749
C         2.77730535764936   -1.16203505282862   -1.82995072430085
C         2.39310490528473    0.00297403530545   -2.58511619529710
C         2.79120856817406    1.17407997584214   -1.82453797107616
C         3.39477939707005    0.72650937792605   -0.60508323772762
C         3.38963863763447   -0.71805695466125   -0.60407187502284
C         1.95213909595622    2.28833252523371   -1.81597126256116
C         0.74541772060505    2.31210900243339   -2.57129039120195
C        -0.23710033553047    2.99579731892864   -1.81847263545837
C         0.36806272023018    3.45058848229376   -0.58084383098423
C         1.73677034691022    3.01137162423112   -0.58497151609381
C        -1.57507508932288    2.59146206926828   -1.82191577130995
C        -1.94160210366134    1.40852141595183   -2.58285622942319
C        -2.93324134157361    0.69290515711617   -1.82261794037375
C        -3.16995403942959    1.41574791249773   -0.60253138891565
C        -2.32319601846515    2.58462568090929   -0.60566704811388
C        -2.93403966255836   -0.69926707747149   -1.81597876382617
C        -1.94193575581930   -1.41373616996084   -2.56908715964916
C        -1.55689113290713   -2.58314073217168   -1.81945048573027
C        -2.30327685866863   -2.58413699764813   -0.58948758255152
C        -3.16151786957753   -1.40986058716054   -0.58862791758161
C        -0.98612354288797   -0.70403704783801   -3.29151880720987
C        -1.00351959198800    0.72218353834157   -3.32024706286765
C         0.39913700447559    1.24083985101651   -3.54111502688103
C         1.23268730466193   -0.00117690810746   -3.32548987005210
C         0.38650531184969   -1.14951116639179   -3.29727211563745
Cl       -2.10563951809072    0.29505838860257    5.20415813069324
Cl       -0.35530275245963   -2.11201598373746    5.20400145970730
Cl        0.59041047404269    1.85245479233691   -5.27913737009016
63
 energy: -142.094279272180 gnorm: 0.002595549779 xtb: 6.4.1 (a3dbbd7)
C        -1.32265357908637    0.00633584925906    3.59377914804922
C        -0.38991701438929   -1.27784388343512    3.59210169302419
C         0.98762338539544   -0.72820141293709    3.29314063128046
C         0.97271028692439    0.69324517523612    3.26604275927003
C        -0.37442236586033    1.14805968621154    3.29710284258343
C         2.32684386589901   -2.58931757023124    0.57267975419185
C         3.16396310111038   -1.41564277385539    0.57275789937344
C         2.92133392932319   -0.69532274955185    1.79794694047769
C         1.92905569327744   -1.40661029915290    2.55361695854935
C         1.57266532501069   -2.59692674066119    1.79685241044731
C         3.18631125976760    1.42083052182581    0.58409061313630
C         2.33906921619804    2.58791867064729    0.59073474579349
C         1.57892205731449    2.57464556065937    1.81382509177454
C         1.94712317410360    1.40309764697271    2.55409703058114
C         2.93973886158589    0.69405272534501    1.80120132462484
C        -0.36287185585723    3.44382018301615    0.59350829590586
C        -1.73794072156096    3.00638899201783    0.59383319813425
C        -1.97303668809004    2.28797056806006    1.80624410876363
C        -0.73074899211905    2.25783869015001    2.56723152097055
C         0.25204024005539    2.98514750542864    1.81512614028120
C        -3.39145473163535    0.72222439422007    0.57904369992411
C        -3.38097094392953   -0.71379351607383    0.58365512945837
C        -2.75255070185902   -1.13516830634506    1.82289349691415
C        -2.39783361804856   -0.01112788500004    2.55861558231382
C        -2.77120915858119    1.15426464761963    1.80823573180918
C        -1.71003327038716   -3.01278024473671    0.57969861340738
C        -0.34995280543278   -3.46824677126870    0.57380707126147
C         0.25402730962207   -3.00940191919379    1.79814008754878
C        -0.74378181085300   -2.29453576556425    2.55869591693836
C        -1.91685356576302   -2.28251274783816    1.82414382668345
C        -0.23761799077798   -3.01991604965226   -1.82999198458533
C         0.75187769481390   -2.28937775750181   -2.58571125783709
C         1.97408912959702   -2.29512275481095   -1.83508091409923
C         1.74656858890025   -3.02703826754126   -0.61253464314972
C         0.37778260534699   -3.47462259479471   -0.61223748198651
C         2.77645089311661   -1.16167853004956   -1.82989529807123
C         2.39280134800458    0.00305494557774   -2.58520874784370
C         2.79234484411870    1.17413378036029   -1.82447198539746
C         3.39553972713668    0.72655044410618   -0.60516757442721
C         3.38929866478249   -0.71792359253624   -0.60413770092351
C         1.95205936760217    2.28742326017395   -1.81638833307957
C         0.74426734033683    2.30909424152327   -2.57023211434745
C        -0.23709508158241    2.99437130687416   -1.81919261751073
C         0.36803592904130    3.44941424034314   -0.58093895619131
C         1.73652509436872    3.01053070504168   -0.58519155719643
C        -1.57632056067897    2.59201302519416   -1.82176920763565
C        -1.94150187774474    1.40842189074433   -2.58295093616084
C        -2.93261194304838    0.69250424358817   -1.82263650657824
C        -3.16969336345951    1.41542548461810   -0.60254242510744
C        -2.32353705456700    2.58489459876242   -0.60593962635495
C        -2.93416975154768   -0.69941553698656   -1.81597225064349
C        -1.94149829256912   -1.41365533371664   -2.56873293160810
C        -1.55681684330595   -2.58304265808672   -1.81926706938024
C        -2.30369079082865   -2.58436093781944   -0.58951280811954
C        -3.16200197927083   -1.41022704760141   -0.58864302682646
C        -0.98600190008165   -0.70353301334448   -3.29067439564083
C        -1.00319196748055    0.72283596072194   -3.32106334349207
C         0.39925015513171    1.24144624852329   -3.54373832657752
C         1.23279459149531   -0.00039712439176   -3.32642991288803
C         0.38664322885649   -1.14898878490764   -3.29643975150552
Cl       -2.10313207677272    0.28995982425056    5.20495446536403
Cl       -0.35950355333205   -2.10751551875814    5.20535169289196
Cl        0.59039786701068    1.85458834590527   -5.27193897951543
63
 energy: -142.094279907016 gnorm: 0.002593529175 xtb: 6.4.1 (a3dbbd7)
C        -1.32319785915635    0.00670155445494    3.59436852190927
C        -0.38986992806167   -1.27820256994396    3.59258739573974
C         0.98737305716843   -0.72826325647716    3.29273133260239
C         0.97241118080022    0.69318740941592    3.26578321470005
C        -0.37471582747003    1.14802924687154    3.29660450376222
C         2.32692726311441   -2.58934140768641    0.57244597101431
C         3.16430283693412   -1.41576881081926    0.57258398051557
C         2.92140116868087   -0.69529751001903    1.79768354704525
C         1.92891008242865   -1.40651456917720    2.55315948156894
C         1.57279543993404   -2.59684454607425    1.79653839294448
C         3.18654305524670    1.42078724154903    0.58402951868483
C         2.33929218220952    2.58802058321032    0.59068994249317
C         1.57878529801493    2.57454231798957    1.81347299684986
C         1.94686150332839    1.40298204760054    2.55380539026660
C         2.93971210562081    0.69403774089969    1.80105416857858
C        -0.36300422272448    3.44409851207165    0.59322304017775
C        -1.73836715737706    3.00665507393208    0.59365941035648
C        -1.97319118216671    2.28835849426530    1.80575604511801
C        -0.73087578125704    2.25777456065684    2.56662778516650
C         0.25196719984609    2.98509801300676    1.81464410892586
C        -3.39170963929031    0.72232943647064    0.57875626087403
C        -3.38097022878018   -0.71379053930324    0.58356388431516
C        -2.75258710983182   -1.13513309826974    1.82271961417396
C        -2.39758038250055   -0.01064013690044    2.55820427478260
C        -2.77109889619147    1.15424944541033    1.80792268044699
C        -1.71002221837662   -3.01257397555701    0.57955870610202
C        -0.34995363440229   -3.46807064513004    0.57354785156523
C         0.25401444503573   -3.00898988394871    1.79772224239271
C        -0.74348927625076   -2.29419491143907    2.55838226873393
C        -1.91684194912417   -2.28221018585577    1.82398771239680
C        -0.23767461516781   -3.02002648990875   -1.83007449168725
C         0.75185452998764   -2.28959089664967   -2.58568183802367
C         1.97439703876117   -2.29548778333828   -1.83524594977960
C         1.74672133394428   -3.02730341979791   -0.61268874364421
C         0.37788485118162   -3.47469167661003   -0.61241512518634
C         2.77660614639463   -1.16195239307007   -1.82998459311170
C         2.39264667509870    0.00268704531856   -2.58459275707133
C         2.79277760030192    1.17397946482543   -1.82412237597325
C         3.39622033177219    0.72640039081860   -0.60514084172133
C         3.38962815554285   -0.71807548777950   -0.60426044135023
C         1.95207083952177    2.28689215404752   -1.81590502490961
C         0.74356183250908    2.30725183486489   -2.56876987962111
C        -0.23715629697850    2.99365090951852   -1.81906662382228
C         0.36807409944332    3.44929612156275   -0.58086989118418
C         1.73647818210530    3.01049136346434   -0.58508182439060
C        -1.57702696588864    2.59217468122500   -1.82155299205834
C        -1.94160519613563    1.40805736077494   -2.58239762218878
C        -2.93297180072050    0.69228507100085   -1.82280872533329
C        -3.17008777553223    1.41543320217953   -0.60273675801207
C        -2.32417242301214    2.58526842703977   -0.60627253568446
C        -2.93465120378273   -0.69954594288264   -1.81610564919641
C        -1.94164200214496   -1.41389582561050   -2.56871105285035
C        -1.55689209785632   -2.58313740550548   -1.81932454733194
C        -2.30390632262954   -2.58432061433236   -0.58960032851112
C        -3.16228785515696   -1.41036463850223   -0.58871562661359
C        -0.98608967821054   -0.70372217107881   -3.29001698159128
C        -1.00302571553136    0.72264019553835   -3.32007899731824
C         0.39934386827783    1.24169799109400   -3.54384500892203
C         1.23263766948536   -0.00047299856997   -3.32550293803846
C         0.38660926240196   -1.14919011936598   -3.29581901457877
Cl       -2.10871956131512    0.30131863650925    5.20136492668581
Cl       -0.35037619144444   -2.11609588047980    5.20182104217725