63
 energy: -142.058293327968 gnorm: 0.135003951149 xtb: 6.4.1 (a3dbbd7)
C        -1.29750015586385   -0.00332986390914    3.53259128384291
C        -0.36662330751186   -1.17665276848352    3.30664507069186
C         0.98616964776834   -0.71907897730420    3.28345800331063
C         0.97960460534774    0.72298388992876    3.28116382332211
C        -0.37123063139343    1.17283027203526    3.30703999424566
C         2.33902808225222   -2.57287964708243    0.59282134541102
C         3.18775381441874   -1.40592934941989    0.58930269986468
C         2.95375934983025   -0.68600072575484    1.81413225258493
C         1.96120405920183   -1.41040140165925    2.57054878390017
C         1.59036597905156   -2.57351223230031    1.81677968982536
C         3.18509045263714    1.42556506459426    0.58677401618036
C         2.33644918538866    2.58955715701350    0.58712295456856
C         1.57732702745437    2.58269052266160    1.81121996042124
C         1.95121649520604    1.42062240906665    2.56339217358200
C         2.94734969899541    0.70178584035143    1.81241871801286
C        -0.36230865601760    3.44984460076387    0.58649915495812
C        -1.73568065385573    3.00856312776383    0.58620129080773
C        -1.97466648707238    2.29051782036392    1.80819368403138
C        -0.73502216685138    2.27460254582232    2.56651749222581
C         0.25013328780141    2.99673212004624    1.80718987334861
C        -3.40556373000186    0.73624756401696    0.57396823263447
C        -3.39656113686751   -0.70087893853968    0.57336766874418
C        -2.76869398640548   -1.13743152688347    1.81131829425690
C        -2.41606481668825   -0.00935770106357    2.54947016075177
C        -2.77763293498784    1.16181023849822    1.80199827311876
C        -1.73897950039868   -3.00369688886198    0.61027095302842
C        -0.34675175341818   -3.43911314840585    0.58927014667112
C         0.26540959524459   -2.99405405130769    1.81086784239501
C        -0.72448106648574   -2.27696612285733    2.56655534431523
C        -1.96661719091772   -2.30337153119419    1.80189055009829
C        -0.25303910441721   -3.21697439825626   -1.93515078628168
C         0.75308145440921   -2.28653916290657   -2.57867440920420
C         1.95238411039292   -2.27005430543362   -1.81108187299871
C         1.72490810125568   -2.99201887192918   -0.58363119559495
C         0.37557574680441   -3.46024706207600   -0.57873868952343
C         2.78760429110383   -1.15277384641970   -1.81491371839878
C         2.41431409213368    0.00739165047242   -2.57035366353322
C         2.79604684339575    1.17540453813949   -1.81886357647572
C         3.41064679229982    0.73155426330899   -0.59398339018568
C         3.40671134080570   -0.71156461677298   -0.59219407131255
C         1.97416914155198    2.29602882113511   -1.81673739726529
C         0.74456425139311    2.29447798281708   -2.57376768155679
C        -0.24519477981105    3.02272291127020   -1.82308616330370
C         0.36643514376396    3.45792956944505   -0.59428177351760
C         1.74064009670815    3.01454722219930   -0.59425933402647
C        -1.56829205833959    2.59366542792251   -1.82366590722493
C        -1.95096538781572    1.43092752853070   -2.58180486333857
C        -2.95240685827341    0.71446038976117   -1.82971357566041
C        -3.18630415806833    1.43422379644892   -0.60509868332397
C        -2.32927637798178    2.59497169040384   -0.60132137479790
C        -2.94754506526652   -0.67313005777755   -1.82391405444887
C        -1.94410239546657   -1.40286442546858   -2.56150397187270
C        -1.58527622402766   -2.56555974461748   -1.79963026731950
C        -2.30667368088430   -2.55904727586024   -0.60742050910323
C        -3.17269142016400   -1.38977890440225   -0.59872192408106
C        -0.99841208662573   -0.71329160109820   -3.30239014224414
C        -0.99320180548013    0.72405697444618   -3.30061797729521
C         0.37942274041569    1.16763777902732   -3.29646704633613
C         1.22337490988637    0.00222195938508   -3.28765862798480
C         0.38284144139822   -1.16484842740713   -3.28531009498081
Cl       -1.93980801969369   -0.00660548094091    5.24287063977443
Cl       -0.38906216058057   -4.77802061432624   -2.87495725020283
Cl        0.35001000608531    4.54251955281376    2.74349423296830
63
 energy: -142.082183344912 gnorm: 0.058015412974 xtb: 6.4.1 (a3dbbd7)
C        -1.30299308162437   -0.00824804583484    3.53330782228391
C        -0.36836137722853   -1.17744850368023    3.30515921297433
C         0.98548529703412   -0.71988973727622    3.28021884098232
C         0.97843499380212    0.71902957174648    3.27461174426290
C        -0.37639097424722    1.16352182632184    3.29661180090598
C         2.33921766369752   -2.57566497090622    0.59126991794317
C         3.19002995353788   -1.41062014448913    0.58694462124454
C         2.95877357554419   -0.69192108780237    1.81271800149739
C         1.96308836804832   -1.41343387499721    2.56936257005562
C         1.59007434152212   -2.57463684083950    1.81557074971817
C         3.19581294640441    1.41633266456746    0.58478785931061
C         2.33801807291490    2.57524758127828    0.58609244197277
C         1.60171185629891    2.58076781170384    1.81398979506979
C         1.95445250225413    1.41410507660949    2.55175872776765
C         2.95870012202257    0.69424929511413    1.80888482455911
C        -0.36939760912192    3.44394938283696    0.57339416107631
C        -1.73314669032139    2.99957124693825    0.58043632069919
C        -1.97160564783172    2.28133801537202    1.80476538195389
C        -0.74569723771227    2.26213721975893    2.56468730978813
C         0.25486404927962    3.09074306105665    1.86310047943787
C        -3.40761893730025    0.73184414291627    0.57267548208305
C        -3.39949287253890   -0.70462976071277    0.57248484484552
C        -2.77203282101078   -1.14098146299444    1.80978353907513
C        -2.42207791302075   -0.01167058354743    2.55084252352944
C        -2.78230859313823    1.15460038816006    1.80346604348039
C        -1.73928295902641   -3.00428582760725    0.60851713796520
C        -0.34738041380457   -3.43907551308676    0.58805720083744
C         0.26435628329876   -2.99418125538445    1.80932201299054
C        -0.72623405347355   -2.27740441621573    2.56533363175809
C        -1.96851748476221   -2.30378784684852    1.80123405449895
C        -0.25280943294367   -3.21872513647280   -1.93679463681868
C         0.75280730434754   -2.28830924259026   -2.57994652692948
C         1.95277311634579   -2.27198334115873   -1.81234931370613
C         1.72468629407029   -2.99364844296922   -0.58510913606777
C         0.37530346386996   -3.46188949596109   -0.58072591224661
C         2.78870390692879   -1.15617834898407   -1.81690814767024
C         2.41485006163864    0.00558256233490   -2.57081868445700
C         2.79839160181299    1.17176744171343   -1.81988686932108
C         3.41687043452995    0.72569159286672   -0.59752353270915
C         3.40976022324767   -0.71667922428233   -0.59466341536160
C         1.97357339717211    2.29381032594450   -1.81607505568300
C         0.74306806920359    2.29274990528188   -2.57426111669497
C        -0.24921603613295    3.02113657938758   -1.82888764333124
C         0.36104569614184    3.44631157735788   -0.59878487303851
C         1.74100752481437    3.00792741610482   -0.59609015004354
C        -1.57336795870957    2.59241330164105   -1.82806972768991
C        -1.95400620655949    1.42811638593879   -2.58477363885636
C        -2.95421414532510    0.71144328390607   -1.83208743077192
C        -3.18792113540615    1.43050097139949   -0.60676967981635
C        -2.33341828795950    2.59254400843598   -0.60763010415870
C        -2.94772448551049   -0.67625130761196   -1.82519616232971
C        -1.94335057303618   -1.40501909865392   -2.56277238057933
C        -1.58464832200950   -2.56792659766316   -1.80214462490920
C        -2.30675034841788   -2.56042123763291   -0.60852018559867
C        -3.17358028606470   -1.39320141064794   -0.60047425980644
C        -0.99839736772633   -0.71469089618907   -3.30404695179188
C        -0.99434024558842    0.72238443677923   -3.30209587534427
C         0.37838039286892    1.16617513707833   -3.29679526339205
C         1.22289965023198    0.00113456817499   -3.28748697586568
C         0.38267737638258   -1.16576811810412   -3.28589998352874
Cl       -1.93889264520043   -0.00667521763338    5.24586069444885
Cl       -0.38876965461684   -4.78102901204030   -2.87725913707608
Cl        0.35108928487203    4.67227078182569    2.82103825707707
63
 energy: -142.088223743173 gnorm: 0.013424128012 xtb: 6.4.1 (a3dbbd7)
C        -1.30061044849181   -0.00743176056953    3.52528219044540
C        -0.36927258434472   -1.17877055237416    3.30103992244350
C         0.98387640575262   -0.71818200173323    3.27501714565393
C         0.97768442801649    0.72009887988719    3.27494069240304
C        -0.37688968698026    1.16867481683941    3.29372879884142
C         2.33884939629732   -2.57934217717993    0.58883253867872
C         3.19099481354295   -1.41538697243182    0.58458497738129
C         2.95717112716517   -0.69516788571140    1.80966197761311
C         1.96228109836371   -1.41628239038752    2.56708179843558
C         1.58878532651945   -2.57658265444034    1.81339547865132
C         3.19351664123417    1.41098113353108    0.58324384885488
C         2.33102264544524    2.56964613466464    0.58927336886736
C         1.60471708015915    2.57769533441412    1.81232269491039
C         1.94879871241468    1.41639862435021    2.54370130397818
C         2.95637410683095    0.69067580042438    1.80471495214989
C        -0.37055400587857    3.44872248922372    0.57306761266642
C        -1.72221871302864    2.99236044799803    0.57895989021979
C        -1.95980617023697    2.27434369810702    1.80401803109266
C        -0.74883211567192    2.26682095052443    2.56944982336858
C         0.25743957980333    3.17509368697626    1.91282207145840
C        -3.40679767962626    0.72723120229558    0.57137408463442
C        -3.40097318027406   -0.70910956970676    0.57025004686207
C        -2.77495088600079   -1.14623190699445    1.80713344834766
C        -2.42360084209282   -0.01435377451223    2.54804363162890
C        -2.78017017754557    1.14887258203833    1.80301722202465
C        -1.73962720012653   -3.00721615421799    0.60505641800327
C        -0.34795085565219   -3.44126039313537    0.58545083801761
C         0.26320075501113   -2.99680640116656    1.80644837932199
C        -0.72740254157398   -2.27940642227561    2.56237201600938
C        -1.97010182788772   -2.30622574892078    1.79895189735202
C        -0.25293737647756   -3.22108712392296   -1.93890353559268
C         0.75277214368462   -2.29206394917863   -2.58279367949648
C         1.95307387316472   -2.27567276517349   -1.81482979400849
C         1.72433311722850   -2.99726371417651   -0.58764910648798
C         0.37514692761391   -3.46579651853331   -0.58372811426702
C         2.78932824524817   -1.16060897994827   -1.81931325995228
C         2.41462823803026    0.00292126665607   -2.57169835347664
C         2.79890725412162    1.16760272019298   -1.82095423411595
C         3.41673166313622    0.72100164223395   -0.59942928090508
C         3.41171561568703   -0.72164927489865   -0.59725451045527
C         1.97198192173412    2.29083232004538   -1.81216437378933
C         0.74192547122375    2.28836986762177   -2.57206450366461
C        -0.24947389197628    3.01387599051851   -1.82460218607099
C         0.35835082014683    3.44290713332563   -0.59370548220752
C         1.74249589331638    3.00783579708674   -0.59630670691787
C        -1.57413365299913    2.58696270929946   -1.82760544207466
C        -1.95576736396239    1.42406619481851   -2.58726975605125
C        -2.95485961157651    0.70679464180008   -1.83379397742039
C        -3.18642638801599    1.42577237459744   -0.60746889038190
C        -2.33057670742244    2.58729020113294   -0.60870717513688
C        -2.94865617181435   -0.68110227192821   -1.82765416549245
C        -1.94390970141406   -1.40937914837364   -2.56554749103100
C        -1.58533827301494   -2.57225471926105   -1.80591278124063
C        -2.30806525426735   -2.56439121480498   -0.61098771626553
C        -3.17473013922446   -1.39828768989897   -0.60340260293920
C        -0.99864471770901   -0.71814940459346   -3.30621078298987
C        -0.99518888198180    0.71904761588180   -3.30386051485719
C         0.37777440190752    1.16295748221757   -3.29702590580257
C         1.22238497796297   -0.00178148136240   -3.28868200067747
C         0.38247906171786   -1.16870289213105   -3.28769626472899
Cl       -1.93117082435881   -0.00101957948407    5.23845777536364
Cl       -0.38900867608943   -4.78435997419461   -2.88037593883670
Cl        0.35686683200480    4.76859528865241    2.88134426215443
63
 energy: -142.088546531510 gnorm: 0.008295575935 xtb: 6.4.1 (a3dbbd7)
C        -1.29932845931510   -0.00555424565655    3.52161460864485
C        -0.36948559525151   -1.17756852874539    3.29726334092927
C         0.98304321748413   -0.71687863821880    3.27269210643674
C         0.97751853965237    0.72149101889936    3.27730606414780
C        -0.37577265536676    1.17376155828633    3.29597985323834
C         2.33824619841624   -2.58065441494911    0.58777764181273
C         3.19025822642142   -1.41654897262998    0.58374217848918
C         2.95473616365833   -0.69510806121803    1.80803483900441
C         1.96077455005416   -1.41677991585885    2.56568626511093
C         1.58753207112361   -2.57711968454342    1.81217746448211
C         3.18932934481359    1.41045575677243    0.58269533089043
C         2.32774708136620    2.57176067868000    0.59131834747300
C         1.60062373803068    2.57916619885440    1.81214014745465
C         1.94557010539840    1.42034292946943    2.54343043210056
C         2.95195122961977    0.69077572953382    1.80308752308075
C        -0.36930011008203    3.45791805595562    0.57782593438930
C        -1.71737853174003    2.99188866079219    0.58025579979386
C        -1.95449799208459    2.27374076735881    1.80551055587503
C        -0.74813259220238    2.27619872907099    2.57576014423841
C         0.25723171890833    3.19658927732188    1.92492579626755
C        -3.40474485474058    0.72509276434164    0.57092606601895
C        -3.40130395659970   -0.71135947936506    0.56922155361281
C        -2.77588345443635   -1.14855149896577    1.80588310800028
C        -2.42274360741026   -0.01502515270324    2.54584110001583
C        -2.77690576369487    1.14764301750487    1.80196513888713
C        -1.74020094972751   -3.00942984784442    0.60306088460652
C        -0.34854625875439   -3.44287320904748    0.58385498981041
C         0.26224735060572   -2.99817344378743    1.80489737534970
C        -0.72783255776891   -2.27941948020382    2.56000586902837
C        -1.97071197255347   -2.30749788024780    1.79724731451576
C        -0.25307093491124   -3.22302127325630   -1.94047783460896
C         0.75284359373677   -2.29422387794113   -2.58438664123488
C         1.95326295203644   -2.27757129720703   -1.81620346558058
C         1.72408185497937   -2.99916555356970   -0.58889615050404
C         0.37490763260723   -3.46793228658962   -0.58535499590993
C         2.78937627799928   -1.16228064812148   -1.82034285097990
C         2.41422837485058    0.00183012170472   -2.57218699956569
C         2.79837337494551    1.16624170268850   -1.82138935300794
C         3.41494552470010    0.71994807622874   -0.59953353897326
C         3.41144649268488   -0.72291599694715   -0.59808319422163
C         1.97166493365784    2.28999329473155   -1.81049279903193
C         0.74139640730593    2.28574121783838   -2.56938664144339
C        -0.24868003184418    3.01020802733958   -1.81998809234507
C         0.35881446871772    3.44633937308919   -0.59007687273550
C         1.74389725285447    3.01039456894058   -0.59673392969549
C        -1.57294862197316    2.58375819382748   -1.82564573847758
C        -1.95553125479349    1.42180032772493   -2.58736806588075
C        -2.95437638806239    0.70423264659157   -1.83399234458353
C        -3.18399327682985    1.42309159832118   -0.60709832041912
C        -2.32728597769469    2.58420379971954   -0.60669175228499
C        -2.94921092009477   -0.68377071112201   -1.82893743854770
C        -1.94453665965502   -1.41219299091756   -2.56731446752527
C        -1.58608565287626   -2.57514807587242   -1.80815339638103
C        -2.30918483966281   -2.56718636946414   -0.61257567048311
C        -3.17563388910293   -1.40113594122926   -0.60474282977163
C        -0.99882336874841   -0.72048488271108   -3.30746758387941
C        -0.99523211526144    0.71685310046929   -3.30403323876384
C         0.37763865829578    1.16107336359694   -3.29628358171029
C         1.22215696835737   -0.00340729182895   -3.28955892938851
C         0.38238278940019   -1.17061560899900   -3.28894350635076
Cl       -1.92756301346128    0.00225857007893    5.23570116910619
Cl       -0.38834150853651   -4.78684023451421   -2.88288589159144
Cl        0.36200269932280    4.78476392827706    2.89283778356438
63
 energy: -142.088646096709 gnorm: 0.004754917300 xtb: 6.4.1 (a3dbbd7)
C        -1.29913378680750   -0.00502574650610    3.51979737292303
C        -0.36950436712277   -1.17691278573274    3.29559945696753
C         0.98262217591070   -0.71657456213329    3.27204960313136
C         0.97718992955700    0.72168520659558    3.27903174167072
C        -0.37495821914232    1.17564083417758    3.29684898842539
C         2.33796605562973   -2.58083796496578    0.58766177435992
C         3.18973640072611   -1.41655518582043    0.58359149030911
C         2.95343997218329   -0.69467909788761    1.80746101101707
C         1.95995425621928   -1.41701105616148    2.56540127531899
C         1.58683477224201   -2.57711979715747    1.81194427776071
C         3.18658293200890    1.41032445577461    0.58224261213005
C         2.32572065569248    2.57338054450921    0.59201633306098
C         1.59675694792941    2.57908228104800    1.81109234218779
C         1.94335702746066    1.42271668289425    2.54348822575410
C         2.94902367445967    0.69101322855088    1.80204895353744
C        -0.36808251463778    3.46284379575636    0.58047104546788
C        -1.71447102676813    2.99111641626443    0.58058660383428
C        -1.95108803079075    2.27283819365731    1.80612795171529
C        -0.74732315145853    2.28143286656612    2.57908260386312
C         0.25710050891891    3.20551473732758    1.92959471063784
C        -3.40356182021357    0.72398327430621    0.57067908846898
C        -3.40180044770057   -0.71250821887895    0.56910267548894
C        -2.77681689041736   -1.14993183419622    1.80558256794187
C        -2.42224933507122   -0.01514116088845    2.54466371114540
C        -2.77480208856281    1.14685879574877    1.80113063121735
C        -1.74060981629140   -3.01043965129652    0.60225187057518
C        -0.34897126876165   -3.44341294517817    0.58341455411188
C         0.26166279262934   -2.99871626410735    1.80455822947758
C        -0.72815685494373   -2.27950587327581    2.55934321174237
C        -1.97105024770040   -2.30781230597295    1.79669792716240
C        -0.25310891514352   -3.22324692538527   -1.94074174531128
C         0.75288866419359   -2.29471492251205   -2.58485124748692
C         1.95338630888972   -2.27791817959114   -1.81655912213873
C         1.72395498474616   -2.99956611543541   -0.58911137279560
C         0.37477831607991   -3.46848291468251   -0.58573269623259
C         2.78945306762435   -1.16254551406864   -1.82069635995796
C         2.41411579098856    0.00176552747488   -2.57254145241118
C         2.79826374134995    1.16598462877894   -1.82196439468354
C         3.41409529590889    0.71989546212809   -0.59960102537973
C         3.41118204571473   -0.72296441633147   -0.59827946444119
C         1.97194355883062    2.29008512120902   -1.81030896688923
C         0.74114287116216    2.28453734516283   -2.56793078687536
C        -0.24827214396786    3.00835397357433   -1.81760577493405
C         0.35934513172802    3.44809586842352   -0.58859181986868
C         1.74522180452674    3.01228874096092   -0.59792820884433
C        -1.57227264865223    2.58227312296012   -1.82483162574940
C        -1.95540414246046    1.42079096221518   -2.58752642563189
C        -2.95416994383254    0.70311512644597   -1.83413152750927
C        -3.18254384539704    1.42159089050731   -0.60682058684835
C        -2.32522465074057    2.58221413590446   -0.60547455649921
C        -2.94972930277706   -0.68488675939776   -1.82944716544425
C        -1.94492435665088   -1.41337777210078   -2.56799473535268
C        -1.58658107606458   -2.57620741087653   -1.80908249768891
C        -2.30998251640926   -2.56831804879771   -0.61295533478474
C        -3.17641254126574   -1.40243972645604   -0.60514137261947
C        -0.99890566082228   -0.72144762452751   -3.30805177763645
C        -0.99518951263728    0.71592398575593   -3.30401567487357
C         0.37765322952949    1.16044423865990   -3.29608068557075
C         1.22211860780725   -0.00378743244369   -3.29016941312285
C         0.38231556631931   -1.17118706932472   -3.28953557474449
Cl       -1.92656906041732    0.00293751834376    5.23463838358182
Cl       -0.38767278967289   -4.78769431529414   -2.88381470785834
Cl        0.36669791310338    4.78536319543636    2.89475748569768
63
 energy: -142.088685945224 gnorm: 0.002527232409 xtb: 6.4.1 (a3dbbd7)
C        -1.29930880724382   -0.00508509469900    3.51921478682660
C        -0.36952220037980   -1.17679533192319    3.29551105089969
C         0.98242593735459   -0.71674320202652    3.27239513088975
C         0.97669456622228    0.72142532112977    3.27973252226457
C        -0.37466800970760    1.17571622658695    3.29681540022162
C         2.33789824812653   -2.58050443548838    0.58791016371691
C         3.18949246842181   -1.41614346222452    0.58376051307660
C         2.95314375449913   -0.69432928094126    1.80756831467018
C         1.95967811881639   -1.41708781443711    2.56573558394059
C         1.58661947966212   -2.57689503489272    1.81218413915358
C         3.18562105693996    1.41026002508635    0.58204000728680
C         2.32470955360950    2.57371571225206    0.59191183707727
C         1.59434329995560    2.57788433147867    1.80984045267245
C         1.94221708053784    1.42343676886378    2.54325662619451
C         2.94797535543761    0.69111843563629    1.80161294865552
C        -0.36751096539244    3.46369580606182    0.58104222625606
C        -1.71341299597436    2.99033189992952    0.58034460267928
C        -1.94963769631908    2.27201757378303    1.80618418483008
C        -0.74705987186325    2.28283111138899    2.57981939154528
C         0.25721992425774    3.20809941883016    1.93079195172876
C        -3.40327275573868    0.72362854407519    0.57064495696351
C        -3.40220118904436   -0.71286733974925    0.56937041877636
C        -2.77745281418857   -1.15050276350850    1.80572580038765
C        -2.42210974381262   -0.01494946048216    2.54437659668852
C        -2.77416473861469    1.14645361378437    1.80088648765014
C        -1.74069429360992   -3.01051050818674    0.60211106557543
C        -0.34910469012627   -3.44326397746614    0.58352268434625
C         0.26144894737863   -2.99875671333405    1.80479639748592
C        -0.72835523887821   -2.27965165555271    2.55960882510259
C        -1.97114331295633   -2.30756040346049    1.79677779819959
C        -0.25302677678601   -3.22263862743797   -1.94039422476832
C         0.75293686456075   -2.29436551500275   -2.58468835419141
C         1.95346746767306   -2.27755242251058   -1.81639430125249
C         1.72394769511436   -2.99921002975164   -0.58889567111012
C         0.37479231836583   -3.46815067247027   -0.58556233171045
C         2.78952686552658   -1.16222246151096   -1.82064813302882
C         2.41417742793003    0.00212390437988   -2.57266256224265
C         2.79838504422646    1.16624177692487   -1.82238291731580
C         3.41405643773273    0.72020867373406   -0.59966738660914
C         3.41105786645773   -0.72257741983642   -0.59817299527759
C         1.97228491652741    2.29056364480286   -1.81075000561399
C         0.74106401004492    2.28447337486752   -2.56762262204895
C        -0.24826484141043    3.00790498029941   -1.81702429654177
C         0.35945390963881    3.44819220492961   -0.58846346645415
C         1.74588657086229    3.01302354852723   -0.59888720635306
C        -1.57221215493621    2.58203786886547   -1.82478808289957
C        -1.95546982367921    1.42066810095550   -2.58766026179464
C        -2.95418735331044    0.70294853188939   -1.83417958653835
C        -3.18215463230548    1.42109806196795   -0.60665879944467
C        -2.32463144417203    2.58149630098129   -0.60508303255646
C        -2.94997036358315   -0.68501212926699   -1.82944874186470
C        -1.94494449021964   -1.41348579678452   -2.56793310832588
C        -1.58666426093325   -2.57613762854204   -1.80922811570062
C        -2.31025076646804   -2.56831489535283   -0.61274407111843
C        -3.17676969448521   -1.40269101154214   -0.60508420900498
C        -0.99884260325513   -0.72146704526466   -3.30809548937768
C        -0.99515164177981    0.71587589337805   -3.30389078858755
C         0.37772188271534    1.16059700479243   -3.29621175368240
C         1.22217493710679   -0.00350724552736   -3.29038939683651
C         0.38231444915056   -1.17100361591320   -3.28961117530451
Cl       -1.92690918210665    0.00277415258703    5.23449161963618
Cl       -0.38712588127430   -4.78769630422735   -2.88383964057433
Cl        0.37042080646996    4.77995804627862    2.89251885323077
63
 energy: -142.088698562436 gnorm: 0.001412581918 xtb: 6.4.1 (a3dbbd7)
C        -1.29949183209031   -0.00521340154081    3.51937462761307
C        -0.36959582535970   -1.17692308075521    3.29603896579634
C         0.98237782733113   -0.71692634714053    3.27291181954928
C         0.97633838446550    0.72127021397480    3.27970044602656
C        -0.37480367340894    1.17527436522448    3.29664305588289
C         2.33793461480086   -2.58018233570879    0.58810176672443
C         3.18950723873704   -1.41584606178160    0.58391806624100
C         2.95336786582725   -0.69421130606212    1.80784623019861
C         1.95972320357221   -1.41704066120311    2.56609536451570
C         1.58669007415244   -2.57669912766476    1.81242904269684
C         3.18593928753531    1.41028161993955    0.58207199181780
C         2.32460067077841    2.57330594391555    0.59157206966244
C         1.59375643163516    2.57679795261749    1.80915316028704
C         1.94210020574111    1.42312501509217    2.54299129115805
C         2.94829537572880    0.69112963013485    1.80166642927165
C        -0.36763200550586    3.46272470331632    0.58053906829774
C        -1.71370726622033    2.99011855072898    0.58009342684513
C        -1.94982370608773    2.27183527645991    1.80611936536600
C        -0.74736760140638    2.28214971656932    2.57930970034293
C         0.25742470048801    3.20792560089973    1.93064758579794
C        -3.40351756371845    0.72370424410949    0.57070237959016
C        -3.40234197682778   -0.71279022271436    0.56956730643228
C        -2.77760944784034   -1.15048903450265    1.80586293414157
C        -2.42222510475336   -0.01474534240378    2.54460181878623
C        -2.77452384171892    1.14640595676417    1.80108845937366
C        -1.74058335050076   -3.01021957189725    0.60221274096940
C        -0.34903556925321   -3.44298081792531    0.58371856880476
C         0.26148388246352   -2.99861450231135    1.80507104385235
C        -0.72841858834862   -2.27971473261164    2.55997925172259
C        -1.97110903289620   -2.30724761810246    1.79698512665405
C        -0.25291329291811   -3.22211151070987   -1.94006008518541
C         0.75298389109385   -2.29399459946779   -2.58444318398041
C         1.95351866816805   -2.27720169616875   -1.81617985085565
C         1.72400498478716   -2.99883011875550   -0.58870087952572
C         0.37487006342277   -3.46774980774932   -0.58535996928323
C         2.78956947513606   -1.16192161640114   -1.82050109745357
C         2.41427090146459    0.00240881876380   -2.57261509360794
C         2.79849809494156    1.16653241113398   -1.82248492904328
C         3.41433534226316    0.72046876488524   -0.59971932444535
C         3.41109524816245   -0.72228842877226   -0.59805465382091
C         1.97239977947078    2.29093628082949   -1.81111703853011
C         0.74107864116653    2.28489823504264   -2.56794247188336
C        -0.24842254167560    3.00822879876045   -1.81738504014748
C         0.35924854426764    3.44777295509235   -0.58883615453857
C         1.74585237618287    3.01293070693366   -0.59912062124191
C        -1.57244292454802    2.58234956512429   -1.82499828646046
C        -1.95558609844555    1.42089678793486   -2.58768324309764
C        -2.95427003194918    0.70313959273202   -1.83415143236835
C        -3.18241612691818    1.42121692298610   -0.60662870463322
C        -2.32497765373430    2.58170968886049   -0.60520912037068
C        -2.94994030567539   -0.68480076364097   -1.82929038849521
C        -1.94478378857681   -1.41324153144160   -2.56767419858505
C        -1.58650807924534   -2.57579877678063   -1.80909986228810
C        -2.31015837035884   -2.56797585036144   -0.61249779824024
C        -3.17674049603768   -1.40250395688423   -0.60496726946944
C        -0.99873962197855   -0.72117644200616   -3.30793865179567
C        -0.99514909084467    0.71613751199202   -3.30379807494007
C         0.37776290276268    1.16091812667055   -3.29636531542505
C         1.22224229134677   -0.00317921791397   -3.29033012695219
C         0.38235556240052   -1.17069940214628   -3.28947490464940
Cl       -1.92752222212338    0.00256837748154    5.23480098784012
Cl       -0.38684519060324   -4.78758590873547   -2.88359890099652