62
 energy: -137.470485530889 gnorm: 0.172464812902 xtb: 6.4.1 (a3dbbd7)
C        -1.23626340000000    0.00000000000000    3.32997640000000
C        -0.38202640000000   -1.17575640000000    3.32997640000000
C         1.00015810000000   -0.72665740000000    3.32997640000000
C         1.00015810000000    0.72665740000000    3.32997640000000
C        -0.38202640000000    1.17575640000000    3.32997640000000
C         2.34433560000000   -2.60145750000000    0.59464210000000
C         3.19857260000000   -1.42570110000000    0.59464210000000
C         2.96246730000000   -0.69904370000000    1.83090550000000
C         1.96230920000000   -1.42570110000000    2.59495830000000
C         1.58028280000000   -2.60145750000000    1.83090550000000
C         3.19857260000000    1.42570110000000    0.59464210000000
C         2.34433560000000    2.60145750000000    0.59464210000000
C         1.58028280000000    2.60145750000000    1.83090550000000
C         1.96230920000000    1.42570110000000    2.59495830000000
C         2.96246730000000    0.69904370000000    1.83090550000000
C        -0.36750900000000    3.48258920000000    0.59464210000000
C        -1.74969350000000    3.03349030000000    0.59464210000000
C        -1.98579880000000    2.30683290000000    1.83090550000000
C        -0.74953540000000    2.30683290000000    2.59495830000000
C         0.25062270000000    3.03349030000000    1.83090550000000
C        -3.42570570000000    0.72665740000000    0.59464210000000
C        -3.42570570000000   -0.72665740000000    0.59464210000000
C        -2.80757400000000   -1.17575640000000    1.83090550000000
C        -2.42554760000000    0.00000000000000    2.59495830000000
C        -2.80757400000000    1.17575640000000    1.83090550000000
C        -1.74969350000000   -3.03349030000000    0.59464210000000
C        -0.36750900000000   -3.48258920000000    0.59464210000000
C         0.25062270000000   -3.03349030000000    1.83090550000000
C        -0.74953540000000   -2.30683290000000    2.59495830000000
C        -1.98579880000000   -2.30683290000000    1.83090550000000
C        -0.25062270000000   -3.03349030000000   -1.83090550000000
C         0.74953540000000   -2.30683290000000   -2.59495830000000
C         1.98579880000000   -2.30683290000000   -1.83090550000000
C         1.74969350000000   -3.03349030000000   -0.59464210000000
C         0.36750900000000   -3.48258920000000   -0.59464210000000
C         2.80757400000000   -1.17575640000000   -1.83090550000000
C         2.42554760000000    0.00000000000000   -2.59495830000000
C         2.80757400000000    1.17575640000000   -1.83090550000000
C         3.42570570000000    0.72665740000000   -0.59464210000000
C         3.42570570000000   -0.72665740000000   -0.59464210000000
C         1.98579880000000    2.30683290000000   -1.83090550000000
C         0.74953540000000    2.30683290000000   -2.59495830000000
C        -0.25062270000000    3.03349030000000   -1.83090550000000
C         0.36750900000000    3.48258920000000   -0.59464210000000
C         1.74969350000000    3.03349030000000   -0.59464210000000
C        -1.58028280000000    2.60145750000000   -1.83090550000000
C        -1.96230920000000    1.42570110000000   -2.59495830000000
C        -2.96246730000000    0.69904370000000   -1.83090550000000
C        -3.19857260000000    1.42570110000000   -0.59464210000000
C        -2.34433560000000    2.60145750000000   -0.59464210000000
C        -2.96246730000000   -0.69904370000000   -1.83090550000000
C        -1.96230920000000   -1.42570110000000   -2.59495830000000
C        -1.58028280000000   -2.60145750000000   -1.83090550000000
C        -2.34433560000000   -2.60145750000000   -0.59464210000000
C        -3.19857260000000   -1.42570110000000   -0.59464210000000
C        -1.00015810000000   -0.72665740000000   -3.32997640000000
C        -1.00015810000000    0.72665740000000   -3.32997640000000
C         0.38202640000000    1.17575640000000   -3.32997640000000
C         1.23626340000000    0.00000000000000   -3.32997640000000
C         0.38202640000000   -1.17575640000000   -3.32997640000000
Cl       -1.84886636902500    0.00000000000000    5.03315507598844
Cl        1.84886636902500    0.00000000000000   -5.03315507598844
62
 energy: -137.508376952030 gnorm: 0.106840835677 xtb: 6.4.1 (a3dbbd7)
C        -1.24865542684098   -0.00000000000000    3.35872847350089
C        -0.36234934673036   -1.18280977493127    3.32829553043840
C         1.00202808224155   -0.72494448626711    3.31460440804980
C         1.00202808224155    0.72494448626711    3.31460440804980
C        -0.36234934673036    1.18280977493127    3.32829553043840
C         2.33694126981187   -2.58952255773040    0.59217415882811
C         3.19048800748356   -1.42103025157761    0.59721683376764
C         2.95409669390173   -0.69580128772418    1.82464384341060
C         1.96112765284666   -1.42276645084185    2.58259667929390
C         1.58116430964796   -2.59071500304662    1.82155782344201
C         3.19048800748356    1.42103025157761    0.59721683376764
C         2.33694126981187    2.58952255773040    0.59217415882811
C         1.58116430964795    2.59071500304662    1.82155782344201
C         1.96112765284666    1.42276645084184    2.58259667929389
C         2.95409669390173    0.69580128772418    1.82464384341060
C        -0.36311078726002    3.46101720520653    0.59311810194685
C        -1.73981450291884    3.01537701856788    0.59430778800317
C        -1.97190328810960    2.29476683582085    1.81912147137268
C        -0.73305561464762    2.29387694644218    2.58137589852125
C         0.25625507245204    3.02288412085496    1.82363774988933
C        -3.41952318087225    0.72326574709085    0.58025558509567
C        -3.41952318087225   -0.72326574709085    0.58025558509567
C        -2.79385328028099   -1.16698042363729    1.80540251062790
C        -2.43154365772021   -0.00000000000000    2.54838003740455
C        -2.79385328028099    1.16698042363729    1.80540251062790
C        -1.73981450291884   -3.01537701856788    0.59430778800317
C        -0.36311078726002   -3.46101720520653    0.59311810194685
C         0.25625507245204   -3.02288412085496    1.82363774988933
C        -0.73305561464762   -2.29387694644218    2.58137589852125
C        -1.97190328810960   -2.29476683582085    1.81912147137268
C        -0.25625516131900   -3.02288481968899   -1.82364074123966
C         0.73305440260506   -2.29387716367436   -2.58138099651822
C         1.97189836901426   -2.29476178111812   -1.81912378105721
C         1.73981250772551   -3.01537552250706   -0.59430916998054
C         0.36311085231937   -3.46101595235131   -0.59311969296369
C         2.79386166878444   -1.16698599278163   -1.80541074103215
C         2.43152993610082   -0.00000000000000   -2.54836521421075
C         2.79386166878444    1.16698599278163   -1.80541074103215
C         3.41952567275370    0.72326680315609   -0.58026307853518
C         3.41952567275371   -0.72326680315609   -0.58026307853519
C         1.97189836901427    2.29476178111812   -1.81912378105721
C         0.73305440260506    2.29387716367436   -2.58138099651822
C        -0.25625516131900    3.02288481968899   -1.82364074123966
C         0.36311085231937    3.46101595235131   -0.59311969296369
C         1.73981250772551    3.01537552250706   -0.59430916998054
C        -1.58116391892074    2.59071750257170   -1.82156065784352
C        -1.96112765385845    1.42276722754406   -2.58259975340132
C        -2.95409426090400    0.69580213203481   -1.82464926778275
C        -3.19048690679295    1.42103311848802   -0.59722320910267
C        -2.33694507441777    2.58952652013051   -0.59217923528644
C        -2.95409426090400   -0.69580213203481   -1.82464926778275
C        -1.96112765385845   -1.42276722754406   -2.58259975340132
C        -1.58116391892074   -2.59071750257170   -1.82156065784352
C        -2.33694507441777   -2.58952652013051   -0.59217923528644
C        -3.19048690679295   -1.42103311848802   -0.59722320910267
C        -1.00202895518350   -0.72494468579167   -3.31460656351183
C        -1.00202895518350    0.72494468579167   -3.31460656351183
C         0.36234558693495    1.18281074063795   -3.32829699568560
C         1.24864270632578   -0.00000000000000   -3.35870273723563
C         0.36234558693495   -1.18281074063795   -3.32829699568560
Cl       -1.87968184363738   -0.00000000000000    5.10573612175041
Cl        1.87971185315878   -0.00000000000000   -5.10566567870252
62
 energy: -137.526413452791 gnorm: 0.076544432219 xtb: 6.4.1 (a3dbbd7)
C        -1.28603964819495   -0.00000000000000    3.47259762542820
C        -0.34389500602770   -1.18392042443529    3.28569892844664
C         0.99399508015284   -0.72171920956993    3.27946799864902
C         0.99399508015284    0.72171920956993    3.27946799864902
C        -0.34389500602770    1.18392042443528    3.28569892844664
C         2.33076813748045   -2.57788020282091    0.59257547045024
C         3.17928545404423   -1.41459345277885    0.59855251867093
C         2.94386096146630   -0.69267058511264    1.81805631824876
C         1.95746223129768   -1.42077250458728    2.56542950611607
C         1.57948475302077   -2.57898575353677    1.80947293164894
C         3.17928545404424    1.41459345277885    0.59855251867093
C         2.33076813748045    2.57788020282091    0.59257547045024
C         1.57948475302077    2.57898575353677    1.80947293164894
C         1.95746223129768    1.42077250458728    2.56542950611607
C         2.94386096146630    0.69267058511264    1.81805631824876
C        -0.36108756612685    3.44326125506305    0.58952274800643
C        -1.73248847744692    2.99714640992855    0.59273953531116
C        -1.96555193698400    2.28756810122210    1.80462221027882
C        -0.72057547024656    2.27824758656943    2.55142574027578
C         0.25739276846828    3.01253725518975    1.81058892654346
C        -3.40924954484558    0.71836950484455    0.56860335423745
C        -3.40924954484558   -0.71836950484456    0.56860335423745
C        -2.77489078174130   -1.15136079523945    1.78577803491650
C        -2.44085127248280   -0.00000000000000    2.51577853073116
C        -2.77489078174130    1.15136079523945    1.78577803491650
C        -1.73248847744692   -2.99714640992855    0.59273953531116
C        -0.36108756612685   -3.44326125506304    0.58952274800643
C         0.25739276846828   -3.01253725518975    1.81058892654346
C        -0.72057547024656   -2.27824758656943    2.55142574027578
C        -1.96555193698399   -2.28756810122209    1.80462221027881
C        -0.25739352295331   -3.01253591306463   -1.81058520043736
C         0.72057573206694   -2.27824168742073   -2.55141874970332
C         1.96555929181785   -2.28758130203006   -1.80462596720630
C         1.73249059658510   -2.99715000556491   -0.59273957806306
C         0.36108652873915   -3.44326239374165   -0.58952118605243
C         2.77487959139585   -1.15135625207235   -1.78577036636309
C         2.44086144907687   -0.00000000000000   -2.51580037451684
C         2.77487959139585    1.15135625207234   -1.78577036636309
C         3.40924709547209    0.71836882091761   -0.56859575580144
C         3.40924709547208   -0.71836882091762   -0.56859575580144
C         1.96555929181786    2.28758130203007   -1.80462596720631
C         0.72057573206694    2.27824168742073   -2.55141874970332
C        -0.25739352295331    3.01253591306464   -1.81058520043736
C         0.36108652873915    3.44326239374165   -0.58952118605243
C         1.73249059658510    2.99715000556492   -0.59273957806306
C        -1.57948732693372    2.57898658061094   -1.80947199323039
C        -1.95746428993308    1.42077182595090   -2.56542431894011
C        -2.94386630785023    0.69266972316580   -1.81804992386769
C        -3.17928801105637    1.41459017787372   -0.59854528159148
C        -2.33076324991937    2.57787346735620   -0.59257076583218
C        -2.94386630785022   -0.69266972316580   -1.81804992386769
C        -1.95746428993307   -1.42077182595090   -2.56542431894011
C        -1.57948732693372   -2.57898658061095   -1.80947199323039
C        -2.33076324991937   -2.57787346735620   -0.59257076583218
C        -3.17928801105637   -1.41459017787372   -0.59854528159148
C        -0.99399670741158   -0.72171832397203   -3.27946184731643
C        -0.99399670741158    0.72171832397203   -3.27946184731643
C         0.34389686627077    1.18391746627845   -3.28570227708973
C         1.28605105346201   -0.00000000000000   -3.47262869901213
C         0.34389686627077   -1.18391746627845   -3.28570227708974
Cl       -1.93209235150523   -0.00000000000000    5.26888542428530
Cl        1.93209699204060   -0.00000000000000   -5.26893452752603
62
 energy: -137.532326882284 gnorm: 0.037613802307 xtb: 6.4.1 (a3dbbd7)
C        -1.28625770121557   -0.00000000000000    3.48330472834697
C        -0.35871709087251   -1.18103481833324    3.31692349334372
C         0.98877984576025   -0.72181051860911    3.29398784900265
C         0.98877984576025    0.72181051860911    3.29398784900265
C        -0.35871709087251    1.18103481833324    3.31692349334372
C         2.33333349170787   -2.57922694413083    0.59323417264914
C         3.18263496733987   -1.41469914035504    0.59798243722556
C         2.94728612351280   -0.69361272182967    1.82231111428856
C         1.95478940313782   -1.41795205234136    2.57271898695372
C         1.57863209309200   -2.57730559087164    1.81374435028113
C         3.18263496733987    1.41469914035504    0.59798243722556
C         2.33333349170787    2.57922694413082    0.59323417264914
C         1.57863209309200    2.57730559087164    1.81374435028114
C         1.95478940313782    1.41795205234136    2.57271898695373
C         2.94728612351280    0.69361272182967    1.82231111428856
C        -0.36192863965061    3.44127417505197    0.59046965925727
C        -1.73475810408502    2.99662409818412    0.59403512529123
C        -1.96795991858433    2.28654679330389    1.81248352256046
C        -0.72854359582193    2.27713096632869    2.56907529788574
C         0.25408808397891    3.00380978327072    1.81466746093318
C        -3.40933838070456    0.71892389884639    0.57604384532556
C        -3.40933838070456   -0.71892389884639    0.57604384532556
C        -2.77792739474864   -1.15177487477430    1.80062177882180
C        -2.43615366991826    0.00000000000000    2.54651778225527
C        -2.77792739474864    1.15177487477430    1.80062177882180
C        -1.73475810408502   -2.99662409818412    0.59403512529123
C        -0.36192863965061   -3.44127417505197    0.59046965925727
C         0.25408808397891   -3.00380978327071    1.81466746093317
C        -0.72854359582193   -2.27713096632869    2.56907529788574
C        -1.96795991858433   -2.28654679330389    1.81248352256045
C        -0.25408809776881   -3.00380778421629   -1.81466762739277
C         0.72854301343471   -2.27712959436136   -2.56907731900549
C         1.96795924097589   -2.28654748303229   -1.81248552643674
C         1.73475750214411   -2.99662421295815   -0.59403601554707
C         0.36192833178600   -3.44127343428501   -0.59046995471071
C         2.77792839087700   -1.15177672909337   -1.80062315650944
C         2.43614740538878   -0.00000000000000   -2.54650995052566
C         2.77792839087699    1.15177672909337   -1.80062315650944
C         3.40933805131264    0.71892433399362   -0.57604638894265
C         3.40933805131264   -0.71892433399362   -0.57604638894265
C         1.96795924097589    2.28654748303230   -1.81248552643675
C         0.72854301343471    2.27712959436136   -2.56907731900549
C        -0.25408809776881    3.00380778421629   -1.81466762739277
C         0.36192833178600    3.44127343428501   -0.59046995471071
C         1.73475750214411    2.99662421295815   -0.59403601554707
C        -1.57863281690508    2.57730595527766   -1.81374600801679
C        -1.95478993505131    1.41795242250926   -2.57272143271397
C        -2.94728582751879    0.69361291970539   -1.82231377803168
C        -3.18263561974118    1.41469938371992   -0.59798503143061
C        -2.33333466331682    2.57922717413819   -0.59323599408256
C        -2.94728582751879   -0.69361291970539   -1.82231377803168
C        -1.95478993505131   -1.41795242250926   -2.57272143271397
C        -1.57863281690508   -2.57730595527766   -1.81374600801679
C        -2.33333466331682   -2.57922717413819   -0.59323599408256
C        -3.18263561974117   -1.41469938371992   -0.59798503143061
C        -0.98878016791524   -0.72181052363697   -3.29398846409421
C        -0.98878016791524    0.72181052363697   -3.29398846409421
C         0.35871567055101    1.18103538327564   -3.31692563357865
C         1.28625239011773   -0.00000000000000   -3.48329462327946
C         0.35871567055101   -1.18103538327564   -3.31692563357865
Cl       -1.93293695066159   -0.00000000000000    5.26347079394936
Cl        1.93296061243685   -0.00000000000000   -5.26344225739927
62
 energy: -137.534094666356 gnorm: 0.023171088958 xtb: 6.4.1 (a3dbbd7)
C        -1.29229255463282    0.00000000000000    3.50951337749186
C        -0.36895419229312   -1.17745576228970    3.32949886288800
C         0.98279516969048   -0.72154832936731    3.29733889258562
C         0.98279516969048    0.72154832936731    3.29733889258562
C        -0.36895419229312    1.17745576228970    3.32949886288800
C         2.33421307959221   -2.57982663744466    0.59307522496703
C         3.18252061631771   -1.41437931423355    0.59632682250145
C         2.94616239268052   -0.69411457708568    1.82228655062044
C         1.95134943332264   -1.41581124115694    2.57496581221502
C         1.57685860527770   -2.57553627879816    1.81524954097864
C         3.18252061631771    1.41437931423355    0.59632682250145
C         2.33421307959221    2.57982663744466    0.59307522496703
C         1.57685860527770    2.57553627879816    1.81524954097864
C         1.95134943332264    1.41581124115694    2.57496581221502
C         2.94616239268052    0.69411457708568    1.82228655062044
C        -0.36281587409234    3.43882774569796    0.59035468399590
C        -1.73644439134591    2.99661098117428    0.59476786376037
C        -1.97008728151620    2.28686499478029    1.81624991788123
C        -0.73328913718207    2.27419927686142    2.57614401667061
C         0.25145308487312    2.99625074876985    1.81574530467972
C        -3.40584561123328    0.71825528323296    0.58145014178069
C        -3.40584561123329   -0.71825528323296    0.58145014178069
C        -2.77720590064748   -1.15031080562394    1.81077038718079
C        -2.43006573414981    0.00000000000000    2.56541403226498
C        -2.77720590064748    1.15031080562394    1.81077038718079
C        -1.73644439134592   -2.99661098117428    0.59476786376037
C        -0.36281587409234   -3.43882774569796    0.59035468399590
C         0.25145308487312   -2.99625074876985    1.81574530467973
C        -0.73328913718207   -2.27419927686142    2.57614401667061
C        -1.97008728151621   -2.28686499478030    1.81624991788123
C        -0.25145481488367   -2.99625305353033   -1.81575057573841
C         0.73328679972835   -2.27420136995315   -2.57614975485285
C         1.97008038639797   -2.28685772694742   -1.81625044993756
C         1.73644069654792   -2.99660930675171   -0.59477012792908
C         0.36281417851282   -3.43882713627186   -0.59035799006106
C         2.77721436682300   -1.15031607129088   -1.81077552575683
C         2.43005095524735    0.00000000000000   -2.56539095610294
C         2.77721436682300    1.15031607129088   -1.81077552575684
C         3.40585135336339    0.71825657711028   -0.58145696003198
C         3.40585135336340   -0.71825657711028   -0.58145696003198
C         1.97008038639797    2.28685772694742   -1.81625044993756
C         0.73328679972835    2.27420136995315   -2.57614975485285
C        -0.25145481488367    2.99625305353033   -1.81575057573841
C         0.36281417851282    3.43882713627186   -0.59035799006105
C         1.73644069654792    2.99660930675171   -0.59477012792908
C        -1.57685956649212    2.57553870439725   -1.81525425903044
C        -1.95135079315085    1.41581257232585   -2.57497214777099
C        -2.94616005230382    0.69411542204765   -1.82229353951651
C        -3.18251837076433    1.41438168182944   -0.59633389419822
C        -2.33421840604607    2.57983193739123   -0.59308179060566
C        -2.94616005230383   -0.69411542204764   -1.82229353951651
C        -1.95135079315085   -1.41581257232585   -2.57497214777099
C        -1.57685956649212   -2.57553870439725   -1.81525425903044
C        -2.33421840604608   -2.57983193739123   -0.59308179060566
C        -3.18251837076434   -1.41438168182944   -0.59633389419822
C        -0.98279715608967   -0.72154881930207   -3.29734446404341
C        -0.98279715608967    0.72154881930207   -3.29734446404340
C         0.36894966498234    1.17745706964477   -3.32949885277154
C         1.29228039094873    0.00000000000000   -3.50948327662153
C         0.36894966498234   -1.17745706964477   -3.32949885277154
Cl       -1.94229997120026    0.00000000000000    5.27694330292515
Cl        1.94235035364837    0.00000000000000   -5.27686386087949
62
 energy: -137.534904661735 gnorm: 0.013478620211 xtb: 6.4.1 (a3dbbd7)
C        -1.29777274801752   -0.00000000000000    3.53237199450713
C        -0.37510281780010   -1.17427879077497    3.32929774006448
C         0.97864012252833   -0.72140298393944    3.29478742275769
C         0.97864012252833    0.72140298393944    3.29478742275769
C        -0.37510281780010    1.17427879077497    3.32929774006448
C         2.33489446197088   -2.58107825819822    0.59264399104434
C         3.18185823541313   -1.41461986647098    0.59486436360360
C         2.94446989880946   -0.69449933025929    1.82061318725447
C         1.94906354411962   -1.41494744903393    2.57453555308916
C         1.57560010261188   -2.57572821670101    1.81564679293191
C         3.18185823541313    1.41461986647098    0.59486436360360
C         2.33489446197089    2.58107825819822    0.59264399104434
C         1.57560010261188    2.57572821670100    1.81564679293191
C         1.94906354411962    1.41494744903393    2.57453555308916
C         2.94446989880945    0.69449933025930    1.82061318725447
C        -0.36375413225767    3.43950392212939    0.58979644680730
C        -1.73806495726699    2.99896575191193    0.59479678439457
C        -1.97207537719979    2.28880226543398    1.81722946103013
C        -0.73587490524770    2.27287237800231    2.57702553541696
C         0.25009110183997    2.99282237514640    1.81544054537200
C        -3.40256723950756    0.71737444853344    0.58462551536647
C        -3.40256723950757   -0.71737444853344    0.58462551536647
C        -2.77566486226898   -1.14922639692021    1.81633115256669
C        -2.42367753685535   -0.00000000000000    2.57450503346448
C        -2.77566486226898    1.14922639692021    1.81633115256669
C        -1.73806495726699   -2.99896575191194    0.59479678439457
C        -0.36375413225767   -3.43950392212939    0.58979644680730
C         0.25009110183997   -2.99282237514640    1.81544054537200
C        -0.73587490524770   -2.27287237800231    2.57702553541695
C        -1.97207537719980   -2.28880226543398    1.81722946103013
C        -0.25009504340444   -2.99282840436156   -1.81544883642951
C         0.73587072396195   -2.27287569117131   -2.57703233349869
C         1.97206362377634   -2.28879017268691   -1.81722827868857
C         1.73805836198082   -2.99896329969713   -0.59479908156993
C         0.36375004043945   -3.43950442047323   -0.58980124336027
C         2.77567548497739   -1.14923167643956   -1.81633520996125
C         2.42366226855627    0.00000000000000   -2.57447945040412
C         2.77567548497739    1.14923167643956   -1.81633520996125
C         3.40257803024696    0.71737621602693   -0.58463104049121
C         3.40257803024696   -0.71737621602693   -0.58463104049121
C         1.97206362377634    2.28879017268691   -1.81722827868857
C         0.73587072396195    2.27287569117131   -2.57703233349869
C        -0.25009504340444    2.99282840436156   -1.81544883642951
C         0.36375004043945    3.43950442047323   -0.58980124336027
C         1.73805836198083    2.99896329969712   -0.59479908156993
C        -1.57560222673862    2.57573210494801   -1.81565238783950
C        -1.94906604296841    1.41494891967743   -2.57454206148633
C        -2.94446665089461    0.69450042647680   -1.82061912471758
C        -3.18185447161987    1.41462323490596   -0.59487059906494
C        -2.33490222357881    2.58108582046850   -0.59265160351147
C        -2.94446665089460   -0.69450042647680   -1.82061912471758
C        -1.94906604296841   -1.41494891967743   -2.57454206148633
C        -1.57560222673862   -2.57573210494801   -1.81565238783950
C        -2.33490222357882   -2.58108582046850   -0.59265160351147
C        -3.18185447161987   -1.41462323490596   -0.59487059906494
C        -0.97864385053180   -0.72140358575122   -3.29479598291678
C        -0.97864385053180    0.72140358575122   -3.29479598291678
C         0.37509639634540    1.17427947698425   -3.32929843232600
C         1.29776394167423    0.00000000000000   -3.53234705437455
C         0.37509639634540   -1.17427947698425   -3.32929843232600
Cl       -1.94988848686771   -0.00000000000000    5.28525064088625
Cl        1.94996190603766   -0.00000000000000   -5.28515771575467
62
 energy: -137.535147456804 gnorm: 0.007941388588 xtb: 6.4.1 (a3dbbd7)
C        -1.29962675137987   -0.00000000000000    3.54030335151145
C        -0.37607289657733   -1.17307259114450    3.32367083816383
C         0.97764365945707   -0.72142679074662    3.29139039758443
C         0.97764365945707    0.72142679074662    3.29139039758443
C        -0.37607289657733    1.17307259114450    3.32367083816383
C         2.33517975290401   -2.58184140360137    0.59232851653795
C         3.18145921439790   -1.41492967260733    0.59435821710295
C         2.94373200403065   -0.69459320708071    1.81934299496433
C         1.94853079381128   -1.41509206061566    2.57323070695314
C         1.57533213531498   -2.57673590236096    1.81532742840541
C         3.18145921439790    1.41492967260733    0.59435821710295
C         2.33517975290401    2.58184140360137    0.59232851653795
C         1.57533213531498    2.57673590236096    1.81532742840541
C         1.94853079381128    1.41509206061566    2.57323070695314
C         2.94373200403065    0.69459320708071    1.81934299496433
C        -0.36418686044404    3.44133197840276    0.58944056922518
C        -1.73880352390616    3.00100411216535    0.59464616111034
C        -1.97298236536756    2.29028058708723    1.81665723228185
C        -0.73621175162602    2.27347611730183    2.57533074962437
C         0.25005216584372    2.99335658024512    1.81482934765907
C        -3.40160403776748    0.71694562353681    0.58507778823071
C        -3.40160403776748   -0.71694562353681    0.58507778823071
C        -2.77478804371158   -1.14894466014791    1.81670209795967
C        -2.42086869796326   -0.00000000000000    2.57414172479393
C        -2.77478804371157    1.14894466014791    1.81670209795967
C        -1.73880352390616   -3.00100411216535    0.59464616111034
C        -0.36418686044404   -3.44133197840276    0.58944056922518
C         0.25005216584372   -2.99335658024512    1.81482934765907
C        -0.73621175162601   -2.27347611730183    2.57533074962437
C        -1.97298236536756   -2.29028058708723    1.81665723228185
C        -0.25005521293131   -2.99336051024567   -1.81483379604902
C         0.73620905173570   -2.27347717445330   -2.57533377479379
C         1.97297525392263   -2.29027487671711   -1.81665702679289
C         1.73879912148751   -3.00100289997647   -0.59464718733300
C         0.36418360698644   -3.44133314151851   -0.58944330188840
C         2.77479114595708   -1.14894605174259   -1.81670276832075
C         2.42086278392973   -0.00000000000000   -2.57413445577212
C         2.77479114595708    1.14894605174259   -1.81670276832075
C         3.40160941780812    0.71694635600402   -0.58507828503310
C         3.40160941780812   -0.71694635600402   -0.58507828503310
C         1.97297525392263    2.29027487671711   -1.81665702679289
C         0.73620905173570    2.27347717445330   -2.57533377479379
C        -0.25005521293131    2.99336051024567   -1.81483379604902
C         0.36418360698644    3.44133314151851   -0.58944330188840
C         1.73879912148750    3.00100289997647   -0.59464718733300
C        -1.57533394918629    2.57673816240598   -1.81532954566042
C        -1.94853270653843    1.41509208559672   -2.57323140259437
C        -2.94373153571749    0.69459365855352   -1.81934309822062
C        -3.18145848360611    1.41493154568432   -0.59435887469893
C        -2.33518369071778    2.58184437751200   -0.59233126329113
C        -2.94373153571749   -0.69459365855352   -1.81934309822062
C        -1.94853270653843   -1.41509208559672   -2.57323140259437
C        -1.57533394918629   -2.57673816240598   -1.81532954566042
C        -2.33518369071778   -2.58184437751200   -0.59233126329113
C        -3.18145848360611   -1.41493154568432   -0.59435887469893
C        -0.97764652552449   -0.72142687147496   -3.29139430565725
C        -0.97764652552449    0.72142687147496   -3.29139430565725
C         0.37606899862927    1.17307234489743   -3.32367370395799
C         1.29962841065668   -0.00000000000000   -3.54030628011152
C         0.37606899862926   -1.17307234489743   -3.32367370395799
Cl       -1.95048976252646   -0.00000000000000    5.28202146074444
Cl        1.95054453995455   -0.00000000000001   -5.28197522418932
62
 energy: -137.535239292829 gnorm: 0.004336542137 xtb: 6.4.1 (a3dbbd7)
C        -1.29994802232673   -0.00000000000000    3.54168033149671
C        -0.37528135058475   -1.17297787875153    3.31961709961460
C         0.97783959195164   -0.72149305579817    3.28957019911998
C         0.97783959195164    0.72149305579817    3.28957019911998
C        -0.37528135058475    1.17297787875153    3.31961709961460