62
 energy: -137.479105029443 gnorm: 0.197027184190 xtb: 6.4.1 (a3dbbd7)
C        -1.23626340000000    0.00000000000000    3.32997640000000
C        -0.38202640000000   -1.17575640000000    3.32997640000000
C         1.00015810000000   -0.72665740000000    3.32997640000000
C         1.00015810000000    0.72665740000000    3.32997640000000
C        -0.38202640000000    1.17575640000000    3.32997640000000
C         2.34433560000000   -2.60145750000000    0.59464210000000
C         3.19857260000000   -1.42570110000000    0.59464210000000
C         2.96246730000000   -0.69904370000000    1.83090550000000
C         1.96230920000000   -1.42570110000000    2.59495830000000
C         1.58028280000000   -2.60145750000000    1.83090550000000
C         3.19857260000000    1.42570110000000    0.59464210000000
C         2.34433560000000    2.60145750000000    0.59464210000000
C         1.58028280000000    2.60145750000000    1.83090550000000
C         1.96230920000000    1.42570110000000    2.59495830000000
C         2.96246730000000    0.69904370000000    1.83090550000000
C        -0.36750900000000    3.48258920000000    0.59464210000000
C        -1.74969350000000    3.03349030000000    0.59464210000000
C        -1.98579880000000    2.30683290000000    1.83090550000000
C        -0.74953540000000    2.30683290000000    2.59495830000000
C         0.25062270000000    3.03349030000000    1.83090550000000
C        -3.42570570000000    0.72665740000000    0.59464210000000
C        -3.42570570000000   -0.72665740000000    0.59464210000000
C        -2.80757400000000   -1.17575640000000    1.83090550000000
C        -2.42554760000000    0.00000000000000    2.59495830000000
C        -2.80757400000000    1.17575640000000    1.83090550000000
C        -1.74969350000000   -3.03349030000000    0.59464210000000
C        -0.36750900000000   -3.48258920000000    0.59464210000000
C         0.25062270000000   -3.03349030000000    1.83090550000000
C        -0.74953540000000   -2.30683290000000    2.59495830000000
C        -1.98579880000000   -2.30683290000000    1.83090550000000
C        -0.25062270000000   -3.03349030000000   -1.83090550000000
C         0.74953540000000   -2.30683290000000   -2.59495830000000
C         1.98579880000000   -2.30683290000000   -1.83090550000000
C         1.74969350000000   -3.03349030000000   -0.59464210000000
C         0.36750900000000   -3.48258920000000   -0.59464210000000
C         2.80757400000000   -1.17575640000000   -1.83090550000000
C         2.42554760000000    0.00000000000000   -2.59495830000000
C         2.80757400000000    1.17575640000000   -1.83090550000000
C         3.42570570000000    0.72665740000000   -0.59464210000000
C         3.42570570000000   -0.72665740000000   -0.59464210000000
C         1.98579880000000    2.30683290000000   -1.83090550000000
C         0.74953540000000    2.30683290000000   -2.59495830000000
C        -0.25062270000000    3.03349030000000   -1.83090550000000
C         0.36750900000000    3.48258920000000   -0.59464210000000
C         1.74969350000000    3.03349030000000   -0.59464210000000
C        -1.58028280000000    2.60145750000000   -1.83090550000000
C        -1.96230920000000    1.42570110000000   -2.59495830000000
C        -2.96246730000000    0.69904370000000   -1.83090550000000
C        -3.19857260000000    1.42570110000000   -0.59464210000000
C        -2.34433560000000    2.60145750000000   -0.59464210000000
C        -2.96246730000000   -0.69904370000000   -1.83090550000000
C        -1.96230920000000   -1.42570110000000   -2.59495830000000
C        -1.58028280000000   -2.60145750000000   -1.83090550000000
C        -2.34433560000000   -2.60145750000000   -0.59464210000000
C        -3.19857260000000   -1.42570110000000   -0.59464210000000
C        -1.00015810000000   -0.72665740000000   -3.32997640000000
C        -1.00015810000000    0.72665740000000   -3.32997640000000
C         0.38202640000000    1.17575640000000   -3.32997640000000
C         1.23626340000000    0.00000000000000   -3.32997640000000
C         0.38202640000000   -1.17575640000000   -3.32997640000000
Cl       -1.84886636902500    0.00000000000000    5.03315507598844
Cl        3.67495258473768    0.00000000000000   -3.90457167199672
62
 energy: -137.525305005172 gnorm: 0.107790505776 xtb: 6.4.1 (a3dbbd7)
C        -1.24995631907475    0.00000000000000    3.35569484119634
C        -0.36459702326852   -1.18335310160065    3.32866756650400
C         1.00071511731806   -0.72491416998079    3.31747680621575
C         1.00071511731806    0.72491416998079    3.31747680621575
C        -0.36459702326852    1.18335310160065    3.32866756650400
C         2.33913691121085   -2.59202644482239    0.59733431056786
C         3.18627761881832   -1.42262200824940    0.59760795815954
C         2.95352698694110   -0.69526474589170    1.82602572466925
C         1.95995823795897   -1.42225819223239    2.58573216257002
C         1.58123116707406   -2.59153668692874    1.82670486606210
C         3.18627761881832    1.42262200824940    0.59760795815954
C         2.33913691121085    2.59202644482239    0.59733431056786
C         1.58123116707406    2.59153668692874    1.82670486606210
C         1.95995823795896    1.42225819223239    2.58573216257002
C         2.95352698694110    0.69526474589170    1.82602572466925
C        -0.36201206710409    3.46226370296175    0.59450547233359
C        -1.74097656319773    3.01818663935860    0.59557706540642
C        -1.97274560060220    2.29628419148825    1.81510432785603
C        -0.73335400501991    2.29424059993240    2.58282703169485
C         0.25651265382881    3.02230734298144    1.82704705856001
C        -3.42149155194915    0.72332554340452    0.57764916000314
C        -3.42149155194915   -0.72332554340452    0.57764916000314
C        -2.79525158279880   -1.16720476864942    1.80307382191667
C        -2.43112209081495    0.00000000000000    2.54330235186122
C        -2.79525158279880    1.16720476864942    1.80307382191666
C        -1.74097656319773   -3.01818663935860    0.59557706540642
C        -0.36201206710409   -3.46226370296175    0.59450547233359
C         0.25651265382881   -3.02230734298144    1.82704705856001
C        -0.73335400501991   -2.29424059993240    2.58282703169485
C        -1.97274560060220   -2.29628419148825    1.81510432785603
C        -0.24913128779384   -3.01823278451334   -1.82349234856147
C         0.73667330502775   -2.29820735811833   -2.58207149125799
C         1.97000766459800   -2.29335025397036   -1.81017221555839
C         1.74440744692136   -3.02282670264942   -0.58740826248727
C         0.36692078939851   -3.46277163833452   -0.58858372963169
C         2.78645786725606   -1.17693920962447   -1.80376231493303
C         2.48284248958088   -0.00000000000000   -2.65156262669028
C         2.78645786725606    1.17693920962447   -1.80376231493303
C         3.40315217500771    0.72402240270688   -0.58620437489370
C         3.40315217500771   -0.72402240270688   -0.58620437489370
C         1.97000766459800    2.29335025397036   -1.81017221555839
C         0.73667330502775    2.29820735811833   -2.58207149125799
C        -0.24913128779384    3.01823278451334   -1.82349234856147
C         0.36692078939851    3.46277163833452   -0.58858372963169
C         1.74440744692136    3.02282670264943   -0.58740826248727
C        -1.58023101952838    2.59016723975862   -1.82028298126692
C        -1.96288140617243    1.42050661468241   -2.58252844690823
C        -2.95793562790424    0.69554453987623   -1.82632235425353
C        -3.19144846222966    1.42140516893756   -0.59919092896869
C        -2.33574015336951    2.58985337017220   -0.59595550539618
C        -2.95793562790424   -0.69554453987623   -1.82632235425353
C        -1.96288140617243   -1.42050661468240   -2.58252844690823
C        -1.58023101952838   -2.59016723975862   -1.82028298126692
C        -2.33574015336952   -2.58985337017220   -0.59595550539618
C        -3.19144846222966   -1.42140516893756   -0.59919092896869
C        -1.01025037160863   -0.72238668269763   -3.31119455765839
C        -1.01025037160863    0.72238668269763   -3.31119455765839
C         0.36704391209897    1.16614255652677   -3.31467085699413
C         1.20312692854147    0.00000000000000   -3.31972672266477
C         0.36704391209897   -1.16614255652677   -3.31467085699413
Cl       -1.88233015684564   -0.00000000000000    5.10002973287214
Cl        3.75557510250284   -0.00000000000000   -3.98614010008213
62
 energy: -137.545092519483 gnorm: 0.041034491334 xtb: 6.4.1 (a3dbbd7)
C        -1.28672901967397    0.00000000000000    3.47612283840865
C        -0.35356169527278   -1.17938503414231    3.28456826226152
C         0.99344828302098   -0.72157217392868    3.28844304007042
C         0.99344828302098    0.72157217392868    3.28844304007042
C        -0.35356169527278    1.17938503414232    3.28456826226152
C         2.33616599673434   -2.58299455841377    0.60057211659107
C         3.17557193164623   -1.42001647395994    0.59962409228167
C         2.94746376042678   -0.69210823808180    1.82228943558514
C         1.95744060583981   -1.42036616842179    2.57395739984920
C         1.58209789583822   -2.58404516661049    1.82201729695312
C         3.17557193164622    1.42001647395994    0.59962409228166
C         2.33616599673434    2.58299455841378    0.60057211659106
C         1.58209789583821    2.58404516661050    1.82201729695312
C         1.95744060583981    1.42036616842179    2.57395739984919
C         2.94746376042677    0.69210823808180    1.82228943558513
C        -0.35986088688092    3.44824336231456    0.58961212014285
C        -1.73644490320717    3.00325398957767    0.59437164405279
C        -1.96820269551439    2.29098090496629    1.79769109713706
C        -0.72256478651911    2.27942785302129    2.55478230249308
C         0.25862783673514    3.01241085527528    1.81640215320886
C        -3.41196578976033    0.71920459918222    0.56815599031759
C        -3.41196578976034   -0.71920459918221    0.56815599031759
C        -2.77729322928247   -1.15187818678163    1.79044282131532
C        -2.43360563902107    0.00000000000000    2.52998886169210
C        -2.77729322928247    1.15187818678163    1.79044282131532
C        -1.73644490320718   -3.00325398957769    0.59437164405280
C        -0.35986088688092   -3.44824336231456    0.58961212014286
C         0.25862783673515   -3.01241085527528    1.81640215320887
C        -0.72256478651911   -2.27942785302129    2.55478230249308
C        -1.96820269551441   -2.29098090496630    1.79769109713708
C        -0.24551673335601   -3.00300341321526   -1.81908810925272
C         0.72666459879777   -2.29152291391014   -2.56529588889982
C         1.96296394065073   -2.28023045682563   -1.79173054126372
C         1.73888157468394   -3.00914201134978   -0.58071918380804
C         0.36635968343134   -3.44717348358605   -0.58519127092602
C         2.77226154821266   -1.17783725090303   -1.78412471524996
C         2.55430598341292    0.00000000000000   -2.71945722785420
C         2.77226154821267    1.17783725090304   -1.78412471524997
C         3.37984907958022    0.72159834326496   -0.58312606706672
C         3.37984907958021   -0.72159834326496   -0.58312606706672
C         1.96296394065073    2.28023045682563   -1.79173054126372
C         0.72666459879776    2.29152291391012   -2.56529588889980
C        -0.24551673335602    3.00300341321525   -1.81908810925272
C         0.36635968343133    3.44717348358605   -0.58519127092602
C         1.73888157468393    3.00914201134978   -0.58071918380804
C        -1.58173823782416    2.57872542891451   -1.81262986876947
C        -1.96312889752251    1.41485776604903   -2.57714369954683
C        -2.95570402954925    0.69264621744150   -1.82658322613028
C        -3.18352634210485    1.41463141671647   -0.60280223809928
C        -2.32927554039718    2.57866615629058   -0.60309278984526
C        -2.95570402954927   -0.69264621744150   -1.82658322613029
C        -1.96312889752252   -1.41485776604904   -2.57714369954684
C        -1.58173823782417   -2.57872542891452   -1.81262986876948
C        -2.32927554039719   -2.57866615629058   -0.60309278984527
C        -3.18352634210486   -1.41463141671647   -0.60280223809928
C        -1.01663244522938   -0.71860233448529   -3.30198897869108
C        -1.01663244522938    0.71860233448530   -3.30198897869107
C         0.36081753389087    1.15084412564529   -3.28574271462680
C         1.17666765586382    0.00000000000000   -3.30463414641578
C         0.36081753389087   -1.15084412564529   -3.28574271462680
Cl       -1.92786363376690    0.00000000000001    5.25056069711934
Cl        3.83691475476102    0.00000000000001   -4.07133857912573
62
 energy: -137.547351333471 gnorm: 0.021365276924 xtb: 6.4.1 (a3dbbd7)
C        -1.29260502891956   -0.00000000000002    3.49749949996230
C        -0.36561435836289   -1.17760295652728    3.31036283877016
C         0.98590800524584   -0.72139429031277    3.29742673604570
C         0.98590800524584    0.72139429031277    3.29742673604570
C        -0.36561435836290    1.17760295652723    3.31036283877016
C         2.33689518580168   -2.57917437020853    0.59929701775549
C         3.17607652714940   -1.41596458029433    0.59488277364908
C         2.94679163260464   -0.69189431777693    1.82184669124655
C         1.95336007966941   -1.41637232540243    2.57690648346434
C         1.58148583761968   -2.57955255721497    1.82335490546777
C         3.17607652714941    1.41596458029434    0.59488277364908
C         2.33689518580166    2.57917437020850    0.59929701775550
C         1.58148583761968    2.57955255721493    1.82335490546775
C         1.95336007966940    1.41637232540244    2.57690648346434
C         2.94679163260465    0.69189431777695    1.82184669124656
C        -0.35983151346766    3.44045997285258    0.59045748339270
C        -1.73745270337830    2.99860316920846    0.59536917631089
C        -1.97049128453557    2.28886568799820    1.80266713485681
C        -0.72875568349464    2.27596925644565    2.56831955417625
C         0.25579164535943    3.00071221681464    1.81819251103818
C        -3.41007749819325    0.71920708668952    0.57107536481144
C        -3.41007749819317   -0.71920708668953    0.57107536481142
C        -2.77848326539002   -1.15033212177655    1.79882842562574
C        -2.42982368484025   -0.00000000000002    2.54553503706219
C        -2.77848326539008    1.15033212177655    1.79882842562576
C        -1.73745270337826   -2.99860316920837    0.59536917631082
C        -0.35983151346767   -3.44045997285259    0.59045748339268
C         0.25579164535943   -3.00071221681466    1.81819251103817
C        -0.72875568349463   -2.27596925644568    2.56831955417625
C        -1.97049128453545   -2.28886568799811    1.80266713485670
C        -0.24548515773037   -2.99856711032707   -1.82060849867897
C         0.72954157200727   -2.29013542896389   -2.57082223481431
C         1.96951532238381   -2.27644086357951   -1.80204392317144
C         1.73886580981256   -2.99927113631213   -0.58418174982291
C         0.36649069480084   -3.43996823227671   -0.58564729764466
C         2.78951187922275   -1.17568189728415   -1.80606225923860
C         2.56771973015322   -0.00000000000003   -2.73394369101015
C         2.78951187922275    1.17568189728410   -1.80606225923861
C         3.38444795007182    0.72117560467037   -0.59300671283606
C         3.38444795007182   -0.72117560467037   -0.59300671283605
C         1.96951532238381    2.27644086357948   -1.80204392317146
C         0.72954157200731    2.29013542896398   -2.57082223481447
C        -0.24548515773032    2.99856711032715   -1.82060849867904
C         0.36649069480086    3.43996823227669   -0.58564729764466
C         1.73886580981257    2.99927113631212   -0.58418174982292
C        -1.58324863393150    2.57814711041978   -1.81443857244467
C        -1.96505569795922    1.41444343287693   -2.57977040772496
C        -2.96332258933568    0.69361791139268   -1.83104372882428
C        -3.18730981180027    1.41462434629825   -0.60351093100431
C        -2.33131633892477    2.57801275205824   -0.60347879708726
C        -2.96332258933556   -0.69361791139269   -1.83104372882421
C        -1.96505569795916   -1.41444343287689   -2.57977040772487
C        -1.58324863393144   -2.57814711041970   -1.81443857244459
C        -2.33131633892467   -2.57801275205817   -0.60347879708725
C        -3.18730981180017   -1.41462434629821   -0.60351093100430
C        -1.01291523700259   -0.71870321746124   -3.30247841065046
C        -1.01291523700260    0.71870321746122   -3.30247841065054
C         0.36812057694753    1.14982759290714   -3.29209947702382
C         1.19358335466448   -0.00000000000002   -3.31289948332416
C         0.36812057694755   -1.14982759290714   -3.29209947702375
Cl       -1.93994741805858   -0.00000000000009    5.25771972608664
Cl        3.84027337233281   -0.00000000000009   -4.08491587607363
62
 energy: -137.548005567969 gnorm: 0.012150947911 xtb: 6.4.1 (a3dbbd7)
C        -1.29834523617241   -0.00000000000129    3.52017160069024
C        -0.37269506703469   -1.17540711206482    3.31907670766144
C         0.98108030458050   -0.72127940979014    3.29800115593410
C         0.98108030458016    0.72127940978937    3.29800115593395
C        -0.37269506703508    1.17540711206205    3.31907670766143
C         2.33744001094158   -2.57803924346308    0.59846503657378
C         3.17569164437389   -1.41437387329078    0.59241373026168
C         2.94490486731595   -0.69171811102816    1.82030531368651
C         1.95073331657190   -1.41471543163396    2.57676709641615
C         1.58095778494381   -2.57820371198980    1.82371818860845
C         3.17569164437441    1.41437387329035    0.59241373026158
C         2.33744001094090    2.57803924346088    0.59846503657408
C         1.58095778494379    2.57820371198764    1.82371818860771
C         1.95073331657207    1.41471543163356    2.57676709641668
C         2.94490486731700    0.69171811102838    1.82030531368715
C        -0.35993260837348    3.43659804393926    0.59034083575012
C        -1.73857079929990    2.99800750460100    0.59568047200688
C        -1.97266396039153    2.29047769020295    1.80420838222325
C        -0.73161190647399    2.27352654965280    2.57252731954960
C         0.25419347834157    2.99422659330059    1.81793728913785
C        -3.40549849199772    0.71896048264758    0.57252887467636
C        -3.40549849199395   -0.71896048264862    0.57252887467531
C        -2.77688630453800   -1.14942796713835    1.80392131850635
C        -2.42306802980944   -0.00000000000115    2.55259129444538
C        -2.77688630454166    1.14942796713797    1.80392131850745
C        -1.73857079929692   -2.99800750459657    0.59568047200363
C        -0.35993260837330   -3.43659804393974    0.59034083574914
C         0.25419347834186   -2.99422659330086    1.81793728913704
C        -0.73161190647294   -2.27352654965393    2.57252731954874
C        -1.97266396038497   -2.29047769019822    1.80420838221778
C        -0.24533150008851   -2.99797925469397   -1.82172230468029
C         0.73052459539907   -2.29143088628735   -2.57278358159772
C         1.97241353685569   -2.27376903216527   -1.80565631904150
C         1.73864757127112   -2.99360337866555   -0.58567911042391
C         0.36658209515740   -3.43634306430085   -0.58595069555489
C         2.79800320545147   -1.17430213527073   -1.81728930348596
C         2.57806686120963   -0.00000000000132   -2.74359463918356
C         2.79800320545129    1.17430213526788   -1.81728930348634
C         3.38523649607861    0.72111224824527   -0.59749153285522
C         3.38523649607896   -0.72111224824610   -0.59749153285498
C         1.97241353685596    2.27376903216410   -1.80565631904283
C         0.73052459540103    2.29143088629221   -2.57278358160615
C        -0.24533150008697    2.99797925469839   -1.82172230468437
C         0.36658209515819    3.43634306430039   -0.58595069555545
C         1.73864757127170    2.99360337866529   -0.58567911042453
C        -1.58383770623410    2.57905314856602   -1.81508592397205
C        -1.96554888183960    1.41476890548800   -2.58081294771912
C        -2.96574333705747    0.69424163187002   -1.83263857908179
C        -3.18819224024580    1.41499565306689   -0.60366236830642
C        -2.33199468591375    2.57899124245587   -0.60415825271027
C        -2.96574333705109   -0.69424163187007   -1.83263857907784
C        -1.96554888183587   -1.41476890548570   -2.58081294771387
C        -1.58383770623047   -2.57905314856187   -1.81508592396736
C        -2.33199468590793   -2.57899124245171   -0.60415825270917
C        -3.18819224023948   -1.41499565306461   -0.60366236830545
C        -1.01006480692796   -0.71867059364007   -3.30037181568034
C        -1.01006480692873    0.71867059363902   -3.30037181568420
C         0.37283412851263    1.14914862979873   -3.29204057364259
C         1.20155444665485   -0.00000000000115   -3.31073582780317
C         0.37283412851330   -1.14914862979908   -3.29204057363880
Cl       -1.95043854366200   -0.00000000000379    5.26360050967051
Cl        3.83697523869212   -0.00000000000378   -4.09454635829846
62
 energy: -137.548214381119 gnorm: 0.007157812226 xtb: 6.4.1 (a3dbbd7)
C        -1.30079150892928   -0.00000000000569    3.53087092847631
C        -0.37468830569680   -1.17422971276549    3.31765268008451
C         0.97968863330784   -0.72128764682214    3.29575542471421
C         0.97968863330619    0.72128764681942    3.29575542471316
C        -0.37468830569890    1.17422971275281    3.31765268008400
C         2.33801811092043   -2.57872335555838    0.59836896915477
C         3.17572819430602   -1.41445470343490    0.59219897717114
C         2.94438177042493   -0.69171988961655    1.81974888462154
C         1.95020067234676   -1.41463986501970    2.57604368925477
C         1.58094998501744   -2.57877989444395    1.82380608971067
C         3.17572819430859    1.41445470343360    0.59219897717107
C         2.33801811091612    2.57872335554711    0.59836896915620
C         1.58094998501674    2.57877989443276    1.82380608970629
C         1.95020067234776    1.41463986501848    2.57604368925735
C         2.94438177043053    0.69171988961839    1.81974888462518
C        -0.36003097867678    3.43693492235274    0.59014721805110
C        -1.73922617095197    2.99954382527684    0.59563581292332
C        -1.97368200398186    2.29255805877360    1.80406553652597
C        -0.73204020594812    2.27331807408455    2.57219034961900
C         0.25394901566270    2.99303605982000    1.81732422675038
C        -3.40286730667614    0.71871936079142    0.57287185336317
C        -3.40286730665794   -0.71871936079523    0.57287185335845
C        -2.77518573306245   -1.14908772748461    1.80534286488424
C        -2.41830102137570   -0.00000000000440    2.55323645102620
C        -2.77518573308082    1.14908772748465    1.80534286488857
C        -1.73922617093883   -2.99954382525649    0.59563581290828
C        -0.36003097867595   -3.43693492235634    0.59014721804702
C         0.25394901566459   -2.99303605982258    1.81732422674805
C        -0.73204020594313   -2.27331807409031    2.57219034961623
C        -1.97368200395006   -2.29255805874985    1.80406553650059
C        -0.24521066134849   -2.99950627720512   -1.82218591435072
C         0.73062001485988   -2.29296016087097   -2.57271324016103
C         1.97283251645782   -2.27334528544158   -1.80531555531640
C         1.73874384758623   -2.99280415331583   -0.58568371467611
C         0.36671496992829   -3.43680862343450   -0.58607907641688
C         2.79896274316179   -1.17390149289309   -1.81902108605720
C         2.58043207317381   -0.00000000000572   -2.74569428094492
C         2.79896274316039    1.17390149288026   -1.81902108605883
C         3.38479983036470    0.72122798297510   -0.59773090239172
C         3.38479983036652   -0.72122798297789   -0.59773090239084
C         1.97283251645802    2.27334528543574   -1.80531555532208
C         0.73062001486841    2.29296016089514   -2.57271324020131
C        -0.24521066134083    2.99950627722554   -1.82218591436929
C         0.36671496993160    3.43680862343097   -0.58607907641941
C         1.73874384758745    2.99280415331326   -0.58568371467881
C        -1.58376200957338    2.58014832875070   -1.81524066448200
C        -1.96532091900465    1.41515510021201   -2.58109676578315
C        -2.96510376079683    0.69438599947963   -1.83244974813817
C        -3.18781440984288    1.41527071984259   -0.60350136923991
C        -2.33193565204534    2.58014090264360   -0.60453845022655
C        -2.96510376076492   -0.69438599947872   -1.83244974811758
C        -1.96532091898698   -1.41515510020007   -2.58109676575797
C        -1.58376200955703   -2.58014832873235   -1.81524066446035
C        -2.33193565201900   -2.58014090262539   -0.60453845022136
C        -3.18781440981325   -1.41527071983103   -0.60350136923480
C        -1.00915958225768   -0.71862193581584   -3.29937028184082
C        -1.00915958226191    0.71862193581204   -3.29937028185981
C         0.37414167952613    1.14895572963171   -3.29008116490522
C         1.20269630881224   -0.00000000000434   -3.30613243693558
C         0.37414167953061   -1.14895572963157   -3.29008116488658
Cl       -1.95400896209205   -0.00000000002221    5.25975556053093
Cl        3.82865075791212   -0.00000000002181   -4.09574210380557
62
 energy: -137.548297192003 gnorm: 0.003401827579 xtb: 6.4.1 (a3dbbd7)
C        -1.30170494702367   -0.00000000009315    3.53492284982123
C        -0.37442619491483   -1.17388523668684    3.31402951733387
C         0.97971357408411   -0.72132379816862    3.29379776312350
C         0.97971357405634    0.72132379812664    3.29379776310945
C        -0.37442619495085    1.17388523648422    3.31402951732598
C         2.33841931767408   -2.57957198617239    0.59857411388851
C         3.17599019031576   -1.41492841221445    0.59268859353091
C         2.94458389414297   -0.69176872580067    1.81979807806459
C         1.95042139905075   -1.41494911010617    2.57552912956829
C         1.58112699607250   -2.57956664720637    1.82380059759450
C         3.17599019035297    1.41492841219765    0.59268859352422
C         2.33841931761057    2.57957198600654    0.59857411390793
C         1.58112699606109    2.57956664704096    1.82380059752939
C         1.95042139906081    1.41494911009004    2.57552912960591
C         2.94458389422011    0.69176872583425    1.81979807811346
C        -0.36003721227747    3.43835825859952    0.59009537210700
C        -1.73942909534429    3.00089852051260    0.59560321638947
C        -1.97396312760272    2.29379200506453    1.80363297572823
C        -0.73166157710084    2.27401375130523    2.57107922675409
C         0.25422969231144    2.99383510636570    1.81695926678304
C        -3.40210119641201    0.71855643065785    0.57279521956775
C        -3.40210119612219   -0.71855643072122    0.57279521948840
C        -2.77414941304371   -1.14892668528223    1.80511057666899
C        -2.41618311340648   -0.00000000007618    2.55177704692802
C        -2.77414941333006    1.14892668527397    1.80511057674880
C        -1.73942909514001   -3.00089852019624    0.59560321615000
C        -0.36003721226928   -3.43835825865262    0.59009537204022
C         0.25422969233894   -2.99383510640100    1.81695926674126
C        -0.73166157702238   -2.27401375139871    2.57107922671384
C        -1.97396312710621   -2.29379200469882    1.80363297532567
C        -0.24503140251471   -3.00086355142485   -1.82221911010269
C         0.73059340702751   -2.29375159337078   -2.57210845764666
C         1.97263620101487   -2.27389464269931   -1.80409616732814
C         1.73900236034221   -2.99382989096503   -0.58523107619371
C         0.36687749350387   -3.43833835032412   -0.58604525777468
C         2.79756375856744   -1.17406378611820   -1.81724887482534
C         2.57968716064278   -0.00000000009363   -2.74522483940925
C         2.79756375854396    1.17406378591398   -1.81724887485325
C         3.38449909659284    0.72134335417709   -0.59676765018052
C         3.38449909661829   -0.72134335421995   -0.59676765016289
C         1.97263620101549    2.27389464260438   -1.80409616741606
C         0.73059340716589    2.29375159373826   -2.57210845827443
C        -0.24503140239144    3.00086355174132   -1.82221911039312
C         0.36687749356021    3.43833835027121   -0.58604525781193
C         1.73900236036715    2.99382989092904   -0.58523107623695
C        -1.58347852249722    2.58070021254801   -1.81517992195897
C        -1.96493170983907    1.41530490452464   -2.58101764836863
C        -2.96400536755322    0.69431902636489   -1.83191887153584
C        -3.18717958817921    1.41531463802627   -0.60330180736976
C        -2.33164039464347    2.58071561500666   -0.60467310714523
C        -2.96400536708685   -0.69431902635350   -1.83191887124243
C        -1.96493170957378   -1.41530490434236   -2.58101764798372
C        -1.58347852224852   -2.58070021225723   -1.81517992162451
C        -2.33164039423548   -2.58071561471726   -0.60467310707119
C        -3.18717958772072   -1.41531463784647   -0.60330180730150
C        -1.00925780462066   -0.71858401160696   -3.29940356694801
C        -1.00925780468118    0.71858401154374   -3.29940356724651
C         0.37385976580083    1.14890910288309   -3.28835561510897
C         1.20136991077123   -0.00000000007636   -3.30270297432599
C         0.37385976585857   -1.14890910289091   -3.28835561481508
Cl       -1.95391287740182   -0.00000000032741    5.25184423689136
Cl        3.82038099922144   -0.00000000032225   -4.09388594442022
62
 energy: -137.548313388580 gnorm: 0.001487266806 xtb: 6.4.1 (a3dbbd7)
C        -1.30170799160559    0.00000000058776    3.53454234717860
C        -0.37360168531267   -1.17416072248760    3.31279276908179
C         0.98011740446394   -0.72134311911715    3.29360751787272
C         0.98011740463469    0.72134311914628    3.29360751789304
C        -0.37360168508422    1.17416072375633    3.31279276914339