108
 energy: -320.353917303413 gnorm: 3.993577028241 xtb: 6.4.1 (a3dbbd7)
C        -1.23626340000000    0.00000000000000    3.32997640000000
C        -0.38202640000000   -1.17575640000000    3.32997640000000
C         1.00015810000000   -0.72665740000000    3.32997640000000
C         1.00015810000000    0.72665740000000    3.32997640000000
C        -0.38202640000000    1.17575640000000    3.32997640000000
C         2.34433560000000   -2.60145750000000    0.59464210000000
C         3.19857260000000   -1.42570110000000    0.59464210000000
C         2.96246730000000   -0.69904370000000    1.83090550000000
C         1.96230920000000   -1.42570110000000    2.59495830000000
C         1.58028280000000   -2.60145750000000    1.83090550000000
C         3.19857260000000    1.42570110000000    0.59464210000000
C         2.34433560000000    2.60145750000000    0.59464210000000
C         1.58028280000000    2.60145750000000    1.83090550000000
C         1.96230920000000    1.42570110000000    2.59495830000000
C         2.96246730000000    0.69904370000000    1.83090550000000
C        -0.36750900000000    3.48258920000000    0.59464210000000
C        -1.74969350000000    3.03349030000000    0.59464210000000
C        -1.98579880000000    2.30683290000000    1.83090550000000
C        -0.74953540000000    2.30683290000000    2.59495830000000
C         0.25062270000000    3.03349030000000    1.83090550000000
C        -3.42570570000000    0.72665740000000    0.59464210000000
C        -3.42570570000000   -0.72665740000000    0.59464210000000
C        -2.80757400000000   -1.17575640000000    1.83090550000000
C        -2.42554760000000    0.00000000000000    2.59495830000000
C        -2.80757400000000    1.17575640000000    1.83090550000000
C        -1.74969350000000   -3.03349030000000    0.59464210000000
C        -0.36750900000000   -3.48258920000000    0.59464210000000
C         0.25062270000000   -3.03349030000000    1.83090550000000
C        -0.74953540000000   -2.30683290000000    2.59495830000000
C        -1.98579880000000   -2.30683290000000    1.83090550000000
C        -0.25062270000000   -3.03349030000000   -1.83090550000000
C         0.74953540000000   -2.30683290000000   -2.59495830000000
C         1.98579880000000   -2.30683290000000   -1.83090550000000
C         1.74969350000000   -3.03349030000000   -0.59464210000000
C         0.36750900000000   -3.48258920000000   -0.59464210000000
C         2.80757400000000   -1.17575640000000   -1.83090550000000
C         2.42554760000000    0.00000000000000   -2.59495830000000
C         2.80757400000000    1.17575640000000   -1.83090550000000
C         3.42570570000000    0.72665740000000   -0.59464210000000
C         3.42570570000000   -0.72665740000000   -0.59464210000000
C         1.98579880000000    2.30683290000000   -1.83090550000000
C         0.74953540000000    2.30683290000000   -2.59495830000000
C        -0.25062270000000    3.03349030000000   -1.83090550000000
C         0.36750900000000    3.48258920000000   -0.59464210000000
C         1.74969350000000    3.03349030000000   -0.59464210000000
C        -1.58028280000000    2.60145750000000   -1.83090550000000
C        -1.96230920000000    1.42570110000000   -2.59495830000000
C        -2.96246730000000    0.69904370000000   -1.83090550000000
C        -3.19857260000000    1.42570110000000   -0.59464210000000
C        -2.34433560000000    2.60145750000000   -0.59464210000000
C        -2.96246730000000   -0.69904370000000   -1.83090550000000
C        -1.96230920000000   -1.42570110000000   -2.59495830000000
C        -1.58028280000000   -2.60145750000000   -1.83090550000000
C        -2.34433560000000   -2.60145750000000   -0.59464210000000
C        -3.19857260000000   -1.42570110000000   -0.59464210000000
C        -1.00015810000000   -0.72665740000000   -3.32997640000000
C        -1.00015810000000    0.72665740000000   -3.32997640000000
C         0.38202640000000    1.17575640000000   -3.32997640000000
C         1.23626340000000    0.00000000000000   -3.32997640000000
C         0.38202640000000   -1.17575640000000   -3.32997640000000
C        -1.76086815247998    0.00000000000000    4.78849957557021
F        -0.76911826531252    0.00000000000000    5.67468926254662
F        -2.50968386795825   -1.06794314680471    5.04863888333743
F        -2.50968386795825    1.06794314680471    5.04863888333743
C        -0.54413818249354   -1.67468516033722    4.78849957845317
F        -0.23767107904745   -0.73147481112462    5.67468925997942
F        -1.79120914301982   -2.05683909935453    5.04863874564184
F         0.24013968171955   -2.71686350152345    5.04863903502921
C         1.42457227037960    1.03501233722714    4.78849957248258
F         0.62223011468481    0.45207589682711    5.67468926529602
F         2.65809836182651    0.61117154425495    5.04863869666891
F         1.40265511061956    2.33913928186680    5.04863905501621
C         4.92005227074660    1.03501232949151   -0.86730592957069
F         5.35386609588658    0.45207588830481   -1.98125865327758
F         5.14292645153878    2.33913927311179   -1.00324714649869
F         5.70437742108406    0.61117153086585    0.11965558739362
C         2.82790274436383   -2.05459160758554    3.71645040671519
F         3.82797483682855   -2.78118494419178    3.22571836876305
F         3.37293748548841   -1.13053297859378    4.50255013394648
F         2.11749631416700   -2.85850222732984    4.50254863174647
C         1.08016271022039    3.32439912180418   -3.71645041587937
F         1.46215754230407    4.50005299330749   -3.22571838851551
F         2.06425285383526    2.89718320022386   -4.50255037491024
F         0.03290491502765    3.55721032900471   -4.50254840735999
C        -0.34440953624153    4.35941144868709   -2.62817404748705
F         0.83992598883967    4.95213069234126   -2.75037577510431
F        -0.80829780400759    4.16837989546168   -3.85992670963205
F        -1.15529636597892    5.23632261667420   -2.04303359185445
C         4.25247495652193    1.01957928511255    2.62817407757680
F         4.45020405360858    2.32910962270745    2.75037677428972
F         5.33704498641440    0.51936149478961    2.04303305824600
F         4.21414295278388    0.51936236815950    3.85992636334023
C        -4.58877084110522    2.05459160147071   -0.86730597290559
F        -4.59709252483521    2.78118520641283   -1.98125951001435
F        -5.53562669678859    1.13053295630600   -1.00324569798425
F        -4.97417519512416    2.85850196315549    0.11965482382298
C        -3.37204091334889   -3.72927672645244   -0.86730596148276
F        -4.06564647311728   -3.51265957144662   -1.98125763710229
F        -2.78580317558593   -4.91533944031228   -1.00324916143777
F        -4.25569947457673   -3.84739838595791    0.11965645964807
C        -4.03961820246674   -1.67468514775899    2.62817407948106
F        -4.96930660042402   -0.73147479244129    2.75037763231441
F        -4.62303373288711   -2.71686348978894    2.04303253910982
F        -3.71458666614022   -2.05683907990832    3.85992603200073
C        -1.42457227037960    1.03501233722714   -4.78849957248258
F        -0.62223011468481    0.45207589682711   -5.67468926529602
F        -2.65809836182651    0.61117154425495   -5.04863869666891
F        -1.40265511061956    2.33913928186680   -5.04863905501621
108
 energy: -322.050318836776 gnorm: 1.276584940807 xtb: 6.4.1 (a3dbbd7)
C        -1.23879873711809    0.00509223007912    3.32730403479404
C        -0.37858125654318   -1.17886638617702    3.32844800965955
C         0.99708689272420   -0.72550657999423    3.33307331785599
C         1.00084751811483    0.72870751245960    3.33389114570708
C        -0.38478223723927    1.18276890615048    3.33189414607192
C         2.34263564281554   -2.60123187356057    0.59673796061738
C         3.19548065864341   -1.42445905591688    0.59667068218516
C         2.96683586335184   -0.70626942816802    1.82429990028407
C         1.96914914292682   -1.43133586270739    2.59778270740018
C         1.57787026703817   -2.60461138685156    1.82254186751130
C         3.18875442301542    1.43452645070290    0.59580039412789
C         2.34605445354622    2.59704406087125    0.59581272175784
C         1.58078764641166    2.59615955622829    1.83196492617058
C         1.96033104667406    1.43506539636386    2.58450704635035
C         2.96495850083133    0.70445097372214    1.83173081288524
C        -0.36767034797164    3.48172256685390    0.59868340574483
C        -1.74876113359737    3.03293084400057    0.59572650535702
C        -1.98452702252115    2.30820919542016    1.82978226054799
C        -0.75016991135620    2.30660643846850    2.59061122257595
C         0.24782054790304    3.03491665600711    1.82916315559772
C        -3.42198971716326    0.71785741267242    0.60294217945757
C        -3.42365334874632   -0.71978951326186    0.58771953632749
C        -2.81845535435083   -1.17783309398927    1.83232138446844
C        -2.42971717724792    0.00765254791624    2.58687951258932
C        -2.80431321484968    1.17152631033414    1.83021919841354
C        -1.74153875007462   -3.03139679084581    0.60487795461109
C        -0.36794443329775   -3.48161224666052    0.59513579460947
C         0.24970951297810   -3.03216126450913    1.82937301770296
C        -0.75102795122602   -2.31309079922508    2.58525436797886
C        -1.97361857278983   -2.31376105974341    1.82852274791873
C        -0.24999191242022   -3.03163746749308   -1.83104339884981
C         0.74973268182005   -2.30763932504495   -2.59383669213087
C         1.98427480044980   -2.30769361783403   -1.82998623702831
C         1.74743281537347   -3.03365608521093   -0.59597363861581
C         0.36930582217836   -3.48126379964926   -0.59432301488108
C         2.80745217667175   -1.17433097673259   -1.82895269044776
C         2.42649972480649    0.00129676715896   -2.59377767109721
C         2.79930914775271    1.17381660247120   -1.83487316035417
C         3.43216789517108    0.72756469018791   -0.59862785778284
C         3.42698400724950   -0.73320373381185   -0.59739850952050
C         1.99039483747089    2.30733669246092   -1.82542274101005
C         0.75455330229585    2.30258084593916   -2.59788579336049
C        -0.25316415923605    3.03956825927124   -1.82693046356745
C         0.37332007367423    3.48080521324616   -0.58789542136492
C         1.74707219599997    3.03325625425129   -0.59502088272238
C        -1.59010158835377    2.59372894925705   -1.82983470442745
C        -1.96771860394721    1.42677052371085   -2.58231860940621
C        -2.95564704080721    0.69689926229511   -1.83498862303521
C        -3.20840541056677    1.43195010782828   -0.59784524489372
C        -2.33666452044520    2.60273024903412   -0.59524235495434
C        -2.96182514590716   -0.70058504751421   -1.82936488090488
C        -1.96048284729588   -1.42713160781627   -2.59335898814693
C        -1.57432969724269   -2.60140441668235   -1.83506433993827
C        -2.35337148359791   -2.60507486926787   -0.59803499796771
C        -3.19834468325757   -1.41688900197234   -0.59792371061229
C        -0.99874171890318   -0.73389934242467   -3.33089382050964
C        -1.00080677540614    0.72653733319272   -3.33321709410648
C         0.38712019150960    1.16550020703356   -3.33081855670981
C         1.23357223436398    0.00080483481451   -3.33069555868104
C         0.37984694098511   -1.17505991282558   -3.32862101404745
C        -1.78644185787935    0.01779411741245    4.77328214457268
F        -0.84701196349467    0.05877539449267    5.69862973811648
F        -2.59895329108016   -0.95239755200331    5.05823445242786
F        -2.51462945296764    1.07833643154243    5.04982927776284
C        -0.54020535705127   -1.70338043753009    4.77319261246193
F        -0.20171562853495   -0.82676565982320    5.69770691422438
F        -1.71524723340037   -2.18099277067613    5.05390386503213
F         0.23813427272941   -2.72390962191855    5.05203389988610
C         1.43692493900242    1.04492916502417    4.78289456675803
F         0.68073611725132    0.49484494840873    5.68807159191278
F         2.65313700646534    0.61932783839682    5.05785819246058
F         1.40334516506588    2.34404956508174    5.04984120664366
C         4.92324240881792    1.03438522617382   -0.86843629240805
F         5.35531960208349    0.45201440896020   -1.98321558121456
F         5.14350307635832    2.34112242370937   -1.00392405551510
F         5.70798961961025    0.61125305999715    0.11130141921506
C         2.83195330127588   -2.05711807050186    3.71556152873961
F         3.83004664180356   -2.78296920355401    3.22580582193691
F         3.37349103162177   -1.14466543136060    4.50558142161732
F         2.12527039865733   -2.86118347917692    4.50212541030559
C         1.08548329033001    3.29794824582843   -3.73161076906210
F         1.54694075684530    4.47077786425869   -3.27731600600321
F         2.07384913053870    2.89331606386504   -4.50713988121535
F         0.14381283282565    3.48711906642976   -4.59087557518789
C        -0.37386122081549    4.35511739890573   -2.61684662497963
F         0.78654058841441    5.02248285848038   -2.69649505425418
F        -0.92034988988792    4.25074382129258   -3.78366101861606
F        -1.16068392846250    5.24347485297112   -2.03604372842746
C         4.25512583573622    1.02143401377718    2.62912241205791
F         4.45143310669135    2.33130477986797    2.75081121313129
F         5.33712185388999    0.51846079121279    2.05173324548266
F         4.22529976445296    0.52582411669263    3.85425781369486
C        -4.59219436368787    2.05593913249049   -0.86791266557693
F        -4.59800469036485    2.78263124852973   -1.98270506782345
F        -5.53675261648201    1.13021070388761   -1.00349580916927
F        -4.97508842044677    2.85967849869032    0.12037989752193
C        -3.37461888534417   -3.73152277209219   -0.86824111536993
F        -4.06718306737239   -3.51331310843519   -1.98284814061806
F        -2.78560681449179   -4.91680629392116   -1.00359513796963
F        -4.25669185390201   -3.84905218447323    0.11869667596678
C        -4.04365081279942   -1.67562846222888    2.62637021708466
F        -4.97125181838925   -0.73070628325378    2.75153529269879
F        -4.62473968216340   -2.71709940330433    2.04460665325848
F        -3.72040766430204   -2.06196639516659    3.85763426380522
C        -1.42633032321627    1.03223109768013   -4.79092950946118
F        -0.62162708084307    0.45206106523417   -5.67677108896857
F        -2.65950264679952    0.61084036488858   -5.04961959799922
F        -1.40899888707442    2.33636023436116   -5.05284546386816
108
 energy: -322.583480225264 gnorm: 1.150705045685 xtb: 6.4.1 (a3dbbd7)
C        -1.24911257716796    0.01652853748157    3.34116078753404
C        -0.37709049256174   -1.19048980846094    3.33811153944422
C         0.99446461369069   -0.72247125065316    3.32378934059628
C         1.00762710839329    0.74058252482147    3.36591011593043
C        -0.38899780065005    1.19785785407928    3.30930748811558
C         2.33739291535054   -2.60480065588902    0.59755680012127
C         3.18257007252546   -1.42521124091078    0.59663145213272
C         2.96037696437295   -0.71683007691208    1.79771631329808
C         1.98523495111468   -1.44670941242736    2.60225576377885
C         1.57224257700902   -2.61031403406330    1.80133467710649
C         3.16950010647190    1.45065024097569    0.59199514739658
C         2.34670608555040    2.58716024247589    0.59747335904838
C         1.57764425623608    2.58706534907617    1.82868204082899
C         1.95364569008418    1.45296773566371    2.56234654211563
C         2.98832517792674    0.71723716716741    1.84195237156570
C        -0.36556433909596    3.47644543735821    0.60991762639302
C        -1.74513050460385    3.03193628210789    0.60080411418491
C        -1.98506622681233    2.31616921135515    1.82880450107162
C        -0.75230448591856    2.30481950399947    2.57277681327250
C         0.24276113995952    3.04020812563736    1.82787371174095
C        -3.41615848565336    0.70233964218355    0.61393404508323
C        -3.40975526275433   -0.70479065405527    0.57456975508341
C        -2.84555963142748   -1.18684611671700    1.84663559394475
C        -2.43778083633660    0.02337378175169    2.56712793739025
C        -2.79350698889058    1.16439212870556    1.82326932182781
C        -1.72411175872507   -3.02752439379600    0.61589295889331
C        -0.36479923691490   -3.47832052315708    0.59226605531278
C         0.24937072915778   -3.03155812931784    1.82003710019554
C        -0.75026796570719   -2.32892387104640    2.56020094631571
C        -1.94698095545469   -2.31699401249797    1.80662736057605
C        -0.24629439567579   -3.02511331703007   -1.83199697693504
C         0.75052382116532   -2.30946055508405   -2.59199094921136
C         1.98084695685715   -2.31056891409784   -1.82851426180481
C         1.74267786520289   -3.03434653505508   -0.59988150665335
C         0.37276568394370   -3.48031483019280   -0.59461452226732
C         2.80269718324507   -1.17334463306977   -1.82301871371416
C         2.42783049945329    0.00083014757369   -2.58982545201805
C         2.78199984443104    1.16346917406030   -1.83791435991853
C         3.46902256643265    0.73033428830203   -0.61111995498447
C         3.40840900510454   -0.74577497479554   -0.60011726114590
C         1.99774425626660    2.29788816181591   -1.81135717548897
C         0.76726162851766    2.30708358018396   -2.60952669100710
C        -0.25809556896077    3.05998174287812   -1.83150995399241
C         0.38588833102777    3.47788331148661   -0.57212689667830
C         1.74282277785522    3.02987139204555   -0.59448728752421
C        -1.60721438539095    2.57511296812882   -1.81332282371544
C        -1.97289119753927    1.42206871435986   -2.55699755640353
C        -2.94275062811848    0.69059677610536   -1.83955193227748
C        -3.23764425111419    1.44618778322833   -0.60609763611242
C        -2.32161363861615    2.60040034087389   -0.58670682366826
C        -2.95609537731972   -0.70402018439561   -1.82694632996123
C        -1.95431624417197   -1.42946064268206   -2.58763797479862
C        -1.55901322418341   -2.58493887031287   -1.83917152601241
C        -2.37644496641779   -2.63209242414199   -0.60872224389587
C        -3.19254603297154   -1.40043670426763   -0.60564284378589
C        -0.98957412248506   -0.74828084849397   -3.31168253574789
C        -1.01103074818886    0.72627109224522   -3.37434834128129
C         0.39715809338890    1.14185366794756   -3.32797643043056
C         1.22734197162479   -0.00207985606887   -3.31545962977713
C         0.37711113749365   -1.17741100294454   -3.32313423725960
C        -1.83484100687166    0.02258876527956    4.75820065522339
F        -0.89217863394744    0.06927145688609    5.75670043442654
F        -2.64822027102436   -0.90720102177194    5.08773201363653
F        -2.52270779015176    1.10301013671781    5.04873448524486
C        -0.55635537688558   -1.75133738009393    4.75785595988891
F        -0.21014322374430   -0.86922900002623    5.75640277796943
F        -1.70439909528295   -2.24411316143858    5.06849530872918
F         0.22803317698558   -2.74407006277408    5.06104618345745
C         1.46450458452363    1.07532792841538    4.78410921367502
F         0.75056616028088    0.55174008287817    5.73227702360841
F         2.65494550820616    0.64593501303682    5.08675740076943
F         1.40917130678661    2.37046743897592    5.05182260614751
C         4.93959040885924    1.03555476036876   -0.87756986263443
F         5.36248607411264    0.45286564103125   -1.99422604903383
F         5.14729771015700    2.34799345739781   -1.00796414934402
F         5.72612231666081    0.61039005531742    0.08703385935664
C         2.84653099481549   -2.07029435237739    3.71316168781272
F         3.84204993236556   -2.79228497605393    3.22342427386600
F         3.38074566710578   -1.18225043865676    4.51855217632823
F         2.15124846577516   -2.87613751427249    4.50076263054281
C         1.08742050750810    3.26642552878355   -3.75792870318771
F         1.59995383605223    4.50106040477202   -3.29592273072158
F         2.09564993032631    2.88462949168988   -4.50924339758804
F         0.18235189683804    3.49310948132120   -4.63383918296042
C        -0.41677092925026    4.35159117894913   -2.61037625506938
F         0.79200430417898    5.08045984954679   -2.68168264281771
F        -0.95327960007348    4.28535011821815   -3.77920262733625
F        -1.16892403831757    5.25402110627995   -2.01898203556583
C         4.26867473049836    1.03134986780540    2.63356064946373
F         4.45839262705109    2.34226838940141    2.75138089228588
F         5.34456788337258    0.51590979154302    2.07518812575252
F         4.25959965040713    0.54354599992740    3.84732696204589
C        -4.60700878877552    2.06256739521127   -0.87083136806481
F        -4.60374038991041    2.78832396134147   -1.98759069900911
F        -5.54328357939194    1.12977733483716   -1.00494510209609
F        -4.98068686694283    2.86465945831881    0.12237502031158
C        -3.38601603319207   -3.74389683776580   -0.87319206205932
F        -4.07398193241934   -3.51793855253037   -1.98934686629642
F        -2.78619707276805   -4.92403553214817   -1.00592696137210
F        -4.26270673577214   -3.85747808428278    0.11503753339504
C        -4.06021649580927   -1.68134166325644    2.62701895023612
F        -4.98003221096301   -0.72875547539863    2.75586445134770
F        -4.63531262786876   -2.71989484154692    2.04688803554968
F        -3.74047348562662   -2.08384472658242    3.85030565504521
C        -1.43558251400857    1.02639299419504   -4.80867284139320
F        -0.62066101908808    0.45150427135659   -5.68735252022746
F        -2.66750257010775    0.60578433379945   -5.05605808061715
F        -1.43376956421728    2.33039046747280   -5.06674676927607
108
 energy: -323.328163606340 gnorm: 1.149994778057 xtb: 6.4.1 (a3dbbd7)
C        -1.25751038618924    0.02903198261364    3.36322170470838
C        -0.37094211116280   -1.20084710899500    3.35340193074410
C         0.98936628910018   -0.71758621546699    3.31013594058499
C         1.01469197395106    0.75008012932422    3.40527075552333
C        -0.39307255146674    1.21365844458919    3.28610175272468
C         2.33181632319558   -2.60744278591168    0.60265867998821
C         3.17319122214781   -1.42238672217171    0.60160747453625
C         2.95280479194695   -0.72930138702001    1.76732645924125
C         2.00438237464482   -1.46164569864633    2.61202421269921
C         1.56773638586614   -2.61625276084694    1.77883307801733
C         3.14108062493760    1.46934842138300    0.58784315227758
C         2.35290012092962    2.57382060749029    0.59921485972493
C         1.57754059743615    2.57359955725932    1.82987540804549
C         1.94138112693546    1.47216524445445    2.53503575344631
C         3.01678708114239    0.73145782698940    1.85820294288442
C        -0.36222979466835    3.47024569077811    0.62179430063666
C        -1.74340728772990    3.02965512378000    0.60552081005153
C        -1.98466140855863    2.32479501831987    1.82730052828962
C        -0.75361378781684    2.30099441743528    2.56002824912172
C         0.23556152691676    3.04715774809536    1.82491153052620
C        -3.40703561663362    0.68182524623661    0.62661223705417
C        -3.39811266626827   -0.68657509324203    0.56089503470831
C        -2.87880206482655   -1.19743292913025    1.86673083849111
C        -2.44366265912287    0.04212146272902    2.54566779931864
C        -2.78335079486824    1.15434321482876    1.81978559254566
C        -1.70673367139516   -3.01841691973672    0.63245411161220
C        -0.36255458679447   -3.47491832438402    0.59063301527382
C         0.24826551832045   -3.03026023903325    1.81558406936896
C        -0.75059415772599   -2.34506059625408    2.53760896333716
C        -1.91896479046769   -2.32148267236389    1.78501233526709
C        -0.24458425357736   -3.02014951275065   -1.83426407977755
C         0.74968844548553   -2.31082513409541   -2.58891034423657
C         1.97728089741227   -2.31440573188056   -1.82598888228632
C         1.73746385135199   -3.03443481477294   -0.60448807785167
C         0.37708703103920   -3.47926669378007   -0.59290846291637
C         2.80033633360350   -1.16954275571456   -1.81508810254093
C         2.43113512340295    0.00354327842689   -2.58635676726330
C         2.76116497494869    1.15543868347040   -1.84293405770699
C         3.51091241673170    0.73444584929038   -0.62426774410272
C         3.39238784056891   -0.75983183978114   -0.60524952220497
C         2.00583641630125    2.28920978444983   -1.79360902851131
C         0.78376150783825    2.32288623869043   -2.62868711091987
C        -0.26159062907032    3.09259847548569   -1.84197390691496
C         0.40204996074828    3.47183050853787   -0.55556896940720
C         1.73430139443944    3.02809640923410   -0.59849133760043
C        -1.62518820056726    2.55479186889905   -1.79779891282545
C        -1.97834378008421    1.41907321308287   -2.52647825131890
C        -2.92690146052572    0.68584116210869   -1.84759644197375
C        -3.27086949718988    1.46411849595340   -0.61680696216112
C        -2.30341079691260    2.60074327125946   -0.58254325183913
C        -2.95343843044520   -0.70909975036097   -1.82157295910831
C        -1.94871990084123   -1.43277340580326   -2.58358582691562
C        -1.54310379778812   -2.56905277076906   -1.84555035863582
C        -2.40466177773903   -2.66229245520627   -0.62076418591791
C        -3.18828897438004   -1.38136005049759   -0.61465667058090
C        -0.98032398505689   -0.76361641173449   -3.29455438234409
C        -1.02145517573927    0.72950105787056   -3.42056543042846
C         0.40974293041819    1.11533138386962   -3.32230668945628
C         1.21965228742382    0.00004995233977   -3.30518835747079
C         0.37157381097482   -1.17815663047703   -3.31927386442036
C        -1.89686554344904    0.03582472788229    4.71621425975001
F        -0.96887492993492    0.12288299927407    5.82498343967718
F        -2.70113446065689   -0.84102141821960    5.11607692273946
F        -2.52717768623066    1.13059932235932    5.04235260196485
C        -0.56639002628126   -1.81689300901185    4.71553884452577
F        -0.18568459324334   -0.95681335451988    5.82584347209075
F        -1.67821896023362   -2.32380494537811    5.07625137404035
F         0.22620386667415   -2.75932509526708    5.06354520268630
C         1.48775213397609    1.09670103525490    4.77560403395546
F         0.83129651371154    0.61419492691171    5.77431198989163
F         2.65191967037293    0.66447315289037    5.10524704704283
F         1.41067260780215    2.38815952326933    5.04875294588602
C         4.95168782064994    1.03575869563859   -0.88185908220274
F         5.36658672209892    0.45243426809308   -2.00072913359688
F         5.14886488503229    2.35385086706866   -1.00966894017366
F         5.73752589257777    0.60976810541464    0.06748032716823
C         2.85865983208176   -2.07755715611634    3.71295875043385
F         3.84888206845731   -2.79758244025736    3.22138685126929
F         3.38331821030506   -1.21230366423559    4.52781320244456
F         2.17183130762794   -2.88520785031433    4.49875524141952
C         1.08674091128676    3.20132410144706   -3.79399719194150
F         1.72555274315858    4.49802569678537   -3.35527118868807
F         2.11725113729620    2.86944883474396   -4.51170304845786
F         0.23769204262997    3.48393128089732   -4.68643036527965
C        -0.48854709786003    4.33655521319117   -2.59217555377429
F         0.74693488430076    5.18792270379777   -2.61600914192809
F        -1.00789854774046    4.32390611028699   -3.75779554975400
F        -1.18064912625704    5.26283330896137   -1.99871490779963
C         4.27955870317046    1.03774269988562    2.63799862950862
F         4.46125998233368    2.35033832305490    2.75185865261754
F         5.34771183805622    0.51193440607346    2.09437644563875
F         4.28661026901837    0.55671872051169    3.83811443860302
C        -4.61885191411622    2.06706449533564   -0.87277905402901
F        -4.60678020029651    2.79226076896951   -1.99152345587460
F        -5.54747267138414    1.12854127158550   -1.00579083960283
F        -4.98370595355567    2.86809471517857    0.12444358743238
C        -3.39465427591956   -3.75302776659795   -0.87609888268571
F        -4.07854752397025   -3.52011117648593   -1.99423918901361
F        -2.78552492803401   -4.92924159559442   -1.00713180913799
F        -4.26621132090549   -3.86315760783205    0.11210649843533
C        -4.07293840585716   -1.68612228191685    2.62736351646887
F        -4.98517097632764   -0.72571683399396    2.75879371718715
F        -4.64147493724507   -2.72155030583525    2.05061764098003
F        -3.75285749861935   -2.10049910873657    3.84352071746139
C        -1.44184980545993    1.02182971548258   -4.82084541043370
F        -0.61852560410177    0.45097051536940   -5.69307019176317
F        -2.67267979015601    0.60377144673293   -5.05895544792595
F        -1.45241194884883    2.32499227315378   -5.07481173709451
108
 energy: -323.823291749056 gnorm: 0.565786891538 xtb: 6.4.1 (a3dbbd7)
C        -1.26952029327942    0.03526615325075    3.39885508252177
C        -0.36982402339619   -1.21161143888318    3.38341083308792
C         0.98531510622188   -0.71201774593591    3.29708396059959
C         1.01788935912134    0.75511142431689    3.43397300456770
C        -0.39536806927444    1.22427609993423    3.26513843054362
C         2.32744854677211   -2.61075269268084    0.60659080952989
C         3.16648332122226   -1.42125576389970    0.60441002162254
C         2.94539093323782   -0.73551636768311    1.74586443295142
C         2.02110100672175   -1.47304618050037    2.62350100914930
C         1.56563143779283   -2.62022596504005    1.76208393366981