63
 energy: -142.054745886749 gnorm: 0.136622138370 xtb: 6.4.1 (a3dbbd7)
C        -1.29750015586385   -0.00332986390914    3.53259128384291
C        -0.36662330751186   -1.17665276848352    3.30664507069186
C         0.98616964776834   -0.71907897730420    3.28345800331063
C         0.97960460534774    0.72298388992876    3.28116382332211
C        -0.37123063139343    1.17283027203526    3.30703999424566
C         2.33902808225222   -2.57287964708243    0.59282134541102
C         3.18775381441874   -1.40592934941989    0.58930269986468
C         2.95375934983025   -0.68600072575484    1.81413225258493
C         1.96120405920183   -1.41040140165925    2.57054878390017
C         1.59036597905156   -2.57351223230031    1.81677968982536
C         3.18509045263714    1.42556506459426    0.58677401618036
C         2.33644918538866    2.58955715701350    0.58712295456856
C         1.57732702745437    2.58269052266160    1.81121996042124
C         1.95121649520604    1.42062240906665    2.56339217358200
C         2.94734969899541    0.70178584035143    1.81241871801286
C        -0.36230865601760    3.44984460076387    0.58649915495812
C        -1.73568065385573    3.00856312776383    0.58620129080773
C        -1.97466648707238    2.29051782036392    1.80819368403138
C        -0.73502216685138    2.27460254582232    2.56651749222581
C         0.25013328780141    2.99673212004624    1.80718987334861
C        -3.40556373000186    0.73624756401696    0.57396823263447
C        -3.39656113686751   -0.70087893853968    0.57336766874418
C        -2.76869398640548   -1.13743152688347    1.81131829425690
C        -2.41606481668825   -0.00935770106357    2.54947016075177
C        -2.77763293498784    1.16181023849822    1.80199827311876
C        -1.73897950039868   -3.00369688886198    0.61027095302842
C        -0.34675175341818   -3.43911314840585    0.58927014667112
C         0.26540959524459   -2.99405405130769    1.81086784239501
C        -0.72448106648574   -2.27696612285733    2.56655534431523
C        -1.96661719091772   -2.30337153119419    1.80189055009829
C        -0.25303910441721   -3.21697439825626   -1.93515078628168
C         0.75308145440921   -2.28653916290657   -2.57867440920420
C         1.95238411039292   -2.27005430543362   -1.81108187299871
C         1.72490810125568   -2.99201887192918   -0.58363119559495
C         0.37557574680441   -3.46024706207600   -0.57873868952343
C         2.78760429110383   -1.15277384641970   -1.81491371839878
C         2.41431409213368    0.00739165047242   -2.57035366353322
C         2.79604684339575    1.17540453813949   -1.81886357647572
C         3.41064679229982    0.73155426330899   -0.59398339018568
C         3.40671134080570   -0.71156461677298   -0.59219407131255
C         1.97416914155198    2.29602882113511   -1.81673739726529
C         0.74456425139311    2.29447798281708   -2.57376768155679
C        -0.24519477981105    3.02272291127020   -1.82308616330370
C         0.36643514376396    3.45792956944505   -0.59428177351760
C         1.74064009670815    3.01454722219930   -0.59425933402647
C        -1.56829205833959    2.59366542792251   -1.82366590722493
C        -1.95096538781572    1.43092752853070   -2.58180486333857
C        -2.95240685827341    0.71446038976117   -1.82971357566041
C        -3.18630415806833    1.43422379644892   -0.60509868332397
C        -2.32927637798178    2.59497169040384   -0.60132137479790
C        -2.94754506526652   -0.67313005777755   -1.82391405444887
C        -1.94410239546657   -1.40286442546858   -2.56150397187270
C        -1.58527622402766   -2.56555974461748   -1.79963026731950
C        -2.30667368088430   -2.55904727586024   -0.60742050910323
C        -3.17269142016400   -1.38977890440225   -0.59872192408106
C        -0.99841208662573   -0.71329160109820   -3.30239014224414
C        -0.99320180548013    0.72405697444618   -3.30061797729521
C         0.37942274041569    1.16763777902732   -3.29646704633613
C         1.22337490988637    0.00222195938508   -3.28765862798480
C         0.38284144139822   -1.16484842740713   -3.28531009498081
Cl       -1.93980801969369   -0.00660548094091    5.24287063977443
Cl       -0.38906216058057   -4.77802061432624   -2.87495725020283
Cl        1.49172992441246   -1.05448335393362    4.98874762997742
63
 energy: -142.080401864302 gnorm: 0.059626736375 xtb: 6.4.1 (a3dbbd7)
C        -1.30421860318785    0.00006128237633    3.53083772091081
C        -0.38231602281963   -1.17312139643653    3.29759503473283
C         1.01768086727375   -0.73880385472766    3.38962328906777
C         0.97139559173639    0.73210544140461    3.26878802441723
C        -0.37384488450875    1.17151144910790    3.29663945475049
C         2.34560055487321   -2.57787093722595    0.58039312956720
C         3.19179369610131   -1.41124230006439    0.57797011661548
C         2.94882586908100   -0.69058013341227    1.80249544393115
C         1.98201006601362   -1.42223235061597    2.56403681334891
C         1.59358464308500   -2.56802389287906    1.80216078825855
C         3.18330359863865    1.42507360851901    0.58534198997105
C         2.33449736286158    2.59058169972160    0.58473123936137
C         1.57366887148402    2.58818137620491    1.80740895830125
C         1.94146218034027    1.42207381593779    2.55163908390181
C         2.94499460465371    0.70279177969988    1.80679290739184
C        -0.36502794432436    3.45394485179526    0.58374264116229
C        -1.73781717445742    3.01152466355409    0.58383233886693
C        -1.97642184508059    2.29376017587958    1.80670765154330
C        -0.73915982474478    2.28141075602455    2.56252628021871
C         0.24592308355152    3.00282205649057    1.80497723426684
C        -3.40695934156848    0.73646133268243    0.57237367857112
C        -3.40007295880947   -0.70066920612741    0.57141165656878
C        -2.77589043959287   -1.13669875067592    1.80908627998048
C        -2.42177563629321   -0.00724420345498    2.54787894407119
C        -2.77931911887377    1.16289352327342    1.80049420263176
C        -1.73932911358040   -3.00116976366585    0.60707050673727
C        -0.34595446532200   -3.43672679758791    0.58564000142813
C         0.26631841402753   -2.98882183800726    1.80149837939598
C        -0.72932288281308   -2.26198709713213    2.55286611699913
C        -1.97378211508702   -2.30171657051277    1.79840045953770
C        -0.25292542500265   -3.21767005336240   -1.93918192240073
C         0.75294820666564   -2.28725853314349   -2.58316578336880
C         1.95337442995608   -2.27179640724730   -1.81783897738078
C         1.72727963325776   -2.99646171829734   -0.59266401460781
C         0.37738945324659   -3.46228079423084   -0.58465103378150
C         2.78810079186929   -1.15392176054053   -1.82089738557139
C         2.41436674631927    0.00709253501346   -2.57360589731628
C         2.79637032202114    1.17469494787485   -1.82049764231457
C         3.41174622824165    0.73083276136940   -0.59785863879692
C         3.40908771465399   -0.71300163147390   -0.59933128164107
C         1.97363602309401    2.29577451299642   -1.81842437086645
C         0.74476900958240    2.29381701648841   -2.57462781734893
C        -0.24561757228070    3.02219506488156   -1.82376721426646
C         0.36516301133421    3.45954672684046   -0.59610291398065
C         1.73944114426464    3.01501241048688   -0.59587082982409
C        -1.56894183506173    2.59339243174611   -1.82473864689215
C        -1.95154668741712    1.43088169090575   -2.58270186864899
C        -2.95228036415729    0.71447037217216   -1.83062425690343
C        -3.18657264551205    1.43418386407597   -0.60617483008698
C        -2.33029229541382    2.59577283165063   -0.60263510093813
C        -2.94770520197389   -0.67366294580758   -1.82484178881055
C        -1.94387683966947   -1.40315899732916   -2.56335893910038
C        -1.58438503678655   -2.56477646215460   -1.80231743935417
C        -2.30732961182987   -2.55806295634205   -0.60943482969813
C        -3.17459708613732   -1.39039947246528   -0.60094704981162
C        -0.99834091594925   -0.71285665637323   -3.30414142680329
C        -0.99296277687254    0.72386172986181   -3.30208029533197
C         0.37907324274640    1.16731776747567   -3.29810899737262
C         1.22331823692828    0.00212178742391   -3.29000222127003
C         0.38284941949965   -1.16483727109138   -3.28799667922037
Cl       -1.94480413835480   -0.00239216612622    5.24442581608385
Cl       -0.39121665414505   -4.77875497607584   -2.87780772489414
Cl        1.53331638532069   -1.08184571636185    5.13770564352039
63
 energy: -142.087370912350 gnorm: 0.014607259306 xtb: 6.4.1 (a3dbbd7)
C        -1.30463659043434   -0.00249434254228    3.52827971128547
C        -0.38316577438276   -1.17277257668844    3.30405076494218
C         1.04639307099781   -0.75720258268008    3.49005781116418
C         0.96856270549959    0.72941089388292    3.27190945009581
C        -0.37039834443637    1.16083484946361    3.28670682107062
C         2.34421677331553   -2.57628643193370    0.57475281145624
C         3.18702255858603   -1.41089158894475    0.57339143170388
C         2.93788723541947   -0.69336685750255    1.80243664204397
C         1.98616177760797   -1.42241250638199    2.56173360218514
C         1.59333143718515   -2.55864709163126    1.79838031355521
C         3.17901063820613    1.42160561141905    0.58531677609280
C         2.33064292866197    2.58813381113883    0.58181255274093
C         1.56695075745003    2.58050405015998    1.80289658083448
C         1.93354675869801    1.41563742265390    2.55021524807400
C         2.94415226918040    0.70330986405140    1.80696982639189
C        -0.36820093093574    3.45655144301308    0.58015306030815
C        -1.74048268037422    3.01321824809477    0.57978333765721
C        -1.97654786713378    2.29364085644571    1.80371639940935
C        -0.74080219223424    2.27869813758904    2.55667107554742
C         0.24118116122796    3.00019244572013    1.80084447249093
C        -3.40949031846417    0.73731889081834    0.56895194787654
C        -3.40403274913718   -0.69965615640779    0.56845515003144
C        -2.77882105961268   -1.13305564078812    1.80534284216921
C        -2.42423178409939   -0.00422924167969    2.54640952763301
C        -2.78178155168561    1.16304358721309    1.79826285664499
C        -1.73576454354013   -2.99384862877762    0.60264868024118
C        -0.34264777514707   -3.42921721923733    0.58229211095938
C         0.26896998876120   -2.98409022379719    1.79660049539303
C        -0.72463447337324   -2.24515515201912    2.55000719689335
C        -1.96817786420900   -2.28977374436154    1.79308895486330
C        -0.25308422545094   -3.21789891907247   -1.94515056533570
C         0.75319507293331   -2.28787311844464   -2.59008946073549
C         1.95433876193594   -2.27326440525486   -1.82522122398378
C         1.72699562115058   -2.99649181222152   -0.59911298636604
C         0.37854028463683   -3.46226068897391   -0.59134199432304
C         2.78826638330425   -1.15445554891784   -1.82701471311723
C         2.41397479684911    0.00706015113923   -2.57837448704881
C         2.79530255486620    1.17417829513816   -1.82291176733800
C         3.41043635765075    0.73040504872492   -0.60139294535378
C         3.40634862572749   -0.71301487347942   -0.60330753654105
C         1.97222464893226    2.29565433600815   -1.82183331157233
C         0.74433814907343    2.29305090262148   -2.57740931004379
C        -0.24668578899031    3.02135673535823   -1.82603907465711
C         0.36311874517058    3.46060039770986   -0.59914123123616
C         1.73763599426469    3.01458366457479   -0.59822115785682
C        -1.57038679150590    2.59310993764608   -1.82810972576758
C        -1.95236890048432    1.43067778580781   -2.58577947928405
C        -2.95275230411858    0.71449142598634   -1.83368009931694
C        -3.18812247672446    1.43425951494244   -0.60958859927561
C        -2.33207537609234    2.59645408696198   -0.60615038092517
C        -2.94809164836782   -0.67387151781641   -1.82742304150273
C        -1.94375030515450   -1.40313964861837   -2.56681913367340
C        -1.58396572425168   -2.56373256373615   -1.80694849693731
C        -2.30793156083568   -2.55669178062408   -0.61219004142747
C        -3.17645757477214   -1.39026809374018   -0.60425065794142
C        -0.99838075930605   -0.71220691979559   -3.30815999814391
C        -0.99311609620507    0.72378210407829   -3.30582944760241
C         0.37834986319437    1.16731608669861   -3.30226963020827
C         1.22311272085580    0.00243128677851   -3.29489395292119
C         0.38289975426114   -1.16465696076400   -3.29346438814999
Cl       -1.94430185497752    0.00925476923523    5.24289725555804
Cl       -0.39709347849134   -4.77717103595250   -2.88565727904089
Cl        1.57395491442008   -1.10455011530221    5.25343441782230
63
 energy: -142.087794530355 gnorm: 0.008853546516 xtb: 6.4.1 (a3dbbd7)
C        -1.30307855383066   -0.00400681346945    3.52998578993908
C        -0.37900419252864   -1.17574092350448    3.31674457927251
C         1.05338322652891   -0.76165441359404    3.51787747428865
C         0.97123020693067    0.72527855648961    3.28219268989603
C        -0.36707758213216    1.15580798054762    3.28518436227211
C         2.34127891714507   -2.57394927964453    0.57463817133686
C         3.18247844941532   -1.40910761220079    0.57368299589602
C         2.93384327927698   -0.69407464544398    1.80680832155231
C         1.98362896706991   -1.42035166768332    2.56557109422726
C         1.59290112774715   -2.55637955812263    1.80113664103447
C         3.17726993684236    1.41963575105234    0.58569827612563
C         2.32787297098684    2.58501777138684    0.58098326971964
C         1.56374094457680    2.57387436611542    1.80183958003668
C         1.93327370910151    1.41210625499559    2.55407914364444
C         2.94519374564033    0.70373910783439    1.80890432521147
C        -0.36957726892239    3.45603435580531    0.57859085319683
C        -1.74168392355104    3.01268912914322    0.57809750240039
C        -1.97589370686002    2.29143155591185    1.80217000344921
C        -0.74047091498550    2.27408326101075    2.55397228902129
C         0.23961266023771    2.99629894062273    1.79890580842397
C        -3.41052198050758    0.73703553238248    0.56755997029043
C        -3.40479581428722   -0.69964474664678    0.56684711983386
C        -2.77757171987606   -1.13171574527297    1.80343426765181
C        -2.42297586398233   -0.00363966522329    2.54649528998829
C        -2.78265510930107    1.16196926145023    1.79780844004164
C        -1.73232684588811   -2.98931930607507    0.60021880458038
C        -0.34069813630056   -3.42630590889293    0.58044797640903
C         0.27011798720846   -2.98413780789270    1.79581780611940
C        -0.72036972004826   -2.24124939212404    2.55310458163995
C        -1.96160193051929   -2.28272373621930    1.79033858226724
C        -0.25326734323061   -3.21779641318898   -1.94843190157336
C         0.75353866372875   -2.28808875760003   -2.59361827704619
C         1.95455313566304   -2.27354541425220   -1.82787330104798
C         1.72622189352026   -2.99538526673214   -0.60081597753275
C         0.37875668559405   -3.46249961893719   -0.59451798952008
C         2.78796230345537   -1.15435349919838   -1.82887059179168
C         2.41381955218188    0.00726942946098   -2.58042549504532
C         2.79431429389021    1.17416349585824   -1.82381486123359
C         3.40888351136526    0.73030513164147   -0.60223457577143
C         3.40369167547599   -0.71279517080653   -0.60362898016993
C         1.97126510667239    2.29572851649444   -1.82344562924350
C         0.74375238483744    2.29302599683095   -2.57912609559895
C        -0.24767115026141    3.02113969706361   -1.82759210928390
C         0.36172832981735    3.46008804341853   -0.60059780448427
C         1.73619763341283    3.01335395323248   -0.59894856698798
C        -1.57160169388113    2.59306309910602   -1.83003056671363
C        -1.95298535132529    1.43056245860228   -2.58769454811416
C        -2.95343621620729    0.71440349353732   -1.83554021215771
C        -3.18925124188403    1.43378397973488   -0.61122531053768
C        -2.33325744541205    2.59636171047935   -0.60787806651127
C        -2.94852607578266   -0.67393598635543   -1.82951060226253
C        -1.94383346385816   -1.40299847218398   -2.56934315257608
C        -1.58372958786295   -2.56293234376960   -1.80981361369629
C        -2.30729216449831   -2.55557352074901   -0.61386457487732
C        -3.17662866963745   -1.39000291225090   -0.60629911290723
C        -0.99841032449488   -0.71192551744038   -3.31103983949369
C        -0.99340804694134    0.72391563652830   -3.30811713927028
C         0.37800473531510    1.16761759887429   -3.30476338160156
C         1.22322422110719    0.00282830491647   -3.29770489319777
C         0.38308164537494   -1.16453195714270   -3.29669929804582
Cl       -1.94757475568173    0.02541987181412    5.24302878799880
Cl       -0.40237584057190   -4.77405505331145   -2.89341070954302
Cl        1.58741268002750   -1.10749246342659    5.27540638757945
63
 energy: -142.087911272830 gnorm: 0.005051843794 xtb: 6.4.1 (a3dbbd7)
C        -1.30221840014942   -0.00447064794033    3.53023937952484
C        -0.37656994944715   -1.17783911105709    3.32335075200812
C         1.05579368599425   -0.76331806018684    3.52821586820901
C         0.97305410937366    0.72227489026444    3.28675418288942
C        -0.36478295969347    1.15310560992843    3.28297625930235
C         2.33940448597405   -2.57255533571080    0.57485120941146
C         3.17953856725222   -1.40790678335028    0.57404317392351
C         2.93151998312230   -0.69415627874253    1.80960672367706
C         1.98054934344153   -1.41842438364706    2.56700601708489
C         1.59230929105387   -2.55587538579577    1.80287635619486
C         3.17724227370300    1.41914523359195    0.58597080624464
C         2.32667338923898    2.58345456344356    0.58079277498495
C         1.56230168385127    2.57058176123259    1.80155029064389
C         1.93375957934454    1.41044955099137    2.55561585844725
C         2.94662138091205    0.70458785546074    1.80981212938254
C        -0.37014440760050    3.45595973638077    0.57807150975886
C        -1.74214180344912    3.01242101033156    0.57776371493020
C        -1.97540174504118    2.28979936424500    1.80162951474738
C        -0.74014710586954    2.27147954123276    2.55225584931139
C         0.23920726216938    2.99456802912348    1.79807167599943
C        -3.41135027736488    0.73656352717119    0.56734458271187
C        -3.40540922416527   -0.69994134315621    0.56607879699280
C        -2.77706860762311   -1.13181241423382    1.80226201577783
C        -2.42237952450388   -0.00390431461442    2.54650592508251
C        -2.78347818480820    1.16110631360749    1.79826669893338
C        -1.73052601306671   -2.98753573297783    0.59889979405925
C        -0.34001580175575   -3.42609772443416    0.57933199085926
C         0.27032700056156   -2.98532235095391    1.79494925848646
C        -0.71800597235888   -2.23925484562421    2.55369768473538
C        -1.95795896562238   -2.27906817691523    1.78863120037935
C        -0.25337798806348   -3.21810768946288   -1.94975856857540
C         0.75383286111110   -2.28829897847853   -2.59458527000676
C         1.95470591958536   -2.27364699001316   -1.82830647100002
C         1.72582307335144   -2.99524497921286   -0.60121341245030
C         0.37880987440492   -3.46384964959137   -0.59607880710094
C         2.78782924997643   -1.15421473710098   -1.82898967880036
C         2.41395215171948    0.00748586745260   -2.58075829966285
C         2.79406028721983    1.17441532760233   -1.82382569618186
C         3.40843911109043    0.73057123620959   -0.60235462183257
C         3.40257788205627   -0.71258116713591   -0.60329673220239
C         1.97105729463215    2.29609943127696   -1.82384991162828
C         0.74360241183725    2.29322134517269   -2.57945247172740
C        -0.24805442310667    3.02126947834127   -1.82792652706236
C         0.36118681411120    3.45992711444498   -0.60094708935026
C         1.73580050139724    3.01308940823349   -0.59892938449486
C        -1.57215497954836    2.59309752653191   -1.83032865892439
C        -1.95314081965762    1.43043703445205   -2.58783084831170
C        -2.95374523430170    0.71421325237954   -1.83576894881078
C        -3.18989857484062    1.43336883641988   -0.61139996720592
C        -2.33379926163211    2.59630904153625   -0.60811737767964
C        -2.94889869861521   -0.67417018736971   -1.83026880595342
C        -1.94390160930343   -1.40321675230378   -2.57020481405999
C        -1.58356327051657   -2.56268559365134   -1.81092445882065
C        -2.30715521231320   -2.55535530663123   -0.61441683247282
C        -3.17680230468408   -1.39013467011612   -0.60720652413290
C        -0.99827123884119   -0.71191717730383   -3.31179850610418
C        -0.99339990564801    0.72390373714468   -3.30831816482867
C         0.37798933287610    1.16781407171905   -3.30521794157664
C         1.22345751891702    0.00304988562700   -3.29834231342576
C         0.38333131073080   -1.16454918049534   -3.29747292797675
Cl       -1.95023906744914    0.03632202344297    5.24211565711673
Cl       -0.40550151323700   -4.77238944199996   -2.89775125940631
Cl        1.59342735836363   -1.10612756179876    5.27679764746444
63
 energy: -142.087956170991 gnorm: 0.002920285465 xtb: 6.4.1 (a3dbbd7)
C        -1.30201172199393   -0.00452088847310    3.52967241709774
C        -0.37597031054830   -1.17888009762719    3.32514743454130
C         1.05650567257755   -0.76395658599648    3.53102133853364
C         0.97341435533825    0.72068768235729    3.28686429753815
C        -0.36381691311844    1.15201001235023    3.28104138404497
C         2.33876044548624   -2.57213776736909    0.57495206570527
C         3.17831037651578   -1.40751307228805    0.57417923759556
C         2.93017203802995   -0.69406157082503    1.81055895938991
C         1.97827830131363   -1.41713623656011    2.56654991644072
C         1.59178134594086   -2.55586667942233    1.80326998557371
C         3.17778876167842    1.41939885783471    0.58623511340078
C         2.32650202707871    2.58319604619445    0.58098206541963
C         1.56184029585078    2.56977349648969    1.80167052578883
C         1.93390922252651    1.41000974896754    2.55552534169189
C         2.94743380942443    0.70527876840045    1.80999624848012
C        -0.37030626102906    3.45619033824534    0.57812404738781
C        -1.74220403095739    3.01236588683467    0.57797392030005
C        -1.97518431930081    2.28906914751583    1.80165882595873
C        -0.74021736762950    2.27079518081610    2.55170687523352
C         0.23917573510037    2.99438495682384    1.79798681656007
C        -3.41184931793116    0.73631095495605    0.56755626952510
C        -3.40590019192706   -0.70009858773006    0.56589508156225
C        -2.77722097332781   -1.13226723384860    1.80172900331440
C        -2.42233244971162   -0.00422115705669    2.54643373042322
C        -2.78405332886898    1.16073035168970    1.79890114923746
C        -1.73015400316254   -2.98748691252158    0.59849833389058
C        -0.34011379250240   -3.42681668049066    0.57896865074576
C         0.27008245201624   -2.98628727222126    1.79430381428562
C        -0.71730777916146   -2.23822356649685    2.55296692738873
C        -1.95687873735691   -2.27783239110268    1.78795992688592
C        -0.25337591877891   -3.21841373100243   -1.94990082082228
C         0.75400239565682   -2.28840397046256   -2.59433941763207
C         1.95474367217873   -2.27366304138325   -1.82781245223692
C         1.72573420985475   -2.99561940776360   -0.60106990218347
C         0.37875990206013   -3.46501926847185   -0.59649669105816
C         2.78778211935486   -1.15415359697090   -1.82844889116379
C         2.41410109022295    0.00756820733758   -2.58032270371914
C         2.79418041402656    1.17458434052965   -1.82343489822740
C         3.40858575198533    0.73087866854122   -0.60213326179074
C         3.40250878767573   -0.71249450667880   -0.60287011266119
C         1.97120674057320    2.29636687038378   -1.82360774631615
C         0.74373347637692    2.29331571173692   -2.57913575026758
C        -0.24800113141727    3.02135327213811   -1.82766714868951
C         0.36113303040533    3.45994594635615   -0.60073991799927
C         1.73596712159579    3.01333352661917   -0.59859607100726
C        -1.57216705795718    2.59302040376790   -1.82997721316078
C        -1.95298545801813    1.43029510949386   -2.58736632865482
C        -2.95366137191820    0.71400462473060   -1.83535454571817
C        -3.19006634867050    1.43310643778444   -0.61108529443571
C        -2.33382813419380    2.59623855334287   -0.60782514405536
C        -2.94902416498451   -0.67441774797740   -1.83025916602803
C        -1.94382693915127   -1.40352997326288   -2.57014568569571
C        -1.58345429449571   -2.56271074898045   -1.81099831390810
C        -2.30735141420629   -2.55553803929728   -0.61429689619167
C        -3.17696993716222   -1.39033899539384   -0.60736262742236
C        -0.99803646795182   -0.71200828212941   -3.31153092226217
C        -0.99320774569382    0.72379404810268   -3.30778495773107
C         0.37814603533932    1.16783392871064   -3.30478423089355
C         1.22365801812212    0.00308265821570   -3.29795733636632
C         0.38353751237303   -1.16461569110155   -3.29715627666310
Cl       -1.95071404581017    0.04091371479155    5.24132673991224
Cl       -0.40654906740637   -4.77178231034895   -2.89935127206982
Cl        1.59568782475973   -1.10370278781751    5.27084956068614
63
 energy: -142.087972280255 gnorm: 0.001814786784 xtb: 6.4.1 (a3dbbd7)
C        -1.30225459647335   -0.00450136376542    3.52933958818159
C        -0.37647925866935   -1.17909015244742    3.32468909933385
C         1.05669119360288   -0.76413751121631    3.53107577375371
C         0.97293046176716    0.72043974045393    3.28543872383121
C        -0.36390808769263    1.15193777495942    3.28034413573678
C         2.33892327767719   -2.57233806037510    0.57495283699432
C         3.17835687331374   -1.40767243769381    0.57418222281168
C         2.92975393013739   -0.69399723574097    1.81034042089510
C         1.97740526154827   -1.41669716252936    2.56557167767939
C         1.59149547864494   -2.55593060629151    1.80291282992239
C         3.17818982866014    1.41973351845045    0.58642582398740
C         2.32677981211320    2.58355190367225    0.58120805800569
C         1.56188108014234    2.57018301053646    1.80184899965419
C         1.93377827162322    1.41020715389859    2.55505442035768
C         2.94752448587576    0.70551659174727    1.80991809489782
C        -0.37028768824517    3.45639675908180    0.57833507601125
C        -1.74214345731157    3.01240356073715    0.57821821181028
C        -1.97521647436961    2.28909076169648    1.80189497616238
C        -0.74048741443080    2.27117801521079    2.55195062986487
C         0.23921128361171    2.99478915851211    1.79820016258442
C        -3.41195526484983    0.73629742373486    0.56774628450365
C        -3.40611233990188   -0.70007724540582    0.56599309880877
C        -2.77753292627167   -1.13252011984037    1.80167546706367
C        -2.42252551372202   -0.00431791713769    2.54644072208862
C        -2.78423238033233    1.16073234180942    1.79925484552275
C        -1.73051488287412   -2.98804801129901    0.59858301471227
C        -0.34043890025843   -3.42737632710671    0.57908708897567
C         0.26978894261328   -2.98660472618324    1.79414588411836
C        -0.71760759202783   -2.23801185576867    2.55230302429162
C        -1.95727282000958   -2.27802494102476    1.78799902702446
C        -0.25332150142270   -3.21852160410762   -1.94960923476963
C         0.75404816530670   -2.28840286056485   -2.59389668698645
C         1.95472842483390   -2.27367210017198   -1.82735090916859
C         1.72576968999973   -2.99596574001689   -0.60085586418540
C         0.37868517027734   -3.46539838173592   -0.59631884236888
C         2.78780945731763   -1.15418385712667   -1.82802852335750
C         2.41417644028325    0.00752878517299   -2.57989688181903
C         2.79437407586653    1.17458546468487   -1.82310855782213
C         3.40885127570370    0.73101517411011   -0.60189798243235
C         3.40281923500510   -0.71251546058551   -0.60263131591211
C         1.97140882948069    2.29641795704432   -1.82329871358782
C         0.74391735983367    2.29329390857564   -2.57880880439262
C        -0.24780900208514    3.02134305995781   -1.82737694393713
C         0.36125430624612    3.46000253533533   -0.60047326126510
C         1.73622593930188    3.01358590471299   -0.59834623130609
C        -1.57197413778573    2.59291808513812   -1.82965709047262
C        -1.95280066271134    1.43022756206247   -2.58705180460949
C        -2.95346951821070    0.71389763947258   -1.83502788741167
C        -3.18996192864381    1.43301892977278   -0.61085018778087
C        -2.33365900573287    2.59618396880541   -0.60758040399560
C        -2.94897715658507   -0.67453517969724   -1.83005671338555
C        -1.94369764042234   -1.40370651701013   -2.56987689918649
C        -1.58343380788116   -2.56281076293788   -1.81077769437999
C        -2.30756397132154   -2.55571782820293   -0.61405467902470
C        -3.17705785844735   -1.39044453418598   -0.60722729780547
C        -0.99787169125078   -0.71206692752362   -3.31118313562517
C        -0.99303487774843    0.72371780699538   -3.30742197886441
C         0.37830574413341    1.16777891322385   -3.30437854334140
C         1.22376525416725    0.00302960804432   -3.29751319697149
C         0.38362964828705   -1.16464821290251   -3.29675541187527
Cl       -1.95002033592456    0.04091089701810    5.24138112169012
Cl       -0.40622174995462   -4.77186736747233   -2.89920597376658