63
 energy: -142.065738056229 gnorm: 0.138988313611 xtb: 6.4.1 (a3dbbd7)
C        -1.32333194775417    0.00617886347970    3.59125188963251
C        -0.38909456310608   -1.27772716531095    3.58793274117145
C         0.98734837171535   -0.72675165446744    3.28582848483634
C         0.97037352147027    0.69420630050098    3.25749094477592
C        -0.37633960723915    1.14742685553706    3.29074190055216
C         2.33092254703306   -2.58746567485154    0.56610397604514
C         3.16875994483946   -1.41579758165486    0.56774606192583
C         2.91978889080344   -0.69314490348597    1.79074016083681
C         1.93018806170321   -1.40549148670748    2.54814074589443
C         1.57476788296703   -2.59634073810083    1.79100274817011
C         3.18328087896891    1.41909085132624    0.57258499213333
C         2.33432229320876    2.58580968143883    0.57559918777772
C         1.57332139543398    2.57095369604789    1.79851755002390
C         1.94352282881158    1.40414426944103    2.54285112768194
C         2.93804115459266    0.69543633516321    1.79366637265872
C        -0.36752716666001    3.44413435035873    0.58029879258012
C        -1.74013210357057    3.00741588983283    0.58054459941955
C        -1.97818665379860    2.28654468588757    1.80361199533287
C        -0.73393250395930    2.25581684802015    2.55761528373596
C         0.24647420110131    2.98080949443068    1.80023381740862
C        -3.39591089216029    0.72883802558845    0.57533866561121
C        -3.37932885665645   -0.70504006359254    0.57786353554246
C        -2.74934612856665   -1.12865052488571    1.82052481704193
C        -2.40026274086307   -0.01382700939334    2.55826017594831
C        -2.77435746218519    1.16021035149421    1.80187148511327
C        -1.70577977915925   -3.00504292266898    0.57191390059864
C        -0.34657433486683   -3.46193150719564    0.56452064530943
C         0.25810980605866   -3.00738238851431    1.79111395103090
C        -0.74203335365356   -2.29289841924391    2.55243835495534
C        -1.91196172287597   -2.27950749485726    1.81757326885181
C        -0.23558165862281   -3.01371296632646   -1.83961821271520
C         0.75175047781152   -2.28700579367404   -2.59867644532734
C         1.98089777627659   -2.28868303835222   -1.84308617931945
C         1.74918768154887   -3.01946296828987   -0.62050040464920
C         0.38088379041600   -3.46658963937948   -0.62079308111870
C         2.79204993046375   -1.16413556659148   -1.83875967224219
C         2.41002754086118    0.00666527739579   -2.59106683151125
C         2.78807241943814    1.16926264052202   -1.83130610074559
C         3.40298548527550    0.72369088805355   -0.60835037131266
C         3.40110069057525   -0.71955382898331   -0.60923004493565
C         1.96912615256614    2.29475463280888   -1.82840259178522
C         0.74474441569639    2.29528025280401   -2.58515694980539
C        -0.24988429155059    3.01642431380723   -1.82795956514323
C         0.36353023978106    3.45499162487799   -0.59844520421847
C         1.73735095077191    3.01278425815446   -0.60243935985793
C        -1.56944867307335    2.59059487249377   -1.83048045584010
C        -1.94787757007795    1.42311330884846   -2.58910001301826
C        -2.94122296022124    0.70465889669871   -1.83002690890673
C        -3.17947337159538    1.42642572884929   -0.60816005298080
C        -2.33307692209202    2.59081264516620   -0.60600270171083
C        -2.93172079240255   -0.68656028280689   -1.82266620418654
C        -1.94059925011627   -1.40887980593779   -2.58138532694875
C        -1.55636984787224   -2.57670213587000   -1.82754179967090
C        -2.29848528094837   -2.57416283302738   -0.59738768824741
C        -3.15456863482430   -1.39758782868201   -0.59434922362650
C        -0.98936986995949   -0.71482485845558   -3.31408037280858
C        -0.99159024528376    0.72723605185279   -3.31429029098428
C         0.38014149579772    1.17201579903766   -3.31523274930469
C         1.22728121177112    0.00778684511203   -3.31823795360647
C         0.38205649969615   -1.16057927312445   -3.31917058806611
Cl       -2.09995733548554    0.29360223981566    5.20530702406437
Cl       -0.35034641589922   -2.11046483688082    5.19906768498811
Cl       -5.14083524782358    1.07706379643037    0.90711842016924
63
 energy: -142.089285680541 gnorm: 0.060873669369 xtb: 6.4.1 (a3dbbd7)
C        -1.31698623140316    0.00726003530967    3.59234207472565
C        -0.38614440711198   -1.27850601044421    3.58813184677746
C         0.99032562327825   -0.72682830523388    3.28719713630112
C         0.97478165974034    0.69427659973287    3.26042448350627
C        -0.36993314713168    1.14901342934428    3.29612378999836
C         2.33224009969497   -2.58703647167445    0.56755283613933
C         3.16996553320359   -1.41593776524487    0.56852775548471
C         2.92182469369885   -0.69284286758524    1.79111944382613
C         1.93254882693163   -1.40543602826706    2.54901528085735
C         1.57725408646997   -2.59593103411533    1.79193850967540
C         3.18466022600007    1.41963215249405    0.57248833269012
C         2.33703781444732    2.58597556310684    0.57562768283574
C         1.57646395344072    2.57085893174014    1.79894512656221
C         1.94686694992150    1.40445549941853    2.54384558344877
C         2.93999324757923    0.69568892143839    1.79399174107550
C        -0.36525998678500    3.44300256826537    0.58070437117018
C        -1.73397059179672    3.00545294541529    0.58170859142467
C        -1.96551159786124    2.28335783467876    1.80583786833925
C        -0.72661653540289    2.25820181443445    2.56296585832862
C         0.25056044330805    2.98147546715144    1.80122340520866
C        -3.49656866601488    0.74591327825274    0.59811270885673
C        -3.36984771610315   -0.72111690525733    0.57784013079936
C        -2.73873482473468   -1.13380725012280    1.81080175347880
C        -2.38594479454796   -0.01062782611153    2.55105657087649
C        -2.75844283487707    1.15727840674817    1.81184751074555
C        -1.70512909512270   -3.01299185639471    0.57286455596173
C        -0.34540194103519   -3.46344121972419    0.56591214275583
C         0.25981820600232   -3.00847502664728    1.79316442081863
C        -0.73818977207990   -2.29476735409243    2.55335759415237
C        -1.90979574459371   -2.28632574790294    1.81526999408205
C        -0.23460098887467   -3.01346556524099   -1.83902660348620
C         0.75229176218131   -2.28737245251807   -2.59864927516002
C         1.98081633902128   -2.28874796149093   -1.84255879412177
C         1.74934660388167   -3.01950765211009   -0.61996960450267
C         0.38188634165082   -3.46654058182196   -0.62017631901542
C         2.79252860464595   -1.16424339839263   -1.83838896227135
C         2.41131640171878    0.00589052743165   -2.59154060782595
C         2.78931757796957    1.16895379550290   -1.83144730886761
C         3.40406904274875    0.72332026876210   -0.60841064566378
C         3.40153097838191   -0.71930398038470   -0.60928231244675
C         1.97163472959949    2.29443269372339   -1.82923393193486
C         0.74916068615091    2.29579849522143   -2.58872728647403
C        -0.24431966383450    3.01803044381561   -1.83267769991061
C         0.36729692668692    3.45583944463699   -0.60029737377572
C         1.73881238029058    3.01303501512548   -0.60295156357089
C        -1.56217279850178    2.59239580126724   -1.84049872215359
C        -1.93939419463884    1.42727477719911   -2.59924387370238
C        -2.92564975043745    0.70786004846038   -1.83098387580284
C        -3.18004204979216    1.43940611098007   -0.62698245674888
C        -2.32240410313937    2.58063101165154   -0.61183399301171
C        -2.92551737105396   -0.68650020041402   -1.82600726123161
C        -1.93937682620157   -1.40760350225518   -2.58184439447600
C        -1.55521067787938   -2.57666078644379   -1.82688391631442
C        -2.29824632896812   -2.58271082930985   -0.59891036900740
C        -3.14310991487715   -1.40290409112082   -0.59326680863256
C        -0.98592702391538   -0.71392979824640   -3.31894519637102
C        -0.98578540165421    0.72813263389873   -3.32262807904812
C         0.38512757720097    1.17251594741749   -3.31986011266188
C         1.23021224873562    0.00726600085953   -3.32038652902152
C         0.38309448569902   -1.16034898163564   -3.32079498050285
Cl       -2.10413501369563    0.29434935718337    5.20090653268488
Cl       -0.34968991698327   -2.11163047509003    5.19901096624230
Cl       -5.27882378669988    1.09684148458927    0.94606421510822
63
 energy: -142.095394784871 gnorm: 0.014897115237 xtb: 6.4.1 (a3dbbd7)
C        -1.31244318143075    0.00680398426674    3.58223480449527
C        -0.38064180971705   -1.27693616889203    3.58621562535825
C         0.99711351547808   -0.72672546837209    3.28867449166505
C         0.98153637501427    0.69449681011194    3.26286533664686
C        -0.36324419324342    1.14795802944435    3.29538697208276
C         2.33582248715752   -2.58675247144934    0.56834898617845
C         3.17421404305232   -1.41696228853155    0.56857323141173
C         2.92706482855113   -0.69297195542285    1.79101408937662
C         1.93846900249330   -1.40561548397843    2.54990432907194
C         1.58167428035173   -2.59503123240109    1.79230946091886
C         3.18895172826088    1.41954286343570    0.57174219177811
C         2.34242543590013    2.58553094285052    0.57548674599490
C         1.58139194550988    2.57037518354737    1.79871952484494
C         1.95283507895475    1.40457311556254    2.54423944116673
C         2.94509818819391    0.69545004735902    1.79376932351102
C        -0.36472726451293    3.43876563847413    0.58041896850798
C        -1.73339204119610    3.00605339107857    0.58540903845433
C        -1.96485788380420    2.28007954185627    1.80571862219387
C        -0.72221899070934    2.25405199809081    2.55894649615142
C         0.25476676310698    2.97953367305597    1.80027426552174
C        -3.58863262352642    0.76076543444026    0.62006003238788
C        -3.37476848884811   -0.72594753162739    0.57818489279991
C        -2.73493270951714   -1.13234334641502    1.79701533064233
C        -2.38003078123268   -0.00256482471542    2.53797278257188
C        -2.76036255236623    1.15721629549293    1.81710397306164
C        -1.70115284693948   -3.01238960535567    0.57321599835196
C        -0.34299430604154   -3.46419772906132    0.56688011470349
C         0.26281971992778   -3.00699247704625    1.79441673960615
C        -0.73312996843692   -2.29254966167888    2.55243285105720
C        -1.90706995803011   -2.28343028718386    1.81047424521116
C        -0.23215212615989   -3.01233932742327   -1.83846565021859
C         0.75486285774121   -2.28815276252010   -2.59897032482799
C         1.98276260867619   -2.28876867952228   -1.84218093381038
C         1.75136887341959   -3.01941019925837   -0.61949077678626
C         0.38456874169758   -3.46631282076187   -0.61952766477594
C         2.79526058746463   -1.16499012655802   -1.83838432214501
C         2.41439222177004    0.00451832960969   -2.59244356841664
C         2.79254631364708    1.16784256491230   -1.83189265632769
C         3.40780809174986    0.72210477570253   -0.60897247849788
C         3.40456579016930   -0.71989577588655   -0.60968350041424
C         1.97521692985250    2.29292961589376   -1.82996925724327
C         0.75353616302894    2.29506708244259   -2.59119548259091
C        -0.24031133546077    3.01393522326271   -1.83232294774173
C         0.37146091858482    3.45435454764191   -0.60034073302031
C         1.74120889616106    3.01163663813557   -0.60289510429642
C        -1.55660120092031    2.58577604353213   -1.83877326916427
C        -1.93307941688493    1.42455805390540   -2.59744232045024
C        -2.91844078263431    0.70751502728403   -1.82234564242424
C        -3.17600247915844    1.43966919582436   -0.62847197184716
C        -2.31992761339824    2.56510139436392   -0.60775420351841
C        -2.92663625062835   -0.68679572603799   -1.82998077420929
C        -1.93842953653985   -1.40406544617311   -2.58005833123101
C        -1.55249538251196   -2.57367168089397   -1.82548197530204
C        -2.29426617037351   -2.57764143020600   -0.59830733960974
C        -3.14229122683260   -1.40048871280384   -0.58971401920952
C        -0.98194797129265   -0.71405511964760   -3.32250243357133
C        -0.98085431697251    0.72673762270861   -3.32513480445740
C         0.38996398732407    1.17203841010955   -3.32384473010593
C         1.23460784665205    0.00620946999069   -3.32269376815177
C         0.38532249036950   -1.16074492871120   -3.32199134371281
Cl       -2.11461905544943    0.28791413191141    5.18286668060035
Cl       -0.35186216501056   -2.10911059836752    5.19789678580616
Cl       -5.38321972794921    1.11702417056852    0.97597191317153
63
 energy: -142.095768061771 gnorm: 0.009315273892 xtb: 6.4.1 (a3dbbd7)
C        -1.31079705526389    0.00685425218589    3.57682778983156
C        -0.37849921406181   -1.27582865418445    3.58392421416059
C         1.00037258113578   -0.72661685387839    3.28858368908338
C         0.98504836604918    0.69461647561232    3.26335054910098
C        -0.36047379369076    1.14729672030348    3.29374460456460
C         2.33838983305843   -2.58683778411722    0.56822400532452
C         3.17718916648261   -1.41743220026364    0.56817429561945
C         2.93089568185209   -0.69321770053006    1.79102220969605
C         1.94186529830297   -1.40569851762619    2.54980453114273
C         1.58451324198216   -2.59490573719837    1.79210112693719
C         3.19216396790668    1.41935394672570    0.57147433085887
C         2.34556699157969    2.58515826451829    0.57575127368432
C         1.58409959877227    2.56980467387332    1.79875180865718
C         1.95641843609414    1.40435558870790    2.54440130669631
C         2.94898949054739    0.69519034818738    1.79383708519511
C        -0.36415381927179    3.43698704544280    0.58101723149940
C        -1.73410033222272    3.00751499136073    0.58862341960016
C        -1.96813531578418    2.28068590040098    1.80672669051161
C        -0.72112648288044    2.25095762409431    2.55582030551640
C         0.25668417636628    2.97770457583437    1.79978384869549
C        -3.61141257973075    0.76316268684656    0.62702434672907
C        -3.38566255988089   -0.72574057869126    0.57914119037389
C        -2.73684176195942   -1.13159125382295    1.79252151164876
C        -2.37979267662480    0.00029471148136    2.53266471267850
C        -2.76906846578584    1.15939071944120    1.81971672304383
C        -1.69903607214848   -3.00995405053403    0.57270915228384
C        -0.34143369314159   -3.46344337973559    0.56643464657363
C         0.26473743783261   -3.00547006185861    1.79394612080879
C        -0.73038617608137   -2.29034705502313    2.55041429156059
C        -1.90521987552688   -2.27927734632201    1.80763579675421
C        -0.23109050248759   -3.01122757518308   -1.83819084101621
C         0.75616726880661   -2.28850152176951   -2.59920492199447
C         1.98429211719779   -2.28885249595787   -1.84234670006575
C         1.75320759721579   -3.01942501727321   -0.61967690828593
C         0.38627457926581   -3.46549974136793   -0.61958301045506
C         2.79708587570240   -1.16536580599525   -1.83881558517613
C         2.41570069386270    0.00399535430100   -2.59298612058432
C         2.79421232071408    1.16739312269664   -1.83216342357878
C         3.41028147298767    0.72168194559149   -0.60943199742641
C         3.40676867636673   -0.72020799303356   -0.61019476675408
C         1.97650649978426    2.29210020863451   -1.82977628220827
C         0.75433999586212    2.29387344401512   -2.59062406542234
C        -0.23976053040639    3.01038698781403   -1.82998895608344
C         0.37305372906801    3.45259512404820   -0.59884639409074
C         1.74255189600969    3.01046278929982   -0.60217708922092
C        -1.55524337019236    2.58060033933202   -1.83409109887209
C        -1.93212338230768    1.42134364707263   -2.59317117422782
C        -2.92048300213354    0.70583959429793   -1.81823498869542
C        -3.17556475799691    1.43620847761816   -0.62355468767269
C        -2.32219786751877    2.55965440501436   -0.60292741469659
C        -2.92984843714157   -0.68814655337322   -1.83229064017122
C        -1.93872002017286   -1.40321586949488   -2.57987284792306
C        -1.55142256842260   -2.57147037215448   -1.82452399837200
C        -2.29279991853773   -2.57280497965645   -0.59748494690663
C        -3.14770657353450   -1.39948656520057   -0.58888316603214
C        -0.98104392161650   -0.71484354166402   -3.32320457462134
C        -0.98011939510807    0.72547128460121   -3.32403779091909
C         0.39073597046165    1.17123611591846   -3.32405719621982
C         1.23597953528960    0.00556941818564   -3.32343334698615
C         0.38611901771493   -1.16131911978150   -3.32233474718291
Cl       -2.12944561401629    0.28989931315330    5.16845033586132
Cl       -0.35074683106724   -2.10709681992874    5.19645399346027
Cl       -5.39985459502471    1.12446042897295    0.98056450093324
63
 energy: -142.095888046679 gnorm: 0.005504265207 xtb: 6.4.1 (a3dbbd7)
C        -1.30793160960589    0.00648242096873    3.57151070499114
C        -0.37733077767331   -1.27460517700808    3.58160090632869
C         1.00254596613162   -0.72623944061848    3.28847115472335
C         0.98785096720314    0.69501492293330    3.26339510712550
C        -0.35809044011557    1.14755061663956    3.29300314732318
C         2.33965209590001   -2.58693659746688    0.56828821641445
C         3.17859932784005   -1.41765171238921    0.56786858406005
C         2.93324329625381   -0.69323694944881    1.79110947257826
C         1.94403716229584   -1.40575882961506    2.54987430822757
C         1.58627589449304   -2.59505507906585    1.79227380729510
C         3.19403352492089    1.41950129531525    0.57125324507883
C         2.34740580577023    2.58531738514963    0.57597060871544
C         1.58588807851475    2.56996777890333    1.79893143520086
C         1.95896639018856    1.40457632432082    2.54442921717937
C         2.95165600115982    0.69520817629824    1.79384709549327
C        -0.36355633501979    3.43671546223808    0.58176924011598
C        -1.73432405374632    3.00923736891352    0.59143335078135
C        -1.96950230672896    2.28140223737711    1.80714350714938
C        -0.72017194435147    2.24935505235500    2.55436697021709
C         0.25798570526552    2.97704776655008    1.79978264101661
C        -3.62284755752078    0.76415598734032    0.63072310945879
C        -3.39333407019563   -0.72517577090404    0.57916176880550
C        -2.73805444249249   -1.13156688760367    1.78894106099353
C        -2.37805571517500    0.00183767017550    2.52753350988315
C        -2.77483174829040    1.16082998862015    1.82083593747278
C        -1.69776124086168   -3.00847063159565    0.57227286227833
C        -0.34054436695195   -3.46294479028191    0.56618481440626
C         0.26569211602319   -3.00451747115374    1.79399975058221
C        -0.72864588234508   -2.28939912365374    2.54958437248932
C        -1.90351380371270   -2.27594296373960    1.80542975620208
C        -0.23082460698533   -3.01055073461048   -1.83801174080302
C         0.75643077111485   -2.28879505426676   -2.59936856347068
C         1.98480872893728   -2.28897459567250   -1.84235451982860
C         1.75416589459436   -3.01959737693807   -0.61981190766780
C         0.38710020750459   -3.46480814266660   -0.61950449826828
C         2.79754906905286   -1.16552169297608   -1.83910128257894
C         2.41568480757573    0.00378862290499   -2.59330760684552
C         2.79448121063031    1.16729952753068   -1.83233926966764
C         3.41118604039262    0.72161450164794   -0.60978977459561
C         3.40743931846148   -0.72026473041181   -0.61052070762436
C         1.97657635658330    2.29180204085284   -1.82956268769472
C         0.75401030771963    2.29309246930000   -2.58997668937100
C        -0.24004209467628    3.00814357492250   -1.82835185117941
C         0.37377245204804    3.45169517276114   -0.59742635922651
C         1.74299190539776    3.00997851172781   -0.60160213494000
C        -1.55441215752446    2.57675273179554   -1.83062315092336
C        -1.93171549549269    1.41902517095330   -2.59021461281327
C        -2.92222034671763    0.70420814500853   -1.81596033548443
C        -3.17374885015711    1.43273755328984   -0.61913461910439
C        -2.32397598047407    2.55592532851350   -0.59907053008671
C        -2.93211125347112   -0.68946429682739   -1.83483240212868
C        -1.93928111778864   -1.40324977044659   -2.58063848585959
C        -1.55107630101964   -2.56999698656792   -1.82392777566091
C        -2.29210675966706   -2.56959238935900   -0.59686923039895
C        -3.15119035321157   -1.39893732596441   -0.58891373519956
C        -0.98093174853421   -0.71562473026423   -3.32402800913728
C        -0.98023749414198    0.72463813815777   -3.32365591556097
C         0.39042602236005    1.17073906835267   -3.32404850798635
C         1.23614252999095    0.00517573570821   -3.32400064783064
C         0.38614546323595   -1.16187754349466   -3.32278548966297
Cl       -2.13378755118506    0.27528052587452    5.16105945665727
Cl       -0.35973796970813   -2.09301152357577    5.20142877238295
Cl       -5.40094668948706    1.12994642515050    0.97976710719652
63
 energy: -142.095909177805 gnorm: 0.004038907095 xtb: 6.4.1 (a3dbbd7)
C        -1.30749140592208    0.00651381309472    3.57083401964630
C        -0.37682087002747   -1.27551876067002    3.58306659595988
C         1.00291690530450   -0.72677814687413    3.28857264939389
C         0.98874885190254    0.69449749513227    3.26423333561704
C        -0.35753343782234    1.14720146364439    3.29317863852888
C         2.34007469764878   -2.58722315638194    0.56832455096540
C         3.17886724737650   -1.41786500509142    0.56774435537191
C         2.93391650470001   -0.69341331072715    1.79131789062516
C         1.94454394371049   -1.40603736188588    2.54970251536194
C         1.58728228360802   -2.59559841067096    1.79239882856799
C         3.19445409605581    1.41946648676264    0.57172807595125
C         2.34786086892851    2.58531008764464    0.57685312495300
C         1.58638923996020    2.56982313648271    1.79983252398880
C         1.95951398398577    1.40408687020394    2.54509473143837
C         2.95249613312613    0.69494184016104    1.79434615044015
C        -0.36319687039587    3.43707855089438    0.58287257365635
C        -1.73446171303772    3.01071167929355    0.59378685624325
C        -1.96966233908674    2.28190899842087    1.80707486317255
C        -0.71978352175436    2.24791650047992    2.55391303425799
C         0.25844330546723    2.97668771299910    1.80048561583265
C        -3.62812595795763    0.76443631662041    0.63249414889579
C        -3.39738240952159   -0.72484679209134    0.57918112626459
C        -2.73852081438386   -1.13205233733860    1.78711186781413
C        -2.37529827309383    0.00288857809660    2.52345714549268
C        -2.77735437032942    1.16120698648931    1.82080549333057
C        -1.69704581374044   -3.00743454127662    0.57246338268771
C        -0.34018342953672   -3.46243744049694    0.56613018232914
C         0.26602570528722   -3.00364049352542    1.79417471830520
C        -0.72710945138002   -2.28895364229957    2.55003422066727
C        -1.90205987120273   -2.27361723591007    1.80475700192804
C        -0.23109823651653   -3.01016233669162   -1.83786446158344
C         0.75602886193454   -2.28892499968348   -2.59938982109745
C         1.98470132609601   -2.28907295127647   -1.84226151030847
C         1.75450451984366   -3.01993715204496   -0.62003633630067
C         0.38726743695716   -3.46425924084969   -0.61934712968778
C         2.79723333238875   -1.16551921222805   -1.83911568538750
C         2.41499408936705    0.00384350637965   -2.59317440597191
C         2.79390962386932    1.16735635674526   -1.83195165202146
C         3.41091084202199    0.72163306578137   -0.60951788036307
C         3.40717431701837   -0.72025356479283   -0.61050023967538
C         1.97593079533563    2.29173329826708   -1.82885006390707
C         0.75319839347512    2.29267482384056   -2.58908673886418
C        -0.24074237887208    3.00693134248588   -1.82710654517795
C         0.37383889396462    3.45127818971893   -0.59582492482084
C         1.74270163591490    3.00969047874010   -0.60058394028931
C        -1.55401683118117    2.57427718625474   -1.82840728968416
C        -1.93166052413159    1.41764969690076   -2.58850518232548
C        -2.92315497611506    0.70282269973792   -1.81487384841829
C        -3.17109888346873    1.42973380309869   -0.61567331782268
C        -2.32519561726624    2.55335526603535   -0.59633903607543
C        -2.93336185227188   -0.69047399123286   -1.83669636333951
C        -1.93992313715095   -1.40369277442154   -2.58148826867765
C        -1.55127295674989   -2.56916985351124   -1.82337603771199
C        -2.29194489444948   -2.56772395727749   -0.59610438608151
C        -3.15276732858475   -1.39877262084204   -0.58883823960280
C        -0.98123608535883   -0.71620431151119   -3.32461802468877
C        -0.98070590877235    0.72422538880418   -3.32368492543341
C         0.38968246510945    1.17055411131624   -3.32375132702358
C         1.23572839933619    0.00506691104063   -3.32416838092852
C         0.38576468218707   -1.16220832844152   -3.32311266732574
Cl       -2.15289814853106    0.29342096514473    5.14742424162742
Cl       -0.34180098999144   -2.10472985694893    5.19820117217598
Cl       -5.39429373074552    1.13387356024532    0.97616495632879
63
 energy: -142.095965357311 gnorm: 0.002307644813 xtb: 6.4.1 (a3dbbd7)
C        -1.30787431687949    0.00631163807808    3.57177277312589
C        -0.37734896581736   -1.27500268039056    3.58266149701450
C         1.00241086113056   -0.72659607294563    3.28844033424907
C         0.98808199693812    0.69459987131377    3.26380717670819
C        -0.35808040843032    1.14735176641230    3.29365380488127
C         2.33935951484466   -2.58707467560678    0.56833428012688
C         3.17810886519652   -1.41768134949768    0.56770348324079
C         2.93297688013415   -0.69323665700736    1.79112203148805
C         1.94390385919482   -1.40596331696798    2.54969637764087
C         1.58654723084504   -2.59554376091130    1.79243113660947
C         3.19368317107420    1.41960734514879    0.57154594883307
C         2.34708856367601    2.58547590923767    0.57657934832124
C         1.58583711553885    2.57015275528356    1.79968730368451
C         1.95881364221458    1.40433175617661    2.54486271690466
C         2.95156585724044    0.69512430395363    1.79406747077607
C        -0.36334468958008    3.43747200009516    0.58279254306638
C        -1.73425942848827    3.00992521978624    0.59306840631710
C        -1.96846649502183    2.28152092828659    1.80694182610935
C        -0.71991000440795    2.24899504085369    2.55504574656255
C         0.25810860110981    2.97743832907573    1.80077756367360
C        -3.62329734718943    0.76402315605972    0.63084662459143
C        -3.39377622804490   -0.72531322800113    0.57890637972740
C        -2.73812158228049   -1.13259795727928    1.78832725039041
C        -2.37579684071121    0.00196744788013    2.52509916069937
C        -2.77428337556398    1.16011452558597    1.82027705839484
C        -1.69770728120049   -3.00830957955006    0.57251674987422
C        -0.34063751267292   -3.46262651911274    0.56628080276997
C         0.26545055153462   -3.00410703881928    1.79446337612816
C        -0.72809255682674   -2.28982903732823    2.55069781612246
C        -1.90288635810705   -2.27523567011617    1.80547366646515
C        -0.23137632233763   -3.01045468396622   -1.83799155704611
C         0.75564683073894   -2.28872676009550   -2.59932727318358
C         1.98429072421647   -2.28897608130060   -1.84224323755823
C         1.75398811348708   -3.01982100959379   -0.62004052627516
C         0.38680479798561   -3.46444655519159   -0.61932744739803
C         2.79678099215450   -1.16536954261836   -1.83910882659858
C         2.41469711549009    0.00399640607631   -2.59314696487092
C         2.79348275704739    1.16747046109503   -1.83202599462213
C         3.41031423849708    0.72177673790362   -0.60959669023931
C         3.40666060839089   -0.72013507106339   -0.61052377596074
C         1.97557078375894    2.29191577532797   -1.82904580109390
C         0.75300794219175    2.29304872952313   -2.58941599437561
C        -0.24091031003692    3.00794586360393   -1.82788776162922
C         0.37337171257134    3.45171583900194   -0.59625731881391
C         1.74231908938095    3.01002926692939   -0.60096324586904
C        -1.55447548793989    2.57593610056450   -1.83002088412750
C        -1.93197478654497    1.41875179921409   -2.59004722058500
C        -2.92209806345055    0.70336517025226   -1.81606375084161
C        -3.17085458362615    1.43083514734590   -0.61725307322738
C        -2.32429527726520    2.55461301588070   -0.59782045395226
C        -2.93223307783207   -0.68990496040131   -1.83580305863713
C        -1.93982687839637   -1.40388711675369   -2.58148030434529
C        -1.55163466004272   -2.56995388296558   -1.82380545844919
C        -2.29252091001732   -2.56936267304165   -0.59656048109030
C        -3.15101449352475   -1.39924414234774   -0.58897342884626
C        -0.98145351607533   -0.71589623048095   -3.32445738724034
C        -0.98086207838503    0.72463415944405   -3.32417048518626
C         0.38953138347344    1.17080886554274   -3.32387713506053
C         1.23541371647032    0.00529151709955   -3.32405554630670
C         0.38556126186859   -1.16195488398803   -3.32307700994982
Cl       -2.14381668657938    0.28425819896204    5.15438158563834
Cl       -0.34971053130793   -2.09766527918359    5.20115193228732