61
 energy: -132.961453400589 gnorm: 0.127254823613 xtb: 6.4.1 (a3dbbd7)
C        -1.23626340000000    0.00000000000000    3.32997640000000
C        -0.38202640000000   -1.17575640000000    3.32997640000000
C         1.00015810000000   -0.72665740000000    3.32997640000000
C         1.00015810000000    0.72665740000000    3.32997640000000
C        -0.38202640000000    1.17575640000000    3.32997640000000
C         2.34433560000000   -2.60145750000000    0.59464210000000
C         3.19857260000000   -1.42570110000000    0.59464210000000
C         2.96246730000000   -0.69904370000000    1.83090550000000
C         1.96230920000000   -1.42570110000000    2.59495830000000
C         1.58028280000000   -2.60145750000000    1.83090550000000
C         3.19857260000000    1.42570110000000    0.59464210000000
C         2.34433560000000    2.60145750000000    0.59464210000000
C         1.58028280000000    2.60145750000000    1.83090550000000
C         1.96230920000000    1.42570110000000    2.59495830000000
C         2.96246730000000    0.69904370000000    1.83090550000000
C        -0.36750900000000    3.48258920000000    0.59464210000000
C        -1.74969350000000    3.03349030000000    0.59464210000000
C        -1.98579880000000    2.30683290000000    1.83090550000000
C        -0.74953540000000    2.30683290000000    2.59495830000000
C         0.25062270000000    3.03349030000000    1.83090550000000
C        -3.42570570000000    0.72665740000000    0.59464210000000
C        -3.42570570000000   -0.72665740000000    0.59464210000000
C        -2.80757400000000   -1.17575640000000    1.83090550000000
C        -2.42554760000000    0.00000000000000    2.59495830000000
C        -2.80757400000000    1.17575640000000    1.83090550000000
C        -1.74969350000000   -3.03349030000000    0.59464210000000
C        -0.36750900000000   -3.48258920000000    0.59464210000000
C         0.25062270000000   -3.03349030000000    1.83090550000000
C        -0.74953540000000   -2.30683290000000    2.59495830000000
C        -1.98579880000000   -2.30683290000000    1.83090550000000
C        -0.25062270000000   -3.03349030000000   -1.83090550000000
C         0.74953540000000   -2.30683290000000   -2.59495830000000
C         1.98579880000000   -2.30683290000000   -1.83090550000000
C         1.74969350000000   -3.03349030000000   -0.59464210000000
C         0.36750900000000   -3.48258920000000   -0.59464210000000
C         2.80757400000000   -1.17575640000000   -1.83090550000000
C         2.42554760000000    0.00000000000000   -2.59495830000000
C         2.80757400000000    1.17575640000000   -1.83090550000000
C         3.42570570000000    0.72665740000000   -0.59464210000000
C         3.42570570000000   -0.72665740000000   -0.59464210000000
C         1.98579880000000    2.30683290000000   -1.83090550000000
C         0.74953540000000    2.30683290000000   -2.59495830000000
C        -0.25062270000000    3.03349030000000   -1.83090550000000
C         0.36750900000000    3.48258920000000   -0.59464210000000
C         1.74969350000000    3.03349030000000   -0.59464210000000
C        -1.58028280000000    2.60145750000000   -1.83090550000000
C        -1.96230920000000    1.42570110000000   -2.59495830000000
C        -2.96246730000000    0.69904370000000   -1.83090550000000
C        -3.19857260000000    1.42570110000000   -0.59464210000000
C        -2.34433560000000    2.60145750000000   -0.59464210000000
C        -2.96246730000000   -0.69904370000000   -1.83090550000000
C        -1.96230920000000   -1.42570110000000   -2.59495830000000
C        -1.58028280000000   -2.60145750000000   -1.83090550000000
C        -2.34433560000000   -2.60145750000000   -0.59464210000000
C        -3.19857260000000   -1.42570110000000   -0.59464210000000
C        -1.00015810000000   -0.72665740000000   -3.32997640000000
C        -1.00015810000000    0.72665740000000   -3.32997640000000
C         0.38202640000000    1.17575640000000   -3.32997640000000
C         1.23626340000000    0.00000000000000   -3.32997640000000
C         0.38202640000000   -1.17575640000000   -3.32997640000000
Cl       -1.84886636902500    0.00000000000000    5.03315507598844
61
 energy: -132.986153513612 gnorm: 0.075970273013 xtb: 6.4.1 (a3dbbd7)
C        -1.25233475687431    0.00000000000000    3.36368432824673
C        -0.36365670181156   -1.18169115647694    3.33105023127376
C         1.00080767577220   -0.72455870592964    3.31473214945518
C         1.00080767577220    0.72455870592964    3.31473214945518
C        -0.36365670181156    1.18169115647694    3.33105023127376
C         2.33523147589921   -2.58752146927354    0.58985414758169
C         3.18426494114896   -1.41781538256402    0.58839548527149
C         2.95049504980361   -0.69547240831270    1.81825219244359
C         1.95993225612012   -1.42123907319263    2.58103887263602
C         1.58018331238642   -2.58842335099910    1.82167191943575
C         3.18426494114896    1.41781538256402    0.58839548527149
C         2.33523147589921    2.58752146927354    0.58985414758169
C         1.58018331238642    2.58842335099910    1.82167191943575
C         1.95993225612012    1.42123907319263    2.58103887263602
C         2.95049504980361    0.69547240831270    1.81825219244359
C        -0.36165211432494    3.45999740810314    0.59376653616842
C        -1.73750340557842    3.01406646310512    0.59298129574868
C        -1.96951149098530    2.29167550668915    1.81626545389214
C        -0.73293047285751    2.29065428335435    2.58137289925618
C         0.25676016957756    3.01917914259619    1.82394646694643
C        -3.41907296376033    0.72257332642848    0.57550052630672
C        -3.41907296376033   -0.72257332642848    0.57550052630672
C        -2.79218938975974   -1.16522280143196    1.80046266929817
C        -2.43113860017299   -0.00000000000000    2.54544006464236
C        -2.79218938975974    1.16522280143196    1.80046266929817
C        -1.73750340557842   -3.01406646310512    0.59298129574868
C        -0.36165211432494   -3.45999740810314    0.59376653616842
C         0.25676016957756   -3.01917914259619    1.82394646694643
C        -0.73293047285751   -2.29065428335434    2.58137289925619
C        -1.96951149098530   -2.29167550668915    1.81626545389214
C        -0.25016034899379   -3.01746718139197   -1.82038338321454
C         0.74281127478504   -2.29432047578699   -2.58059397721681
C         1.97388191324969   -2.29432303079926   -1.82208092742510
C         1.74124929002295   -3.01607792812880   -0.59244136340094
C         0.36623631452774   -3.46187942247431   -0.59042936980013
C         2.79137101133862   -1.16898112070083   -1.82356681807173
C         2.41087409675878    0.00000000000000   -2.58294865219774
C         2.79137101133862    1.16898112070083   -1.82356681807173
C         3.40753955950807    0.72271376292930   -0.59496190361801
C         3.40753955950807   -0.72271376292930   -0.59496190361801
C         1.97388191324969    2.29432303079926   -1.82208092742510
C         0.74281127478504    2.29432047578699   -2.58059397721681
C        -0.25016034899379    3.01746718139196   -1.82038338321454
C         0.36623631452774    3.46187942247431   -0.59042936980013
C         1.74124929002295    3.01607792812880   -0.59244136340094
C        -1.57391464111561    2.58777881363901   -1.82090384423997
C        -1.95387389086331    1.41886252375685   -2.58297623477003
C        -2.95048603065876    0.69549623448849   -1.82735079150217
C        -3.18805779639956    1.42068919356067   -0.60098988291963
C        -2.33317472777199    2.58764390411090   -0.59364837850405
C        -2.95048603065876   -0.69549623448849   -1.82735079150217
C        -1.95387389086331   -1.41886252375685   -2.58297623477003
C        -1.57391464111561   -2.58777881363901   -1.82090384423997
C        -2.33317472777199   -2.58764390411090   -0.59364837850405
C        -3.18805779639956   -1.42068919356067   -0.60098988291963
C        -0.99746789934104   -0.72282930840565   -3.31266571979607
C        -0.99746789934104    0.72282930840565   -3.31266571979607
C         0.37729578130631    1.16930914250361   -3.31204252637778
C         1.22617494415959    0.00000000000000   -3.31253077439931
C         0.37729578130631   -1.16930914250360   -3.31204252637778
Cl       -1.89125835534534   -0.00000000000000    5.11099865998188
61
 energy: -132.995167534947 gnorm: 0.048051756462 xtb: 6.4.1 (a3dbbd7)
C        -1.29474473915202    0.00000000000000    3.49609258075538
C        -0.34927655385653   -1.17926536464452    3.28992366293306
C         0.99135731748053   -0.72078690738691    3.27511548682806
C         0.99135731748053    0.72078690738691    3.27511548682806
C        -0.34927655385653    1.17926536464452    3.28992366293306
C         2.32783270616411   -2.57514131302538    0.58404030713232
C         3.17210300182794   -1.41128578629395    0.58271837457964
C         2.93939410409893   -0.69257131114563    1.80472556629250
C         1.95536457884995   -1.41869628391751    2.55916424579600
C         1.57813593269838   -2.57718328158713    1.80794978969668
C         3.17210300182794    1.41128578629395    0.58271837457963
C         2.32783270616411    2.57514131302538    0.58404030713232
C         1.57813593269838    2.57718328158713    1.80794978969668
C         1.95536457884995    1.41869628391751    2.55916424579600
C         2.93939410409893    0.69257131114563    1.80472556629250
C        -0.35915321387263    3.44169919205040    0.58627059173739
C        -1.72871058925978    2.99483394107238    0.58847824439282
C        -1.96186368803585    2.28272406047230    1.80060249870540
C        -0.72104067665612    2.27191488059282    2.54967843412096
C         0.25825682027699    3.00566249886630    1.80742703602056
C        -3.40464138068826    0.71689699813261    0.56367233539292
C        -3.40464138068826   -0.71689699813261    0.56367233539292
C        -2.77008920886811   -1.14776665001240    1.78339228618283
C        -2.43801887522302   -0.00000000000000    2.52710405452975
C        -2.77008920886811    1.14776665001240    1.78339228618283
C        -1.72871058925978   -2.99483394107238    0.58847824439282
C        -0.35915321387263   -3.44169919205040    0.58627059173739
C         0.25825682027699   -3.00566249886630    1.80742703602056
C        -0.72104067665612   -2.27191488059282    2.54967843412096
C        -1.96186368803585   -2.28272406047230    1.80060249870540
C        -0.24712249245598   -3.00145607560753   -1.81365075213338
C         0.73991565091664   -2.28191789500262   -2.56732363896310
C         1.96507697499636   -2.28223277522735   -1.81293980336984
C         1.73416717012054   -3.00002148114434   -0.59182441552265
C         0.36555469363120   -3.44315145683054   -0.59064762804048
C         2.77933094429625   -1.16202790724823   -1.81496898282824
C         2.40157564761462    0.00000000000000   -2.56969647390285
C         2.77933094429625    1.16202790724823   -1.81496898282824
C         3.39289622554587    0.71884626018614   -0.59425810231024
C         3.39289622554586   -0.71884626018613   -0.59425810231024
C         1.96507697499636    2.28223277522735   -1.81293980336984
C         0.73991565091664    2.28191789500262   -2.56732363896309
C        -0.24712249245598    3.00145607560753   -1.81365075213338
C         0.36555469363120    3.44315145683054   -0.59064762804048
C         1.73416717012054    3.00002148114434   -0.59182441552265
C        -1.56611015221196    2.57301694367068   -1.81304580412086
C        -1.94271096939927    1.41092775065889   -2.57319131694154
C        -2.93628172466721    0.69206032316830   -1.82481297283641
C        -3.17276230807178    1.41267717678853   -0.60488059994266
C        -2.32308757226122    2.57403737553105   -0.59754440065929
C        -2.93628172466721   -0.69206032316830   -1.82481297283641
C        -1.94271096939927   -1.41092775065889   -2.57319131694154
C        -1.56611015221196   -2.57301694367068   -1.81304580412085
C        -2.32308757226123   -2.57403737553105   -0.59754440065929
C        -3.17276230807178   -1.41267717678853   -0.60488059994266
C        -0.99003933015790   -0.71871619936249   -3.29718985987651
C        -0.99003933015790    0.71871619936249   -3.29718985987651
C         0.37761432140077    1.16224584458602   -3.29562696727683
C         1.22110562389904   -0.00000000000000   -3.29517993195417
C         0.37761432140077   -1.16224584458602   -3.29562696727683
Cl       -1.94700518984731   -0.00000000000000    5.29232761658210
61
 energy: -132.998355026589 gnorm: 0.021668969723 xtb: 6.4.1 (a3dbbd7)
C        -1.28901839477946   -0.00000000000000    3.48940320611463
C        -0.36147902850334   -1.17892758898590    3.31417030001035
C         0.98763347862163   -0.72162209159184    3.28777751724954
C         0.98763347862163    0.72162209159184    3.28777751724954
C        -0.36147902850334    1.17892758898590    3.31417030001034
C         2.33268664623774   -2.57965638673998    0.58415129794737
C         3.17871471306417   -1.41346686154335    0.58235559858629
C         2.94334103139284   -0.69355587298073    1.80734037635480
C         1.95374869448326   -1.41688522131178    2.56435380345693
C         1.57840051087776   -2.57770632450066    1.81019989447785
C         3.17871471306417    1.41346686154335    0.58235559858629
C         2.33268664623774    2.57965638673999    0.58415129794737
C         1.57840051087776    2.57770632450066    1.81019989447785
C         1.95374869448326    1.41688522131178    2.56435380345693
C         2.94334103139284    0.69355587298073    1.80734037635480
C        -0.35984977361855    3.44427253088875    0.58678791915313
C        -1.73146499105655    2.99786485413166    0.58908701383043
C        -1.96641048076503    2.28639463074770    1.80807871530146
C        -0.72904246307548    2.27570758872998    2.56588175628090
C         0.25529316467969    3.00165583430785    1.81062643271771
C        -3.40357722230861    0.71826650355021    0.56955658764838
C        -3.40357722230861   -0.71826650355021    0.56955658764838
C        -2.77479408122014   -1.15097483992010    1.79665798636657
C        -2.43221730383390   -0.00000000000000    2.54769352725051
C        -2.77479408122014    1.15097483992010    1.79665798636657
C        -1.73146499105655   -2.99786485413166    0.58908701383043
C        -0.35984977361855   -3.44427253088875    0.58678791915313
C         0.25529316467969   -3.00165583430785    1.81062643271771
C        -0.72904246307548   -2.27570758872998    2.56588175628090
C        -1.96641048076503   -2.28639463074770    1.80807871530146
C        -0.24673624829696   -3.00684421306963   -1.81949427183626
C         0.74244886587543   -2.28629929960201   -2.57543460862287
C         1.96986762217846   -2.28648908470164   -1.81916983279189
C         1.73846887622521   -3.00554401314332   -0.59478440679217
C         0.36677413800866   -3.44824094816911   -0.59304733554200
C         2.78633934419742   -1.16440547631081   -1.82170100704113
C         2.40737272955598    0.00000000000000   -2.57838105582446
C         2.78633934419742    1.16440547631081   -1.82170100704112
C         3.40132918868839    0.72030132350524   -0.59804298232307
C         3.40132918868839   -0.72030132350524   -0.59804298232307
C         1.96986762217846    2.28648908470164   -1.81916983279189
C         0.74244886587543    2.28629929960201   -2.57543460862287
C        -0.24673624829696    3.00684421306963   -1.81949427183626
C         0.36677413800866    3.44824094816911   -0.59304733554200
C         1.73846887622522    3.00554401314332   -0.59478440679217
C        -1.56814301050307    2.57791529848571   -1.81909468730384
C        -1.94658715802678    1.41406582261147   -2.58137952548589
C        -2.94192863830600    0.69371750473548   -1.83004693953078
C        -3.17580549389696    1.41429385473904   -0.60516552715690
C        -2.32583769958349    2.57817102001422   -0.59940835659610
C        -2.94192863830600   -0.69371750473548   -1.83004693953078
C        -1.94658715802678   -1.41406582261147   -2.58137952548589
C        -1.56814301050307   -2.57791529848571   -1.81909468730384
C        -2.32583769958349   -2.57817102001422   -0.59940835659610
C        -3.17580549389696   -1.41429385473904   -0.60516552715690
C        -0.99169787432093   -0.72030298412956   -3.30750537908215
C        -0.99169787432093    0.72030298412956   -3.30750537908215
C         0.37895851633305    1.16463301250062   -3.30580878405995
C         1.22447373718652   -0.00000000000000   -3.30538363315846
C         0.37895851633305   -1.16463301250062   -3.30580878405995
Cl       -1.94077839191778   -0.00000000000000    5.26593992117273
61
 energy: -132.998940850735 gnorm: 0.014980640495 xtb: 6.4.1 (a3dbbd7)
C        -1.29142123465901    0.00000000000000    3.50374655430994
C        -0.36764723876251   -1.17722329890644    3.31766751018755
C         0.98338963329254   -0.72164440587541    3.28714226817144
C         0.98338963329254    0.72164440587541    3.28714226817144
C        -0.36764723876251    1.17722329890644    3.31766751018755
C         2.33449451606807   -2.58141624954903    0.58360147710222
C         3.18110463468286   -1.41457291294492    0.58204895142204
C         2.94379145709612   -0.69387264690319    1.80729064198083
C         1.95172276743961   -1.41575165840387    2.56378786698107
C         1.57798518005687   -2.57773294559032    1.80980437152923
C         3.18110463468286    1.41457291294492    0.58204895142204
C         2.33449451606807    2.58141624954903    0.58360147710222
C         1.57798518005687    2.57773294559032    1.80980437152923
C         1.95172276743961    1.41575165840387    2.56378786698107
C         2.94379145709612    0.69387264690319    1.80729064198083
C        -0.36038866641566    3.44423708719253    0.58615974701984
C        -1.73296054019371    2.99921065192688    0.58896587315247
C        -1.96931122603499    2.28942132709572    1.81024711577840
C        -0.73244577808533    2.27605540010891    2.56929376094226
C         0.25374820369605    2.99874490658671    1.81023508288632
C        -3.39983006926525    0.71815286684866    0.57244719686455
C        -3.39983006926525   -0.71815286684866    0.57244719686455
C        -2.77414091821871   -1.15085589250906    1.80327144010658
C        -2.42685575432218    0.00000000000000    2.55695935481137
C        -2.77414091821871    1.15085589250906    1.80327144010658
C        -1.73296054019371   -2.99921065192688    0.58896587315247
C        -0.36038866641567   -3.44423708719252    0.58615974701984
C         0.25374820369605   -2.99874490658672    1.81023508288632
C        -0.73244577808533   -2.27605540010891    2.56929376094226
C        -1.96931122603499   -2.28942132709572    1.81024711577840
C        -0.24614363871529   -3.00876062351152   -1.82186278661697
C         0.74379695123576   -2.28783614414102   -2.57812429295851
C         1.97195144286541   -2.28803439654933   -1.82129079022206
C         1.73999662317645   -3.00741088294781   -0.59620848502280
C         0.36726735033641   -3.44987566916185   -0.59428685042944
C         2.78931678830830   -1.16523061733201   -1.82371298692520
C         2.40984581284804    0.00000000000000   -2.58073482998384
C         2.78931678830830    1.16523061733201   -1.82371298692520
C         3.40474967109821    0.72086767622225   -0.59920789717494
C         3.40474967109821   -0.72086767622224   -0.59920789717494
C         1.97195144286541    2.28803439654933   -1.82129079022206
C         0.74379695123576    2.28783614414101   -2.57812429295851
C        -0.24614363871529    3.00876062351152   -1.82186278661697
C         0.36726735033641    3.44987566916186   -0.59428685042943
C         1.73999662317645    3.00741088294781   -0.59620848502279
C        -1.56844071904647    2.57965357160222   -1.82113941504649
C        -1.94748804197235    1.41513405996712   -2.58387118053584
C        -2.94296661321542    0.69427399998049   -1.83098947716483
C        -3.17554088201420    1.41440871075779   -0.60451464828268
C        -2.32649767726462    2.57979413798927   -0.60052030981851
C        -2.94296661321542   -0.69427399998049   -1.83098947716483
C        -1.94748804197235   -1.41513405996712   -2.58387118053584
C        -1.56844071904647   -2.57965357160221   -1.82113941504648
C        -2.32649767726462   -2.57979413798927   -0.60052030981851
C        -3.17554088201420   -1.41440871075779   -0.60451464828268
C        -0.99174084856552   -0.72083501793543   -3.31055352639953
C        -0.99174084856552    0.72083501793543   -3.31055352639953
C         0.37991425676271    1.16532921638252   -3.30896112621489
C         1.22597780000284   -0.00000000000000   -3.30814922959342
C         0.37991425676271   -1.16532921638252   -3.30896112621489
Cl       -1.94178622958535   -0.00000000000000    5.26789416382020
61
 energy: -132.999310797681 gnorm: 0.008294877745 xtb: 6.4.1 (a3dbbd7)
C        -1.29546969994590   -0.00000000000000    3.52372587255239
C        -0.37272800636401   -1.17477981272321    3.31450751082582
C         0.97928888514203   -0.72158711639188    3.28292746302432
C         0.97928888514203    0.72158711639188    3.28292746302432
C        -0.37272800636401    1.17477981272321    3.31450751082581
C         2.33586625244656   -2.58302099487241    0.58318644267427
C         3.18272080739966   -1.41567506846667    0.58210920818598
C         2.94387837126555   -0.69412922848352    1.80709143213682
C         1.95001183945453   -1.41507750156373    2.56218522750394
C         1.57755682335095   -2.57838773275541    1.80912050499263
C         3.18272080739967    1.41567506846668    0.58210920818598
C         2.33586625244657    2.58302099487241    0.58318644267427
C         1.57755682335096    2.57838773275541    1.80912050499263
C         1.95001183945453    1.41507750156373    2.56218522750394
C         2.94387837126555    0.69412922848352    1.80709143213681
C        -0.36112408202060    3.44483186142452    0.58548482732192
C        -1.73468486796141    3.00149203958720    0.58871882798755
C        -1.97228796995821    2.29311698580483    1.81109662283731
C        -0.73499294886550    2.27659139240880    2.56975793983813
C         0.25264939096026    2.99694664918412    1.80915111741828
C        -3.39577605649183    0.71773133443846    0.57472376342665
C        -3.39577605649182   -0.71773133443846    0.57472376342665
C        -2.77221797291203   -1.15013670938518    1.80833262544144
C        -2.42053317017814   -0.00000000000000    2.56347504624810
C        -2.77221797291203    1.15013670938518    1.80833262544144
C        -1.73468486796140   -3.00149203958720    0.58871882798755
C        -0.36112408202060   -3.44483186142452    0.58548482732192
C         0.25264939096026   -2.99694664918412    1.80915111741827
C        -0.73499294886550   -2.27659139240879    2.56975793983813
C        -1.97228796995820   -2.29311698580483    1.81109662283731
C        -0.24567349720638   -3.01028015234570   -1.82327145685636
C         0.74480139549666   -2.28894358587505   -2.57939618369342
C         1.97333955790519   -2.28914072435234   -1.82215762937722
C         1.74086793603837   -3.00887041474178   -0.59693465686115
C         0.36750351217417   -3.45158846442560   -0.59505355351509
C         2.79122700405415   -1.16578019134309   -1.82427744817895
C         2.41148507121460   -0.00000000000000   -2.58140422443467
C         2.79122700405416    1.16578019134309   -1.82427744817895
C         3.40704172644062    0.72128481663373   -0.59939614160718
C         3.40704172644061   -0.72128481663373   -0.59939614160718
C         1.97333955790519    2.28914072435233   -1.82215762937722
C         0.74480139549666    2.28894358587505   -2.57939618369342
C        -0.24567349720638    3.01028015234570   -1.82327145685636
C         0.36750351217417    3.45158846442560   -0.59505355351510
C         1.74086793603837    3.00887041474178   -0.59693465686115
C        -1.56855513983989    2.58106357126086   -1.82223059372181
C        -1.94779668122487    1.41581007121459   -2.58482812931223
C        -2.94300850066611    0.69458793226613   -1.83057330148928
C        -3.17495046506006    1.41449693776109   -0.60349377110471
C        -2.32699297460474    2.58147050533286   -0.60135683346689
C        -2.94300850066611   -0.69458793226613   -1.83057330148928
C        -1.94779668122487   -1.41581007121459   -2.58482812931222
C        -1.56855513983989   -2.58106357126086   -1.82223059372181
C        -2.32699297460474   -2.58147050533285   -0.60135683346689
C        -3.17495046506006   -1.41449693776109   -0.60349377110471
C        -0.99152764138717   -0.72117044075638   -3.31168874327440
C        -0.99152764138717    0.72117044075638   -3.31168874327440
C         0.38071721160577    1.16573973291380   -3.31022309435187
C         1.22705275990088   -0.00000000000000   -3.30903955678623
C         0.38071721160577   -1.16573973291380   -3.31022309435187
Cl       -1.94170914835977   -0.00000000000001    5.26937398479989
61
 energy: -132.999399995255 gnorm: 0.004801991135 xtb: 6.4.1 (a3dbbd7)
C        -1.29700201129430    0.00000000000000    3.53039065779116
C        -0.37307802045915   -1.17398651518905    3.31083932402510
C         0.97871123641082   -0.72157073802990    3.28071154339175
C         0.97871123641082    0.72157073802990    3.28071154339175
C        -0.37307802045915    1.17398651518905    3.31083932402511
C         2.33587001118310   -2.58318290981862    0.58325825825219
C         3.18260158630192   -1.41580131205039    0.58231578977714
C         2.94374897115018   -0.69414406251422    1.80708160004548
C         1.94988266978157   -1.41522529973778    2.56157345970222
C         1.57747224725111   -2.57885544961099    1.80896497618389
C         3.18260158630192    1.41580131205039    0.58231578977713
C         2.33587001118310    2.58318290981862    0.58325825825219
C         1.57747224725111    2.57885544961099    1.80896497618388
C         1.94988266978157    1.41522529973778    2.56157345970222
C         2.94374897115018    0.69414406251422    1.80708160004548
C        -0.36135443216269    3.44536965075066    0.58548753297583
C        -1.73511068392118    3.00230199609818    0.58879043654339
C        -1.97286231284509    2.29396237886937    1.81077869545821
C        -0.73502242865259    2.27699912968326    2.56887309376530
C         0.25268189177899    2.99725504486285    1.80877549475228
C        -3.39521149300914    0.71753539128350    0.57485541273608
C        -3.39521149300914   -0.71753539128350    0.57485541273608
C        -2.77140709711025   -1.14972745340591    1.80838395372072
C        -2.41913801752918    0.00000000000000    2.56311224638483
C        -2.77140709711025    1.14972745340592    1.80838395372072
C        -1.73511068392118   -3.00230199609817    0.58879043654339
C        -0.36135443216269   -3.44536965075066    0.58548753297583
C         0.25268189177899   -2.99725504486285    1.80877549475229
C        -0.73502242865259   -2.27699912968326    2.56887309376530
C        -1.97286231284509   -2.29396237886937    1.81077869545821
C        -0.24568655387590   -3.01029605234326   -1.82301204936717
C         0.74478411869334   -2.28888507123298   -2.57895071519793
C         1.97321739220602   -2.28907208396902   -1.82168804009418
C         1.74069248999487   -3.00889579606886   -0.59665495153127
C         0.36739716037760   -3.45186122733364   -0.59487156299517
C         2.79101299413174   -1.16573349759642   -1.82371233237560
C         2.41135909740490    0.00000000000000   -2.58079205868139
C         2.79101299413174    1.16573349759642   -1.82371233237560
C         3.40683424867252    0.72126470942673   -0.59896517290432
C         3.40683424867252   -0.72126470942673   -0.59896517290432
C         1.97321739220602    2.28907208396902   -1.82168804009418
C         0.74478411869334    2.28888507123298   -2.57895071519793
C        -0.24568655387590    3.01029605234326   -1.82301204936717
C         0.36739716037760    3.45186122733364   -0.59487156299517
C         1.74069248999487    3.00889579606886   -0.59665495153127
C        -1.56851252360134    2.58108718340620   -1.82191767465341
C        -1.94752619290169    1.41566792175231   -2.58425234161173
C        -2.94256830436775    0.69450537183068   -1.82987290194538
C        -3.17473656412411    1.41450521096453   -0.60311389968203
C        -2.32700243104623    2.58173140731672   -0.60126659511306
C        -2.94256830436776   -0.69450537183068   -1.82987290194538
C        -1.94752619290168   -1.41566792175231   -2.58425234161173
C        -1.56851252360134   -2.58108718340619   -1.82191767465341
C        -2.32700243104623   -2.58173140731672   -0.60126659511306
C        -3.17473656412411   -1.41450521096453   -0.60311389968203
C        -0.99136259755804   -0.72112311761480   -3.31102603544954
C        -0.99136259755804    0.72112311761480   -3.31102603544954
C         0.38078903066431    1.16567391295839   -3.30959401252801
C         1.22706379787059    0.00000000000000   -3.30841826332394
C         0.38078903066432   -1.16567391295839   -3.30959401252801
Cl       -1.93965806140294   -0.00000000000001    5.26527992205624
61
 energy: -132.999436823608 gnorm: 0.002044376359 xtb: 6.4.1 (a3dbbd7)
C        -1.29761850492294    0.00000000000000    3.53231106769280
C        -0.37211363069932   -1.17400171699532    3.30894049795221
C         0.97918625593418   -0.72157733485398    3.28007243219678
C         0.97918625593418    0.72157733485398    3.28007243219678
C        -0.37211363069932    1.17400171699532    3.30894049795221
C         2.33556932856081   -2.58290180074994    0.58342955286839
C         3.18216423171037   -1.41560754415216    0.58244804207353
C         2.94365823009869   -0.69409101951399    1.80712804927941
C         1.95017600582692   -1.41550103494788    2.56150821122155
C         1.57753324074082   -2.57903073577042    1.80902704231193
C         3.18216423171037    1.41560754415216    0.58244804207352
C         2.33556932856081    2.58290180074994    0.58342955286839