 Entering Gaussian System, Link 0=g16
 Input=dihept_10_addons_5.gjf
 Output=dihept_10_addons_5.log
 Initial command:
 /home/mkliu/g16/l1.exe "/data/scratch/Gau-106627.inp" -scrdir="/data/scratch/"
 Entering Link 1 = /home/mkliu/g16/l1.exe PID=    106628.
  
 Copyright (c) 1988,1990,1992,1993,1995,1998,2003,2009,2016,
            Gaussian, Inc.  All Rights Reserved.
  
 This is part of the Gaussian(R) 16 program.  It is based on
 the Gaussian(R) 09 system (copyright 2009, Gaussian, Inc.),
 the Gaussian(R) 03 system (copyright 2003, Gaussian, Inc.),
 the Gaussian(R) 98 system (copyright 1998, Gaussian, Inc.),
 the Gaussian(R) 94 system (copyright 1995, Gaussian, Inc.),
 the Gaussian 92(TM) system (copyright 1992, Gaussian, Inc.),
 the Gaussian 90(TM) system (copyright 1990, Gaussian, Inc.),
 the Gaussian 88(TM) system (copyright 1988, Gaussian, Inc.),
 the Gaussian 86(TM) system (copyright 1986, Carnegie Mellon
 University), and the Gaussian 82(TM) system (copyright 1983,
 Carnegie Mellon University). Gaussian is a federally registered
 trademark of Gaussian, Inc.
  
 This software contains proprietary and confidential information,
 including trade secrets, belonging to Gaussian, Inc.
  
 This software is provided under written license and may be
 used, copied, transmitted, or stored only in accord with that
 written license.
  
 The following legend is applicable only to US Government
 contracts under FAR:
  
                    RESTRICTED RIGHTS LEGEND
  
 Use, reproduction and disclosure by the US Government is
 subject to restrictions as set forth in subparagraphs (a)
 and (c) of the Commercial Computer Software - Restricted
 Rights clause in FAR 52.227-19.
  
 Gaussian, Inc.
 340 Quinnipiac St., Bldg. 40, Wallingford CT 06492
  
  
 ---------------------------------------------------------------
 Warning -- This program may not be used in any manner that
 competes with the business of Gaussian, Inc. or will provide
 assistance to any competitor of Gaussian, Inc.  The licensee
 of this program is prohibited from giving any competitor of
 Gaussian, Inc. access to this program.  By using this program,
 the user acknowledges that Gaussian, Inc. is engaged in the
 business of creating and licensing software in the field of
 computational chemistry and represents and warrants to the
 licensee that it is not a competitor of Gaussian, Inc. and that
 it will not use this program in any manner prohibited above.
 ---------------------------------------------------------------
  

 Cite this work as:
 Gaussian 16, Revision A.03,
 M. J. Frisch, G. W. Trucks, H. B. Schlegel, G. E. Scuseria, 
 M. A. Robb, J. R. Cheeseman, G. Scalmani, V. Barone, 
 G. A. Petersson, H. Nakatsuji, X. Li, M. Caricato, A. V. Marenich, 
 J. Bloino, B. G. Janesko, R. Gomperts, B. Mennucci, H. P. Hratchian, 
 J. V. Ortiz, A. F. Izmaylov, J. L. Sonnenberg, D. Williams-Young, 
 F. Ding, F. Lipparini, F. Egidi, J. Goings, B. Peng, A. Petrone, 
 T. Henderson, D. Ranasinghe, V. G. Zakrzewski, J. Gao, N. Rega, 
 G. Zheng, W. Liang, M. Hada, M. Ehara, K. Toyota, R. Fukuda, 
 J. Hasegawa, M. Ishida, T. Nakajima, Y. Honda, O. Kitao, H. Nakai, 
 T. Vreven, K. Throssell, J. A. Montgomery, Jr., J. E. Peralta, 
 F. Ogliaro, M. J. Bearpark, J. J. Heyd, E. N. Brothers, K. N. Kudin, 
 V. N. Staroverov, T. A. Keith, R. Kobayashi, J. Normand, 
 K. Raghavachari, A. P. Rendell, J. C. Burant, S. S. Iyengar, 
 J. Tomasi, M. Cossi, J. M. Millam, M. Klene, C. Adamo, R. Cammi, 
 J. W. Ochterski, R. L. Martin, K. Morokuma, O. Farkas, 
 J. B. Foresman, and D. J. Fox, Gaussian, Inc., Wallingford CT, 2016.
 
 ******************************************
 Gaussian 16:  ES64L-G16RevA.03 25-Dec-2016
                20-Jul-2022 
 ******************************************
 %mem=10GB
 %chk=dihept_10_addons_5.chk
 %nprocshared=48
 Will use up to   48 processors via shared memory.
 -------------------------------------------------
 #P opt b3lyp/6-311G(d, p) empiricaldispersion=GD3
 -------------------------------------------------
 1/18=20,19=15,26=3,38=1/1,3;
 2/9=110,12=2,17=6,18=5,40=1/2;
 3/5=4,6=6,7=101,11=2,25=1,30=1,71=1,74=-5,124=31/1,2,3;
 4//1;
 5/5=2,38=5/2;
 6/7=2,8=2,9=2,10=2,28=1/1;
 7//1,2,3,16;
 1/18=20,19=15,26=3/3(2);
 2/9=110/2;
 99//99;
 2/9=110/2;
 3/5=4,6=6,7=101,11=2,25=1,30=1,71=1,74=-5,124=31/1,2,3;
 4/5=5,16=3,69=1/1;
 5/5=2,38=5/2;
 7//1,2,3,16;
 1/18=20,19=15,26=3/3(-5);
 2/9=110/2;
 6/7=2,8=2,9=2,10=2,19=2,28=1/1;
 99/9=1/99;
 Leave Link    1 at Wed Jul 20 21:27:26 2022, MaxMem=  1342177280 cpu:               3.2 elap:               0.1
 (Enter /home/mkliu/g16/l101.exe)
 -----
 force
 -----
 Symbolic Z-matrix:
 Charge =  0 Multiplicity = 1
 C                     12.7612   12.06841   21.88276 
 C                     12.76545   13.01076   22.89933 
 C                     12.6451   14.40929   22.57593 
 C                     12.582    14.82564   21.2505 
 C                     13.44819   15.14642   23.49759 
 C                     14.07897   14.224    24.40074 
 C                     15.62798   17.31411   18.74796 
 C                     13.69038   12.89429   24.00281 
 C                     15.37189   14.47854   24.85276 
 C                     16.90277   16.9895   17.88252 
 C                     16.04679   15.68593   24.49907 
 C                     15.44258   16.51888   23.59491 
 C                     14.15746   16.24532   23.03434 
 C                     19.12495   14.06747   22.57223 
 C                     16.23205   17.11591   22.547 
 C                     19.49218   15.50202   22.73742 
 C                     19.54572   16.22742   21.35257 
 C                     17.40638   11.59956   19.33182 
 C                     17.64553   11.3176   20.75333 
 C                     18.38601   12.07909   21.64058 
 C                     18.15604   17.09815   18.79175 
 C                     17.5451   17.21896   20.15171 
 C                     16.1535   17.3365   20.15402 
 C                     15.46634   17.21109   21.35481 
 C                     14.15119   16.63762   21.63731 
 C                     13.35102   15.94514   20.74575 
 C                     13.64208   15.67998   19.32663 
 C                     14.66931   16.15689   18.53441 
 C                     15.26788   15.26851   17.59382 
 C                     16.64882   15.58923   17.44272 
 C                     17.57245   14.59252   17.44557 
 C                     17.13828   13.24245   17.59109 
 C                     18.99328   14.72012   17.88598 
 C                     15.80031   12.91157   17.42815 
 C                     14.83158   13.96208   17.43071 
 C                     13.68244   13.50518   18.13335 
 C                     19.18831   13.44197   18.77304 
 C                     13.08945   14.37281   19.04082 
 C                     12.47399   13.84086   20.21857 
 C                     17.96544   12.58404   18.54492 
 C                     12.56414   12.48342   20.52034 
 C                     13.3547   11.62935   19.67195 
 C                     13.89202   12.12484   18.49784 
 C                     15.25035   11.80338   18.13151 
 C                     19.10032   13.33718   21.408 
 C                     19.30635   14.01641   20.15924 
 C                     16.06516   11.14382   19.04182 
 C                     19.45253   15.35098   20.1388 
 C                     15.48806   10.57847   20.22343 
 C                     19.25342   15.96505   18.77299 
 C                     16.4776   10.6227   21.25675 
 C                     16.06574   10.71595   22.5806 
 C                     16.86173   11.46311   23.49823 
 C                     18.00302   12.09443   23.03165 
 C                     18.39788   13.35451   23.58525 
 C                     18.24606   16.96626   21.30681 
 C                     17.59207   16.92736   22.52311 
 C                     18.42154   16.28851   23.59349 
 C                     17.55509   15.4993   24.62009 
 C                     17.60998   13.99367   24.50312 
 C                     16.34833   13.42042   24.85391 
 C                     15.98831   12.15452   24.40521 
 C                     14.63282   11.87236   24.00495 
 C                     14.67852   10.93966   22.90385 
 C                     13.74161   11.00824   21.88509 
 C                     14.14204   10.7749   20.52332 
 H                     15.16699   18.2692   18.47704 
 H                     16.98621   17.66424   17.02714 
 H                     18.67126   18.03547   18.55305 
 H                     20.1857   16.43975   18.44631 
 H                     19.66809   14.71719   17.02642 
 H                     20.09919   12.88713   18.52173 
 H                     20.41947   16.88413   21.2892 
 H                     20.4651   15.56278   23.23727 
 H                     18.95443   17.07078   24.14593 
 H                     17.87002   15.79198   25.62913 
 
 ITRead=  0  0  0  0  0  0  0  0  0  0  0  0  0  0  0  0  0  0  0  0
 ITRead=  0  0  0  0  0  0  0  0  0  0  0  0  0  0  0  0  0  0  0  0
 ITRead=  0  0  0  0  0  0  0  0  0  0  0  0  0  0  0  0  0  0  0  0
 ITRead=  0  0  0  0  0  0  0  0  0  0  0  0  0  0  0  0
 MicOpt= -1 -1 -1 -1 -1 -1 -1 -1 -1 -1 -1 -1 -1 -1 -1 -1 -1 -1 -1 -1
 MicOpt= -1 -1 -1 -1 -1 -1 -1 -1 -1 -1 -1 -1 -1 -1 -1 -1 -1 -1 -1 -1
 MicOpt= -1 -1 -1 -1 -1 -1 -1 -1 -1 -1 -1 -1 -1 -1 -1 -1 -1 -1 -1 -1
 MicOpt= -1 -1 -1 -1 -1 -1 -1 -1 -1 -1 -1 -1 -1 -1 -1 -1
 NAtoms=     76 NQM=       76 NQMF=       0 NMMI=      0 NMMIF=      0
                NMic=       0 NMicF=      0.
                    Isotopes and Nuclear Properties:
 (Nuclear quadrupole moments (NQMom) in fm**2, nuclear magnetic moments (NMagM)
  in nuclear magnetons)

  Atom         1           2           3           4           5           6           7           8           9          10
 IAtWgt=          12          12          12          12          12          12          12          12          12          12
 AtmWgt=  12.0000000  12.0000000  12.0000000  12.0000000  12.0000000  12.0000000  12.0000000  12.0000000  12.0000000  12.0000000
 NucSpn=           0           0           0           0           0           0           0           0           0           0
 AtZEff=  -0.0000000  -0.0000000  -0.0000000  -0.0000000  -0.0000000  -0.0000000  -0.0000000  -0.0000000  -0.0000000  -0.0000000
 NQMom=    0.0000000   0.0000000   0.0000000   0.0000000   0.0000000   0.0000000   0.0000000   0.0000000   0.0000000   0.0000000
 NMagM=    0.0000000   0.0000000   0.0000000   0.0000000   0.0000000   0.0000000   0.0000000   0.0000000   0.0000000   0.0000000
 AtZNuc=   6.0000000   6.0000000   6.0000000   6.0000000   6.0000000   6.0000000   6.0000000   6.0000000   6.0000000   6.0000000

  Atom        11          12          13          14          15          16          17          18          19          20
 IAtWgt=          12          12          12          12          12          12          12          12          12          12
 AtmWgt=  12.0000000  12.0000000  12.0000000  12.0000000  12.0000000  12.0000000  12.0000000  12.0000000  12.0000000  12.0000000
 NucSpn=           0           0           0           0           0           0           0           0           0           0
 AtZEff=  -0.0000000  -0.0000000  -0.0000000  -0.0000000  -0.0000000  -0.0000000  -0.0000000  -0.0000000  -0.0000000  -0.0000000
 NQMom=    0.0000000   0.0000000   0.0000000   0.0000000   0.0000000   0.0000000   0.0000000   0.0000000   0.0000000   0.0000000
 NMagM=    0.0000000   0.0000000   0.0000000   0.0000000   0.0000000   0.0000000   0.0000000   0.0000000   0.0000000   0.0000000
 AtZNuc=   6.0000000   6.0000000   6.0000000   6.0000000   6.0000000   6.0000000   6.0000000   6.0000000   6.0000000   6.0000000

  Atom        21          22          23          24          25          26          27          28          29          30
 IAtWgt=          12          12          12          12          12          12          12          12          12          12
 AtmWgt=  12.0000000  12.0000000  12.0000000  12.0000000  12.0000000  12.0000000  12.0000000  12.0000000  12.0000000  12.0000000
 NucSpn=           0           0           0           0           0           0           0           0           0           0
 AtZEff=  -0.0000000  -0.0000000  -0.0000000  -0.0000000  -0.0000000  -0.0000000  -0.0000000  -0.0000000  -0.0000000  -0.0000000
 NQMom=    0.0000000   0.0000000   0.0000000   0.0000000   0.0000000   0.0000000   0.0000000   0.0000000   0.0000000   0.0000000
 NMagM=    0.0000000   0.0000000   0.0000000   0.0000000   0.0000000   0.0000000   0.0000000   0.0000000   0.0000000   0.0000000
 AtZNuc=   6.0000000   6.0000000   6.0000000   6.0000000   6.0000000   6.0000000   6.0000000   6.0000000   6.0000000   6.0000000

  Atom        31          32          33          34          35          36          37          38          39          40
 IAtWgt=          12          12          12          12          12          12          12          12          12          12
 AtmWgt=  12.0000000  12.0000000  12.0000000  12.0000000  12.0000000  12.0000000  12.0000000  12.0000000  12.0000000  12.0000000
 NucSpn=           0           0           0           0           0           0           0           0           0           0
 AtZEff=  -0.0000000  -0.0000000  -0.0000000  -0.0000000  -0.0000000  -0.0000000  -0.0000000  -0.0000000  -0.0000000  -0.0000000
 NQMom=    0.0000000   0.0000000   0.0000000   0.0000000   0.0000000   0.0000000   0.0000000   0.0000000   0.0000000   0.0000000
 NMagM=    0.0000000   0.0000000   0.0000000   0.0000000   0.0000000   0.0000000   0.0000000   0.0000000   0.0000000   0.0000000
 AtZNuc=   6.0000000   6.0000000   6.0000000   6.0000000   6.0000000   6.0000000   6.0000000   6.0000000   6.0000000   6.0000000

  Atom        41          42          43          44          45          46          47          48          49          50
 IAtWgt=          12          12          12          12          12          12          12          12          12          12
 AtmWgt=  12.0000000  12.0000000  12.0000000  12.0000000  12.0000000  12.0000000  12.0000000  12.0000000  12.0000000  12.0000000
 NucSpn=           0           0           0           0           0           0           0           0           0           0
 AtZEff=  -0.0000000  -0.0000000  -0.0000000  -0.0000000  -0.0000000  -0.0000000  -0.0000000  -0.0000000  -0.0000000  -0.0000000
 NQMom=    0.0000000   0.0000000   0.0000000   0.0000000   0.0000000   0.0000000   0.0000000   0.0000000   0.0000000   0.0000000
 NMagM=    0.0000000   0.0000000   0.0000000   0.0000000   0.0000000   0.0000000   0.0000000   0.0000000   0.0000000   0.0000000
 AtZNuc=   6.0000000   6.0000000   6.0000000   6.0000000   6.0000000   6.0000000   6.0000000   6.0000000   6.0000000   6.0000000

  Atom        51          52          53          54          55          56          57          58          59          60
 IAtWgt=          12          12          12          12          12          12          12          12          12          12
 AtmWgt=  12.0000000  12.0000000  12.0000000  12.0000000  12.0000000  12.0000000  12.0000000  12.0000000  12.0000000  12.0000000
 NucSpn=           0           0           0           0           0           0           0           0           0           0
 AtZEff=  -0.0000000  -0.0000000  -0.0000000  -0.0000000  -0.0000000  -0.0000000  -0.0000000  -0.0000000  -0.0000000  -0.0000000
 NQMom=    0.0000000   0.0000000   0.0000000   0.0000000   0.0000000   0.0000000   0.0000000   0.0000000   0.0000000   0.0000000
 NMagM=    0.0000000   0.0000000   0.0000000   0.0000000   0.0000000   0.0000000   0.0000000   0.0000000   0.0000000   0.0000000
 AtZNuc=   6.0000000   6.0000000   6.0000000   6.0000000   6.0000000   6.0000000   6.0000000   6.0000000   6.0000000   6.0000000

  Atom        61          62          63          64          65          66          67          68          69          70
 IAtWgt=          12          12          12          12          12          12           1           1           1           1
 AtmWgt=  12.0000000  12.0000000  12.0000000  12.0000000  12.0000000  12.0000000   1.0078250   1.0078250   1.0078250   1.0078250
 NucSpn=           0           0           0           0           0           0           1           1           1           1
 AtZEff=  -0.0000000  -0.0000000  -0.0000000  -0.0000000  -0.0000000  -0.0000000  -0.0000000  -0.0000000  -0.0000000  -0.0000000
 NQMom=    0.0000000   0.0000000   0.0000000   0.0000000   0.0000000   0.0000000   0.0000000   0.0000000   0.0000000   0.0000000
 NMagM=    0.0000000   0.0000000   0.0000000   0.0000000   0.0000000   0.0000000   2.7928460   2.7928460   2.7928460   2.7928460
 AtZNuc=   6.0000000   6.0000000   6.0000000   6.0000000   6.0000000   6.0000000   1.0000000   1.0000000   1.0000000   1.0000000

  Atom        71          72          73          74          75          76
 IAtWgt=           1           1           1           1           1           1
 AtmWgt=   1.0078250   1.0078250   1.0078250   1.0078250   1.0078250   1.0078250
 NucSpn=           1           1           1           1           1           1
 AtZEff=  -0.0000000  -0.0000000  -0.0000000  -0.0000000  -0.0000000  -0.0000000
 NQMom=    0.0000000   0.0000000   0.0000000   0.0000000   0.0000000   0.0000000
 NMagM=    2.7928460   2.7928460   2.7928460   2.7928460   2.7928460   2.7928460
 AtZNuc=   1.0000000   1.0000000   1.0000000   1.0000000   1.0000000   1.0000000
 Leave Link  101 at Wed Jul 20 21:27:26 2022, MaxMem=  1342177280 cpu:              28.6 elap:               0.6
 (Enter /home/mkliu/g16/l103.exe)

 GradGradGradGradGradGradGradGradGradGradGradGradGradGradGradGradGradGrad
 Berny optimization.
 Initialization pass.
                           ----------------------------
                           !    Initial Parameters    !
                           ! (Angstroms and Degrees)  !
 --------------------------                            --------------------------
 ! Name  Definition              Value          Derivative Info.                !
 --------------------------------------------------------------------------------
 ! R1    R(1,2)                  1.3862         estimate D2E/DX2                !
 ! R2    R(1,41)                 1.4378         estimate D2E/DX2                !
 ! R3    R(1,65)                 1.444          estimate D2E/DX2                !
 ! R4    R(2,3)                  1.4405         estimate D2E/DX2                !
 ! R5    R(2,8)                  1.4446         estimate D2E/DX2                !
 ! R6    R(3,4)                  1.3907         estimate D2E/DX2                !
 ! R7    R(3,5)                  1.4275         estimate D2E/DX2                !
 ! R8    R(4,26)                 1.4489         estimate D2E/DX2                !
 ! R9    R(4,39)                 1.4305         estimate D2E/DX2                !
 ! R10   R(5,6)                  1.4368         estimate D2E/DX2                !
 ! R11   R(5,13)                 1.3875         estimate D2E/DX2                !
 ! R12   R(6,8)                  1.4413         estimate D2E/DX2                !
 ! R13   R(6,9)                  1.3931         estimate D2E/DX2                !
 ! R14   R(7,10)                 1.5746         estimate D2E/DX2                !
 ! R15   R(7,23)                 1.5012         estimate D2E/DX2                !
 ! R16   R(7,28)                 1.5178         estimate D2E/DX2                !
 ! R17   R(7,67)                 1.0946         estimate D2E/DX2                !
 ! R18   R(8,63)                 1.3902         estimate D2E/DX2                !
 ! R19   R(9,11)                 1.4277         estimate D2E/DX2                !
 ! R20   R(9,61)                 1.4398         estimate D2E/DX2                !
 ! R21   R(10,21)                1.5522         estimate D2E/DX2                !
 ! R22   R(10,30)                1.4895         estimate D2E/DX2                !
 ! R23   R(10,68)                1.0927         estimate D2E/DX2                !
 ! R24   R(11,12)                1.3698         estimate D2E/DX2                !
 ! R25   R(11,59)                1.5246         estimate D2E/DX2                !
 ! R26   R(12,13)                1.4285         estimate D2E/DX2                !
 ! R27   R(12,15)                1.4415         estimate D2E/DX2                !
 ! R28   R(13,25)                1.4511         estimate D2E/DX2                !
 ! R29   R(14,16)                1.49           estimate D2E/DX2                !
 ! R30   R(14,45)                1.3745         estimate D2E/DX2                !
 ! R31   R(14,55)                1.4364         estimate D2E/DX2                !
 ! R32   R(15,24)                1.4201         estimate D2E/DX2                !
 ! R33   R(15,57)                1.3732         estimate D2E/DX2                !
 ! R34   R(16,17)                1.5642         estimate D2E/DX2                !
 ! R35   R(16,58)                1.5804         estimate D2E/DX2                !
 ! R36   R(16,74)                1.0955         estimate D2E/DX2                !
 ! R37   R(17,48)                1.5            estimate D2E/DX2                !
 ! R38   R(17,56)                1.4957         estimate D2E/DX2                !
 ! R39   R(17,73)                1.0949         estimate D2E/DX2                !
 ! R40   R(18,19)                1.4688         estimate D2E/DX2                !
 ! R41   R(18,40)                1.3788         estimate D2E/DX2                !
 ! R42   R(18,47)                1.4459         estimate D2E/DX2                !
 ! R43   R(19,20)                1.384          estimate D2E/DX2                !
 ! R44   R(19,51)                1.4493         estimate D2E/DX2                !
 ! R45   R(20,45)                1.4653         estimate D2E/DX2                !
 ! R46   R(20,54)                1.4429         estimate D2E/DX2                !
 ! R47   R(21,22)                1.4958         estimate D2E/DX2                !
 ! R48   R(21,50)                1.5775         estimate D2E/DX2                !
 ! R49   R(21,69)                1.0959         estimate D2E/DX2                !
 ! R50   R(22,23)                1.3966         estimate D2E/DX2                !
 ! R51   R(22,56)                1.3746         estimate D2E/DX2                !
 ! R52   R(23,24)                1.3892         estimate D2E/DX2                !
 ! R53   R(24,25)                1.4623         estimate D2E/DX2                !
 ! R54   R(25,26)                1.3837         estimate D2E/DX2                !
 ! R55   R(26,27)                1.4727         estimate D2E/DX2                !
 ! R56   R(27,28)                1.3821         estimate D2E/DX2                !
 ! R57   R(27,38)                1.4477         estimate D2E/DX2                !
 ! R58   R(28,29)                1.4256         estimate D2E/DX2                !
 ! R59   R(29,30)                1.4257         estimate D2E/DX2                !
 ! R60   R(29,35)                1.387          estimate D2E/DX2                !
 ! R61   R(30,31)                1.3589         estimate D2E/DX2                !
 ! R62   R(31,32)                1.4256         estimate D2E/DX2                !
 ! R63   R(31,33)                1.493          estimate D2E/DX2                !
 ! R64   R(32,34)                1.3879         estimate D2E/DX2                !
 ! R65   R(32,40)                1.4239         estimate D2E/DX2                !
 ! R66   R(33,37)                1.568          estimate D2E/DX2                !
 ! R67   R(33,50)                1.5506         estimate D2E/DX2                !
 ! R68   R(33,71)                1.0928         estimate D2E/DX2                !
 ! R69   R(34,35)                1.429          estimate D2E/DX2                !
 ! R70   R(34,44)                1.4231         estimate D2E/DX2                !
 ! R71   R(35,36)                1.4223         estimate D2E/DX2                !
 ! R72   R(36,38)                1.3885         estimate D2E/DX2                !
 ! R73   R(36,43)                1.443          estimate D2E/DX2                !
 ! R74   R(37,40)                1.5111         estimate D2E/DX2                !
 ! R75   R(37,46)                1.5052         estimate D2E/DX2                !
 ! R76   R(37,72)                1.0958         estimate D2E/DX2                !
 ! R77   R(38,39)                1.4314         estimate D2E/DX2                !
 ! R78   R(39,41)                1.3935         estimate D2E/DX2                !
 ! R79   R(41,42)                1.4402         estimate D2E/DX2                !
 ! R80   R(42,43)                1.383          estimate D2E/DX2                !
 ! R81   R(42,66)                1.4404         estimate D2E/DX2                !
 ! R82   R(43,44)                1.4431         estimate D2E/DX2                !
 ! R83   R(44,47)                1.3884         estimate D2E/DX2                !
 ! R84   R(45,46)                1.4364         estimate D2E/DX2                !
 ! R85   R(46,48)                1.3427         estimate D2E/DX2                !
 ! R86   R(47,49)                1.4314         estimate D2E/DX2                !
 ! R87   R(48,50)                1.5107         estimate D2E/DX2                !
 ! R88   R(49,51)                1.4314         estimate D2E/DX2                !
 ! R89   R(49,66)                1.3929         estimate D2E/DX2                !
 ! R90   R(50,70)                1.096          estimate D2E/DX2                !
 ! R91   R(51,52)                1.3896         estimate D2E/DX2                !
 ! R92   R(52,53)                1.4261         estimate D2E/DX2                !
 ! R93   R(52,64)                1.4418         estimate D2E/DX2                !
 ! R94   R(53,54)                1.3852         estimate D2E/DX2                !
 ! R95   R(53,62)                1.4365         estimate D2E/DX2                !
 ! R96   R(54,55)                1.4318         estimate D2E/DX2                !
 ! R97   R(55,60)                1.3681         estimate D2E/DX2                !
 ! R98   R(56,57)                1.3815         estimate D2E/DX2                !
 ! R99   R(57,58)                1.4973         estimate D2E/DX2                !
 ! R100  R(58,59)                1.558          estimate D2E/DX2                !
 ! R101  R(58,75)                1.0959         estimate D2E/DX2                !
 ! R102  R(59,60)                1.5112         estimate D2E/DX2                !
 ! R103  R(59,76)                1.0968         estimate D2E/DX2                !
 ! R104  R(60,61)                1.4295         estimate D2E/DX2                !
 ! R105  R(61,62)                1.3905         estimate D2E/DX2                !
 ! R106  R(62,63)                1.4412         estimate D2E/DX2                !
 ! R107  R(63,64)                1.4438         estimate D2E/DX2                !
 ! R108  R(64,65)                1.3858         estimate D2E/DX2                !
 ! R109  R(65,66)                1.4385         estimate D2E/DX2                !
 ! A1    A(2,1,41)             119.9413         estimate D2E/DX2                !
 ! A2    A(2,1,65)             119.7262         estimate D2E/DX2                !
 ! A3    A(41,1,65)            107.8481         estimate D2E/DX2                !
 ! A4    A(1,2,3)              119.6782         estimate D2E/DX2                !
 ! A5    A(1,2,8)              120.4884         estimate D2E/DX2                !
 ! A6    A(3,2,8)              107.6543         estimate D2E/DX2                !
 ! A7    A(2,3,4)              120.5587         estimate D2E/DX2                !
 ! A8    A(2,3,5)              108.0221         estimate D2E/DX2                !
 ! A9    A(4,3,5)              119.0958         estimate D2E/DX2                !
 ! A10   A(3,4,26)             122.6311         estimate D2E/DX2                !
 ! A11   A(3,4,39)             119.0022         estimate D2E/DX2                !
 ! A12   A(26,4,39)            108.7033         estimate D2E/DX2                !
 ! A13   A(3,5,6)              108.7425         estimate D2E/DX2                !
 ! A14   A(3,5,13)             118.7496         estimate D2E/DX2                !
 ! A15   A(6,5,13)             119.5968         estimate D2E/DX2                !
 ! A16   A(5,6,8)              107.4795         estimate D2E/DX2                !
 ! A17   A(5,6,9)              119.6102         estimate D2E/DX2                !
 ! A18   A(8,6,9)              120.5542         estimate D2E/DX2                !
 ! A19   A(10,7,23)            103.5586         estimate D2E/DX2                !
 ! A20   A(10,7,28)            106.0712         estimate D2E/DX2                !
 ! A21   A(10,7,67)            112.6314         estimate D2E/DX2                !
 ! A22   A(23,7,28)            111.3611         estimate D2E/DX2                !
 ! A23   A(23,7,67)            111.484          estimate D2E/DX2                !
 ! A24   A(28,7,67)            111.3731         estimate D2E/DX2                !
 ! A25   A(2,8,6)              108.0074         estimate D2E/DX2                !
 ! A26   A(2,8,63)             119.6381         estimate D2E/DX2                !
 ! A27   A(6,8,63)             119.6686         estimate D2E/DX2                !
 ! A28   A(6,9,11)             120.8539         estimate D2E/DX2                !
 ! A29   A(6,9,61)             119.6951         estimate D2E/DX2                !
 ! A30   A(11,9,61)            107.5243         estimate D2E/DX2                !
 ! A31   A(7,10,21)            108.4999         estimate D2E/DX2                !
 ! A32   A(7,10,30)            102.5949         estimate D2E/DX2                !
 ! A33   A(7,10,68)            111.3942         estimate D2E/DX2                !
 ! A34   A(21,10,30)           112.1122         estimate D2E/DX2                !
 ! A35   A(21,10,68)           110.7133         estimate D2E/DX2                !
 ! A36   A(30,10,68)           111.2472         estimate D2E/DX2                !
 ! A37   A(9,11,12)            117.9853         estimate D2E/DX2                !
 ! A38   A(9,11,59)            110.1494         estimate D2E/DX2                !
 ! A39   A(12,11,59)           124.2775         estimate D2E/DX2                !
 ! A40   A(11,12,13)           122.6423         estimate D2E/DX2                !
 ! A41   A(11,12,15)           119.3489         estimate D2E/DX2                !
 ! A42   A(13,12,15)           106.6641         estimate D2E/DX2                !
 ! A43   A(5,13,12)            118.7193         estimate D2E/DX2                !
 ! A44   A(5,13,25)            122.2308         estimate D2E/DX2                !
 ! A45   A(12,13,25)           109.2635         estimate D2E/DX2                !
 ! A46   A(16,14,45)           127.5779         estimate D2E/DX2                !
 ! A47   A(16,14,55)           121.6322         estimate D2E/DX2                !
 ! A48   A(45,14,55)           108.9397         estimate D2E/DX2                !
 ! A49   A(12,15,24)           110.0447         estimate D2E/DX2                !
 ! A50   A(12,15,57)           119.8808         estimate D2E/DX2                !
 ! A51   A(24,15,57)           121.9106         estimate D2E/DX2                !
 ! A52   A(14,16,17)           110.9021         estimate D2E/DX2                !
 ! A53   A(14,16,58)           111.8528         estimate D2E/DX2                !
 ! A54   A(14,16,74)           108.8367         estimate D2E/DX2                !
 ! A55   A(17,16,58)           105.7812         estimate D2E/DX2                !
 ! A56   A(17,16,74)           110.3541         estimate D2E/DX2                !
 ! A57   A(58,16,74)           109.0796         estimate D2E/DX2                !
 ! A58   A(16,17,48)           116.3137         estimate D2E/DX2                !
 ! A59   A(16,17,56)           103.0864         estimate D2E/DX2                !
 ! A60   A(16,17,73)           110.8987         estimate D2E/DX2                !
 ! A61   A(48,17,56)           102.1155         estimate D2E/DX2                !
 ! A62   A(48,17,73)           110.6836         estimate D2E/DX2                !
 ! A63   A(56,17,73)           113.2895         estimate D2E/DX2                !
 ! A64   A(19,18,40)           128.5652         estimate D2E/DX2                !
 ! A65   A(19,18,47)           106.5367         estimate D2E/DX2                !
 ! A66   A(40,18,47)           119.1245         estimate D2E/DX2                !
 ! A67   A(18,19,20)           127.0087         estimate D2E/DX2                !
 ! A68   A(18,19,51)           107.2778         estimate D2E/DX2                !
 ! A69   A(20,19,51)           118.1846         estimate D2E/DX2                !
 ! A70   A(19,20,45)           129.1592         estimate D2E/DX2                !
 ! A71   A(19,20,54)           118.8086         estimate D2E/DX2                !
 ! A72   A(45,20,54)           105.8597         estimate D2E/DX2                !
 ! A73   A(10,21,22)           102.0317         estimate D2E/DX2                !
 ! A74   A(10,21,50)           120.2943         estimate D2E/DX2                !
 ! A75   A(10,21,69)           108.1729         estimate D2E/DX2                !
 ! A76   A(22,21,50)           110.6685         estimate D2E/DX2                !
 ! A77   A(22,21,69)           108.7224         estimate D2E/DX2                !
 ! A78   A(50,21,69)           106.5416         estimate D2E/DX2                !
 ! A79   A(21,22,23)           114.538          estimate D2E/DX2                !
 ! A80   A(21,22,56)           122.7444         estimate D2E/DX2                !
 ! A81   A(23,22,56)           121.4818         estimate D2E/DX2                !
 ! A82   A(7,23,22)            110.2441         estimate D2E/DX2                !
 ! A83   A(7,23,24)            129.4264         estimate D2E/DX2                !
 ! A84   A(22,23,24)           119.1256         estimate D2E/DX2                !
 ! A85   A(15,24,23)           117.7105         estimate D2E/DX2                !
 ! A86   A(15,24,25)           107.2453         estimate D2E/DX2                !
 ! A87   A(23,24,25)           130.3364         estimate D2E/DX2                !
 ! A88   A(13,25,24)           106.7462         estimate D2E/DX2                !
 ! A89   A(13,25,26)           119.1783         estimate D2E/DX2                !
 ! A90   A(24,25,26)           126.2895         estimate D2E/DX2                !
 ! A91   A(4,26,25)            117.9772         estimate D2E/DX2                !
 ! A92   A(4,26,27)            107.5455         estimate D2E/DX2                !
 ! A93   A(25,26,27)           126.6331         estimate D2E/DX2                !
 ! A94   A(26,27,28)           129.5754         estimate D2E/DX2                !
 ! A95   A(26,27,38)           106.1031         estimate D2E/DX2                !
 ! A96   A(28,27,38)           118.8236         estimate D2E/DX2                !
 ! A97   A(7,28,27)            130.6816         estimate D2E/DX2                !
 ! A98   A(7,28,29)            107.6234         estimate D2E/DX2                !
 ! A99   A(27,28,29)           118.3746         estimate D2E/DX2                !
 ! A100  A(28,29,30)           109.6596         estimate D2E/DX2                !
 ! A101  A(28,29,35)           122.1747         estimate D2E/DX2                !
 ! A102  A(30,29,35)           120.2724         estimate D2E/DX2                !
 ! A103  A(10,30,29)           110.201          estimate D2E/DX2                !
 ! A104  A(10,30,31)           124.9621         estimate D2E/DX2                !
 ! A105  A(29,30,31)           119.5467         estimate D2E/DX2                !
 ! A106  A(30,31,32)           119.1978         estimate D2E/DX2                !
 ! A107  A(30,31,33)           125.7879         estimate D2E/DX2                !
 ! A108  A(32,31,33)           109.9172         estimate D2E/DX2                !
 ! A109  A(31,32,34)           120.4905         estimate D2E/DX2                !
 ! A110  A(31,32,40)           109.2298         estimate D2E/DX2                !
 ! A111  A(34,32,40)           121.899          estimate D2E/DX2                !
 ! A112  A(31,33,37)           102.45           estimate D2E/DX2                !
 ! A113  A(31,33,50)           113.3925         estimate D2E/DX2                !
 ! A114  A(31,33,71)           110.8184         estimate D2E/DX2                !
 ! A115  A(37,33,50)           108.0581         estimate D2E/DX2                !
 ! A116  A(37,33,71)           111.4682         estimate D2E/DX2                !
 ! A117  A(50,33,71)           110.396          estimate D2E/DX2                !
 ! A118  A(32,34,35)           118.5585         estimate D2E/DX2                !
 ! A119  A(32,34,44)           120.0119         estimate D2E/DX2                !
 ! A120  A(35,34,44)           108.0349         estimate D2E/DX2                !
 ! A121  A(29,35,34)           118.6469         estimate D2E/DX2                !
 ! A122  A(29,35,36)           119.9094         estimate D2E/DX2                !
 ! A123  A(34,35,36)           108.2062         estimate D2E/DX2                !
 ! A124  A(35,36,38)           117.8519         estimate D2E/DX2                !
 ! A125  A(35,36,43)           108.3451         estimate D2E/DX2                !
 ! A126  A(38,36,43)           119.6496         estimate D2E/DX2                !
 ! A127  A(33,37,40)           106.0658         estimate D2E/DX2                !
 ! A128  A(33,37,46)           102.6898         estimate D2E/DX2                !
 ! A129  A(33,37,72)           112.731          estimate D2E/DX2                !
 ! A130  A(40,37,46)           114.7825         estimate D2E/DX2                !
 ! A131  A(40,37,72)           110.5242         estimate D2E/DX2                !
 ! A132  A(46,37,72)           109.8327         estimate D2E/DX2                !
 ! A133  A(27,38,36)           122.0204         estimate D2E/DX2                !
 ! A134  A(27,38,39)           109.7099         estimate D2E/DX2                !
 ! A135  A(36,38,39)           119.2855         estimate D2E/DX2                !
 ! A136  A(4,39,38)            107.7728         estimate D2E/DX2                !
 ! A137  A(4,39,41)            120.6304         estimate D2E/DX2                !
 ! A138  A(38,39,41)           120.8228         estimate D2E/DX2                !
 ! A139  A(18,40,32)           118.486          estimate D2E/DX2                !
 ! A140  A(18,40,37)           130.3433         estimate D2E/DX2                !
 ! A141  A(32,40,37)           107.9806         estimate D2E/DX2                !
 ! A142  A(1,41,39)            119.6859         estimate D2E/DX2                !
 ! A143  A(1,41,42)            108.1673         estimate D2E/DX2                !
 ! A144  A(39,41,42)           119.0532         estimate D2E/DX2                !
 ! A145  A(41,42,43)           120.059          estimate D2E/DX2                !
 ! A146  A(41,42,66)           107.6762         estimate D2E/DX2                !
 ! A147  A(43,42,66)           120.1283         estimate D2E/DX2                !
 ! A148  A(36,43,42)           120.0489         estimate D2E/DX2                !
 ! A149  A(36,43,44)           106.5993         estimate D2E/DX2                !
 ! A150  A(42,43,44)           120.091          estimate D2E/DX2                !
 ! A151  A(34,44,43)           108.4056         estimate D2E/DX2                !
 ! A152  A(34,44,47)           117.8519         estimate D2E/DX2                !
 ! A153  A(43,44,47)           119.4574         estimate D2E/DX2                !
 ! A154  A(14,45,20)           109.2965         estimate D2E/DX2                !
 ! A155  A(14,45,46)           118.8524         estimate D2E/DX2                !
 ! A156  A(20,45,46)           127.8733         estimate D2E/DX2                !
 ! A157  A(37,46,45)           127.5136         estimate D2E/DX2                !
 ! A158  A(37,46,48)           111.9535         estimate D2E/DX2                !
 ! A159  A(45,46,48)           119.9247         estimate D2E/DX2                !
 ! A160  A(18,47,44)           121.7461         estimate D2E/DX2                !
 ! A161  A(18,47,49)           109.4456         estimate D2E/DX2                !
 ! A162  A(44,47,49)           119.49           estimate D2E/DX2                !
 ! A163  A(17,48,46)           125.1127         estimate D2E/DX2                !
 ! A164  A(17,48,50)           120.1492         estimate D2E/DX2                !
 ! A165  A(46,48,50)           113.7933         estimate D2E/DX2                !
 ! A166  A(47,49,51)           107.7581         estimate D2E/DX2                !
 ! A167  A(47,49,66)           120.7719         estimate D2E/DX2                !
 ! A168  A(51,49,66)           120.5468         estimate D2E/DX2                !
 ! A169  A(21,50,33)           117.8265         estimate D2E/DX2                !
 ! A170  A(21,50,48)           111.8951         estimate D2E/DX2                !
 ! A171  A(21,50,70)           106.509          estimate D2E/DX2                !
 ! A172  A(33,50,48)           102.2947         estimate D2E/DX2                !
 ! A173  A(33,50,70)           108.6599         estimate D2E/DX2                !
 ! A174  A(48,50,70)           109.4769         estimate D2E/DX2                !
 ! A175  A(19,51,49)           108.7337         estimate D2E/DX2                !
 ! A176  A(19,51,52)           122.521          estimate D2E/DX2                !
 ! A177  A(49,51,52)           119.0077         estimate D2E/DX2                !
 ! A178  A(51,52,53)           118.864          estimate D2E/DX2                !
 ! A179  A(51,52,64)           120.6084         estimate D2E/DX2                !
 ! A180  A(53,52,64)           108.1471         estimate D2E/DX2                !
 ! A181  A(52,53,54)           118.8096         estimate D2E/DX2                !
 ! A182  A(52,53,62)           108.6059         estimate D2E/DX2                !
 ! A183  A(54,53,62)           119.6211         estimate D2E/DX2                !
 ! A184  A(20,54,53)           122.5867         estimate D2E/DX2                !
 ! A185  A(20,54,55)           107.9933         estimate D2E/DX2                !
 ! A186  A(53,54,55)           119.8718         estimate D2E/DX2                !
 ! A187  A(14,55,54)           107.6816         estimate D2E/DX2                !
 ! A188  A(14,55,60)           122.1928         estimate D2E/DX2                !
 ! A189  A(54,55,60)           120.7778         estimate D2E/DX2                !
 ! A190  A(17,56,22)           124.0307         estimate D2E/DX2                !
 ! A191  A(17,56,57)           111.7462         estimate D2E/DX2                !
 ! A192  A(22,56,57)           120.2385         estimate D2E/DX2                !
 ! A193  A(15,57,56)           118.7041         estimate D2E/DX2                !
 ! A194  A(15,57,58)           126.4979         estimate D2E/DX2                !
 ! A195  A(56,57,58)           112.281          estimate D2E/DX2                !
 ! A196  A(16,58,57)           101.5597         estimate D2E/DX2                !
 ! A197  A(16,58,59)           118.788          estimate D2E/DX2                !
 ! A198  A(16,58,75)           107.3896         estimate D2E/DX2                !
 ! A199  A(57,58,59)           112.2771         estimate D2E/DX2                !
 ! A200  A(57,58,75)           108.9755         estimate D2E/DX2                !
 ! A201  A(59,58,75)           107.4471         estimate D2E/DX2                !
 ! A202  A(11,59,58)           115.8398         estimate D2E/DX2                !
 ! A203  A(11,59,60)            98.7283         estimate D2E/DX2                !
 ! A204  A(11,59,76)           108.9307         estimate D2E/DX2                !
 ! A205  A(58,59,60)           115.6886         estimate D2E/DX2                !
 ! A206  A(58,59,76)           108.1391         estimate D2E/DX2                !
 ! A207  A(60,59,76)           109.0659         estimate D2E/DX2                !
 ! A208  A(55,60,59)           122.5692         estimate D2E/DX2                !
 ! A209  A(55,60,61)           119.0496         estimate D2E/DX2                !
 ! A210  A(59,60,61)           110.3954         estimate D2E/DX2                !
 ! A211  A(9,61,60)            107.6766         estimate D2E/DX2                !
 ! A212  A(9,61,62)            119.552          estimate D2E/DX2                !
 ! A213  A(60,61,62)           120.9584         estimate D2E/DX2                !
 ! A214  A(53,62,61)           118.9802         estimate D2E/DX2                !
 ! A215  A(53,62,63)           107.5937         estimate D2E/DX2                !
 ! A216  A(61,62,63)           120.7543         estimate D2E/DX2                !
 ! A217  A(8,63,62)            119.6112         estimate D2E/DX2                !
 ! A218  A(8,63,64)            119.682          estimate D2E/DX2                !
 ! A219  A(62,63,64)           107.9696         estimate D2E/DX2                !
 ! A220  A(52,64,63)           107.5579         estimate D2E/DX2                !
 ! A221  A(52,64,65)           119.5602         estimate D2E/DX2                !
 ! A222  A(63,64,65)           120.4845         estimate D2E/DX2                !
 ! A223  A(1,65,64)            119.772          estimate D2E/DX2                !
 ! A224  A(1,65,66)            107.8527         estimate D2E/DX2                !
 ! A225  A(64,65,66)           119.9818         estimate D2E/DX2                !
 ! A226  A(42,66,49)           118.9855         estimate D2E/DX2                !
 ! A227  A(42,66,65)           108.1291         estimate D2E/DX2                !
 ! A228  A(49,66,65)           119.7149         estimate D2E/DX2                !
 ! D1    D(41,1,2,3)            -3.3793         estimate D2E/DX2                !
 ! D2    D(41,1,2,8)          -141.1623         estimate D2E/DX2                !
 ! D3    D(65,1,2,3)           134.0282         estimate D2E/DX2                !
 ! D4    D(65,1,2,8)            -3.7547         estimate D2E/DX2                !
 ! D5    D(2,1,41,39)            4.5774         estimate D2E/DX2                !
 ! D6    D(2,1,41,42)          145.417          estimate D2E/DX2                !
 ! D7    D(65,1,41,39)        -137.2936         estimate D2E/DX2                !
 ! D8    D(65,1,41,42)           3.5459         estimate D2E/DX2                !
 ! D9    D(2,1,65,64)            0.0654         estimate D2E/DX2                !
 ! D10   D(2,1,65,66)         -142.0349         estimate D2E/DX2                !
 ! D11   D(41,1,65,64)         142.033          estimate D2E/DX2                !
 ! D12   D(41,1,65,66)          -0.0672         estimate D2E/DX2                !
 ! D13   D(1,2,3,4)             -2.7482         estimate D2E/DX2                !
 ! D14   D(1,2,3,5)           -144.5551         estimate D2E/DX2                !
 ! D15   D(8,2,3,4)            139.832          estimate D2E/DX2                !
 ! D16   D(8,2,3,5)             -1.975          estimate D2E/DX2                !
 ! D17   D(1,2,8,6)            145.2823         estimate D2E/DX2                !
 ! D18   D(1,2,8,63)             3.6752         estimate D2E/DX2                !
 ! D19   D(3,2,8,6)              3.0636         estimate D2E/DX2                !
 ! D20   D(3,2,8,63)          -138.5435         estimate D2E/DX2                !
 ! D21   D(2,3,4,26)          -134.6722         estimate D2E/DX2                !
 ! D22   D(2,3,4,39)             7.5426         estimate D2E/DX2                !
 ! D23   D(5,3,4,26)             3.0373         estimate D2E/DX2                !
 ! D24   D(5,3,4,39)           145.2521         estimate D2E/DX2                !
 ! D25   D(2,3,5,6)              0.1332         estimate D2E/DX2                !
 ! D26   D(2,3,5,13)           141.4881         estimate D2E/DX2                !
 ! D27   D(4,3,5,6)           -142.3259         estimate D2E/DX2                !
 ! D28   D(4,3,5,13)            -0.9711         estimate D2E/DX2                !
 ! D29   D(3,4,26,25)           -1.5806         estimate D2E/DX2                !
 ! D30   D(3,4,26,27)          149.6503         estimate D2E/DX2                !
 ! D31   D(39,4,26,25)        -147.1264         estimate D2E/DX2                !
 ! D32   D(39,4,26,27)           4.1045         estimate D2E/DX2                !
 ! D33   D(3,4,39,38)         -150.9284         estimate D2E/DX2                !
 ! D34   D(3,4,39,41)           -6.3302         estimate D2E/DX2                !
 ! D35   D(26,4,39,38)          -3.9368         estimate D2E/DX2                !
 ! D36   D(26,4,39,41)         140.6614         estimate D2E/DX2                !
 ! D37   D(3,5,6,8)              1.763          estimate D2E/DX2                !
 ! D38   D(3,5,6,9)            144.1344         estimate D2E/DX2                !
 ! D39   D(13,5,6,8)          -139.2111         estimate D2E/DX2                !
 ! D40   D(13,5,6,9)             3.1603         estimate D2E/DX2                !
 ! D41   D(3,5,13,12)         -144.6654         estimate D2E/DX2                !
 ! D42   D(3,5,13,25)           -2.4635         estimate D2E/DX2                !
 ! D43   D(6,5,13,12)           -7.5184         estimate D2E/DX2                !
 ! D44   D(6,5,13,25)          134.6835         estimate D2E/DX2                !
 ! D45   D(5,6,8,2)             -2.9749         estimate D2E/DX2                !
 ! D46   D(5,6,8,63)           138.6184         estimate D2E/DX2                !
 ! D47   D(9,6,8,2)           -144.9215         estimate D2E/DX2                !
 ! D48   D(9,6,8,63)            -3.3281         estimate D2E/DX2                !
 ! D49   D(5,6,9,11)             4.0456         estimate D2E/DX2                !
 ! D50   D(5,6,9,61)          -134.0668         estimate D2E/DX2                !
 ! D51   D(8,6,9,11)           141.4945         estimate D2E/DX2                !
 ! D52   D(8,6,9,61)             3.3821         estimate D2E/DX2                !
 ! D53   D(23,7,10,21)         -10.4041         estimate D2E/DX2                !
 ! D54   D(23,7,10,30)         108.378          estimate D2E/DX2                !
 ! D55   D(23,7,10,68)        -132.5214         estimate D2E/DX2                !
 ! D56   D(28,7,10,21)        -127.7526         estimate D2E/DX2                !
 ! D57   D(28,7,10,30)          -8.9705         estimate D2E/DX2                !
 ! D58   D(28,7,10,68)         110.1301         estimate D2E/DX2                !
 ! D59   D(67,7,10,21)         110.1739         estimate D2E/DX2                !
 ! D60   D(67,7,10,30)        -131.044          estimate D2E/DX2                !
 ! D61   D(67,7,10,68)         -11.9434         estimate D2E/DX2                !
 ! D62   D(10,7,23,22)           6.5699         estimate D2E/DX2                !
 ! D63   D(10,7,23,24)        -160.5461         estimate D2E/DX2                !
 ! D64   D(28,7,23,22)         120.154          estimate D2E/DX2                !
 ! D65   D(28,7,23,24)         -46.962          estimate D2E/DX2                !
 ! D66   D(67,7,23,22)        -114.7829         estimate D2E/DX2                !
 ! D67   D(67,7,23,24)          78.1011         estimate D2E/DX2                !
 ! D68   D(10,7,28,27)         155.8932         estimate D2E/DX2                !
 ! D69   D(10,7,28,29)          -2.6344         estimate D2E/DX2                !
 ! D70   D(23,7,28,27)          43.8906         estimate D2E/DX2                !
 ! D71   D(23,7,28,29)        -114.6369         estimate D2E/DX2                !
 ! D72   D(67,7,28,27)         -81.2344         estimate D2E/DX2                !
 ! D73   D(67,7,28,29)         120.2381         estimate D2E/DX2                !
 ! D74   D(2,8,63,62)          137.1737         estimate D2E/DX2                !
 ! D75   D(2,8,63,64)            0.0867         estimate D2E/DX2                !
 ! D76   D(6,8,63,62)           -0.0029         estimate D2E/DX2                !
 ! D77   D(6,8,63,64)         -137.0899         estimate D2E/DX2                !
 ! D78   D(6,9,11,12)           -6.5884         estimate D2E/DX2                !
 ! D79   D(6,9,11,59)         -157.5546         estimate D2E/DX2                !
 ! D80   D(61,9,11,12)         135.9509         estimate D2E/DX2                !
 ! D81   D(61,9,11,59)         -15.0152         estimate D2E/DX2                !
 ! D82   D(6,9,61,60)          143.1551         estimate D2E/DX2                !
 ! D83   D(6,9,61,62)           -0.1028         estimate D2E/DX2                !
 ! D84   D(11,9,61,60)           0.1022         estimate D2E/DX2                !
 ! D85   D(11,9,61,62)        -143.1557         estimate D2E/DX2                !
 ! D86   D(7,10,21,22)          10.08           estimate D2E/DX2                !
 ! D87   D(7,10,21,50)         132.9326         estimate D2E/DX2                !
 ! D88   D(7,10,21,69)        -104.4637         estimate D2E/DX2                !
 ! D89   D(30,10,21,22)       -102.5105         estimate D2E/DX2                !
 ! D90   D(30,10,21,50)         20.3421         estimate D2E/DX2                !
 ! D91   D(30,10,21,69)        142.9459         estimate D2E/DX2                !
 ! D92   D(68,10,21,22)        132.6114         estimate D2E/DX2                !
 ! D93   D(68,10,21,50)       -104.5359         estimate D2E/DX2                !
 ! D94   D(68,10,21,69)         18.0678         estimate D2E/DX2                !
 ! D95   D(7,10,30,29)          17.9496         estimate D2E/DX2                !
 ! D96   D(7,10,30,31)        -136.0045         estimate D2E/DX2                !
 ! D97   D(21,10,30,29)        134.1634         estimate D2E/DX2                !
 ! D98   D(21,10,30,31)        -19.7907         estimate D2E/DX2                !
 ! D99   D(68,10,30,29)       -101.2539         estimate D2E/DX2                !
 ! D100  D(68,10,30,31)        104.7921         estimate D2E/DX2                !
 ! D101  D(9,11,12,13)           2.0659         estimate D2E/DX2                !
 ! D102  D(9,11,12,15)        -136.6009         estimate D2E/DX2                !
 ! D103  D(59,11,12,13)        148.6036         estimate D2E/DX2                !
 ! D104  D(59,11,12,15)          9.9368         estimate D2E/DX2                !
 ! D105  D(9,11,59,58)         146.4711         estimate D2E/DX2                !
 ! D106  D(9,11,59,60)          22.3027         estimate D2E/DX2                !
 ! D107  D(9,11,59,76)         -91.4028         estimate D2E/DX2                !
 ! D108  D(12,11,59,58)         -2.2867         estimate D2E/DX2                !
 ! D109  D(12,11,59,60)       -126.4552         estimate D2E/DX2                !
 ! D110  D(12,11,59,76)        119.8393         estimate D2E/DX2                !
 ! D111  D(11,12,13,5)           4.9887         estimate D2E/DX2                !
 ! D112  D(11,12,13,25)       -141.6999         estimate D2E/DX2                !
 ! D113  D(15,12,13,5)         148.0538         estimate D2E/DX2                !
 ! D114  D(15,12,13,25)          1.3652         estimate D2E/DX2                !
 ! D115  D(11,12,15,24)        144.2702         estimate D2E/DX2                !
 ! D116  D(11,12,15,57)         -4.888          estimate D2E/DX2                !
 ! D117  D(13,12,15,24)         -0.2439         estimate D2E/DX2                !
 ! D118  D(13,12,15,57)       -149.4021         estimate D2E/DX2                !
 ! D119  D(5,13,25,24)        -147.2358         estimate D2E/DX2                !
 ! D120  D(5,13,25,26)           3.9183         estimate D2E/DX2                !
 ! D121  D(12,13,25,24)         -1.9418         estimate D2E/DX2                !
 ! D122  D(12,13,25,26)        149.2123         estimate D2E/DX2                !
 ! D123  D(45,14,16,17)         13.3252         estimate D2E/DX2                !
 ! D124  D(45,14,16,58)        131.1534         estimate D2E/DX2                !
 ! D125  D(45,14,16,74)       -108.254          estimate D2E/DX2                !
 ! D126  D(55,14,16,17)       -149.4198         estimate D2E/DX2                !
 ! D127  D(55,14,16,58)        -31.5917         estimate D2E/DX2                !
 ! D128  D(55,14,16,74)         89.0009         estimate D2E/DX2                !
 ! D129  D(16,14,45,20)       -166.6081         estimate D2E/DX2                !
 ! D130  D(16,14,45,46)         -7.291          estimate D2E/DX2                !
 ! D131  D(55,14,45,20)         -2.0945         estimate D2E/DX2                !
 ! D132  D(55,14,45,46)        157.2225         estimate D2E/DX2                !
 ! D133  D(16,14,55,54)        169.9756         estimate D2E/DX2                !
 ! D134  D(16,14,55,60)         23.3235         estimate D2E/DX2                !
 ! D135  D(45,14,55,54)          4.3666         estimate D2E/DX2                !
 ! D136  D(45,14,55,60)       -142.2855         estimate D2E/DX2                !
 ! D137  D(12,15,24,23)       -159.1675         estimate D2E/DX2                !
 ! D138  D(12,15,24,25)         -0.9513         estimate D2E/DX2                !
 ! D139  D(57,15,24,23)        -10.7453         estimate D2E/DX2                !
 ! D140  D(57,15,24,25)        147.4709         estimate D2E/DX2                !
 ! D141  D(12,15,57,56)        152.0302         estimate D2E/DX2                !
 ! D142  D(12,15,57,58)         -8.5117         estimate D2E/DX2                !
 ! D143  D(24,15,57,56)          6.5964         estimate D2E/DX2                !
 ! D144  D(24,15,57,58)       -153.9456         estimate D2E/DX2                !
 ! D145  D(14,16,17,48)         -9.5805         estimate D2E/DX2                !
 ! D146  D(14,16,17,56)        101.2341         estimate D2E/DX2                !
 ! D147  D(14,16,17,73)       -137.2144         estimate D2E/DX2                !
 ! D148  D(58,16,17,48)       -131.0459         estimate D2E/DX2                !
 ! D149  D(58,16,17,56)        -20.2314         estimate D2E/DX2                !
 ! D150  D(58,16,17,73)        101.3201         estimate D2E/DX2                !
 ! D151  D(74,16,17,48)        111.1044         estimate D2E/DX2                !
 ! D152  D(74,16,17,56)       -138.0811         estimate D2E/DX2                !
 ! D153  D(74,16,17,73)        -16.5296         estimate D2E/DX2                !
 ! D154  D(14,16,58,57)        -97.6099         estimate D2E/DX2                !
 ! D155  D(14,16,58,59)         26.0244         estimate D2E/DX2                !
 ! D156  D(14,16,58,75)        148.069          estimate D2E/DX2                !
 ! D157  D(17,16,58,57)         23.2399         estimate D2E/DX2                !
 ! D158  D(17,16,58,59)        146.8743         estimate D2E/DX2                !
 ! D159  D(17,16,58,75)        -91.0811         estimate D2E/DX2                !
 ! D160  D(74,16,58,57)        141.9389         estimate D2E/DX2                !
 ! D161  D(74,16,58,59)        -94.4267         estimate D2E/DX2                !
 ! D162  D(74,16,58,75)         27.6179         estimate D2E/DX2                !
 ! D163  D(16,17,48,46)          1.1799         estimate D2E/DX2                !
 ! D164  D(16,17,48,50)        169.3471         estimate D2E/DX2                !
 ! D165  D(56,17,48,46)       -110.1973         estimate D2E/DX2                !
 ! D166  D(56,17,48,50)         57.97           estimate D2E/DX2                !
 ! D167  D(73,17,48,46)        128.9196         estimate D2E/DX2                !
 ! D168  D(73,17,48,50)        -62.9132         estimate D2E/DX2                !
 ! D169  D(16,17,56,22)       -148.064          estimate D2E/DX2                !
 ! D170  D(16,17,56,57)          9.3931         estimate D2E/DX2                !
 ! D171  D(48,17,56,22)        -27.0417         estimate D2E/DX2                !
 ! D172  D(48,17,56,57)        130.4154         estimate D2E/DX2                !
 ! D173  D(73,17,56,22)         92.0168         estimate D2E/DX2                !
 ! D174  D(73,17,56,57)       -110.5261         estimate D2E/DX2                !
 ! D175  D(40,18,19,20)          7.3947         estimate D2E/DX2                !
 ! D176  D(40,18,19,51)        156.031          estimate D2E/DX2                !
 ! D177  D(47,18,19,20)       -144.9868         estimate D2E/DX2                !
 ! D178  D(47,18,19,51)          3.6494         estimate D2E/DX2                !
 ! D179  D(19,18,40,32)       -141.0315         estimate D2E/DX2                !
 ! D180  D(19,18,40,37)         16.1444         estimate D2E/DX2                !
 ! D181  D(47,18,40,32)          8.3894         estimate D2E/DX2                !
 ! D182  D(47,18,40,37)        165.5653         estimate D2E/DX2                !
 ! D183  D(19,18,47,44)        145.4634         estimate D2E/DX2                !
 ! D184  D(19,18,47,49)         -0.8761         estimate D2E/DX2                !
 ! D185  D(40,18,47,44)        -10.0213         estimate D2E/DX2                !
 ! D186  D(40,18,47,49)       -156.3608         estimate D2E/DX2                !
 ! D187  D(18,19,20,45)          0.4509         estimate D2E/DX2                !
 ! D188  D(18,19,20,54)        148.6736         estimate D2E/DX2                !
 ! D189  D(51,19,20,45)       -145.2274         estimate D2E/DX2                !
 ! D190  D(51,19,20,54)          2.9953         estimate D2E/DX2                !
 ! D191  D(18,19,51,49)         -5.1278         estimate D2E/DX2                !
 ! D192  D(18,19,51,52)       -150.5654         estimate D2E/DX2                !
 ! D193  D(20,19,51,49)        146.7388         estimate D2E/DX2                !
 ! D194  D(20,19,51,52)          1.3012         estimate D2E/DX2                !
 ! D195  D(19,20,45,14)        150.3857         estimate D2E/DX2                !
 ! D196  D(19,20,45,46)         -6.5417         estimate D2E/DX2                !
 ! D197  D(54,20,45,14)         -0.9483         estimate D2E/DX2                !
 ! D198  D(54,20,45,46)       -157.8757         estimate D2E/DX2                !
 ! D199  D(19,20,54,53)         -5.2595         estimate D2E/DX2                !
 ! D200  D(19,20,54,55)       -151.2677         estimate D2E/DX2                !
 ! D201  D(45,20,54,53)        149.6217         estimate D2E/DX2                !
 ! D202  D(45,20,54,55)          3.6134         estimate D2E/DX2                !
 ! D203  D(10,21,22,23)         -6.3269         estimate D2E/DX2                !
 ! D204  D(10,21,22,56)        161.1265         estimate D2E/DX2                !
 ! D205  D(50,21,22,23)       -135.4992         estimate D2E/DX2                !
 ! D206  D(50,21,22,56)         31.9542         estimate D2E/DX2                !
 ! D207  D(69,21,22,23)        107.8116         estimate D2E/DX2                !
 ! D208  D(69,21,22,56)        -84.735          estimate D2E/DX2                !
 ! D209  D(10,21,50,33)         -3.4314         estimate D2E/DX2                !
 ! D210  D(10,21,50,48)       -121.5719         estimate D2E/DX2                !
 ! D211  D(10,21,50,70)        118.8299         estimate D2E/DX2                !
 ! D212  D(22,21,50,33)        115.1507         estimate D2E/DX2                !
 ! D213  D(22,21,50,48)         -2.9898         estimate D2E/DX2                !
 ! D214  D(22,21,50,70)       -122.588          estimate D2E/DX2                !
 ! D215  D(69,21,50,33)       -126.8204         estimate D2E/DX2                !
 ! D216  D(69,21,50,48)        115.0391         estimate D2E/DX2                !
 ! D217  D(69,21,50,70)         -4.5591         estimate D2E/DX2                !
 ! D218  D(21,22,23,7)          -0.1971         estimate D2E/DX2                !
 ! D219  D(21,22,23,24)        168.4315         estimate D2E/DX2                !
 ! D220  D(56,22,23,7)        -167.8257         estimate D2E/DX2                !
 ! D221  D(56,22,23,24)          0.8029         estimate D2E/DX2                !
 ! D222  D(21,22,56,17)        -16.103          estimate D2E/DX2                !
 ! D223  D(21,22,56,57)       -171.7616         estimate D2E/DX2                !
 ! D224  D(23,22,56,17)        150.4985         estimate D2E/DX2                !
 ! D225  D(23,22,56,57)         -5.16           estimate D2E/DX2                !
 ! D226  D(7,23,24,15)         172.9836         estimate D2E/DX2                !
 ! D227  D(7,23,24,25)          20.6915         estimate D2E/DX2                !
 ! D228  D(22,23,24,15)          6.8398         estimate D2E/DX2                !
 ! D229  D(22,23,24,25)       -145.4523         estimate D2E/DX2                !
 ! D230  D(15,24,25,13)          1.7521         estimate D2E/DX2                !
 ! D231  D(15,24,25,26)       -146.7411         estimate D2E/DX2                !
 ! D232  D(23,24,25,13)        156.2202         estimate D2E/DX2                !
 ! D233  D(23,24,25,26)          7.727          estimate D2E/DX2                !
 ! D234  D(13,25,26,4)          -1.8289         estimate D2E/DX2                !
 ! D235  D(13,25,26,27)       -146.9499         estimate D2E/DX2                !
 ! D236  D(24,25,26,4)         143.1997         estimate D2E/DX2                !
 ! D237  D(24,25,26,27)         -1.9213         estimate D2E/DX2                !
 ! D238  D(4,26,27,28)        -155.4856         estimate D2E/DX2                !
 ! D239  D(4,26,27,38)          -2.6567         estimate D2E/DX2                !
 ! D240  D(25,26,27,28)         -7.4679         estimate D2E/DX2                !
 ! D241  D(25,26,27,38)        145.3609         estimate D2E/DX2                !
 ! D242  D(26,27,28,7)         -15.4841         estimate D2E/DX2                !
 ! D243  D(26,27,28,29)        141.1556         estimate D2E/DX2                !
 ! D244  D(38,27,28,7)        -165.4329         estimate D2E/DX2                !
 ! D245  D(38,27,28,29)         -8.7931         estimate D2E/DX2                !
 ! D246  D(26,27,38,36)       -146.5432         estimate D2E/DX2                !
 ! D247  D(26,27,38,39)          0.2687         estimate D2E/DX2                !
 ! D248  D(28,27,38,36)          9.7689         estimate D2E/DX2                !
 ! D249  D(28,27,38,39)        156.5808         estimate D2E/DX2                !
 ! D250  D(7,28,29,30)          14.1661         estimate D2E/DX2                !
 ! D251  D(7,28,29,35)         163.1694         estimate D2E/DX2                !
 ! D252  D(27,28,29,30)       -147.4429         estimate D2E/DX2                !
 ! D253  D(27,28,29,35)          1.5604         estimate D2E/DX2                !
 ! D254  D(28,29,30,10)        -20.9697         estimate D2E/DX2                !
 ! D255  D(28,29,30,31)        134.5965         estimate D2E/DX2                !
 ! D256  D(35,29,30,10)       -170.6565         estimate D2E/DX2                !
 ! D257  D(35,29,30,31)        -15.0903         estimate D2E/DX2                !
 ! D258  D(28,29,35,34)       -131.1362         estimate D2E/DX2                !
 ! D259  D(28,29,35,36)          5.3295         estimate D2E/DX2                !
 ! D260  D(30,29,35,34)         14.7013         estimate D2E/DX2                !
 ! D261  D(30,29,35,36)        151.167          estimate D2E/DX2                !
 ! D262  D(10,30,31,32)        152.1452         estimate D2E/DX2                !
 ! D263  D(10,30,31,33)          0.0238         estimate D2E/DX2                !
 ! D264  D(29,30,31,32)          0.4188         estimate D2E/DX2                !
 ! D265  D(29,30,31,33)       -151.7026         estimate D2E/DX2                !
 ! D266  D(30,31,32,34)         14.532          estimate D2E/DX2                !
 ! D267  D(30,31,32,40)       -134.2116         estimate D2E/DX2                !
 ! D268  D(33,31,32,34)        170.7384         estimate D2E/DX2                !
 ! D269  D(33,31,32,40)         21.9949         estimate D2E/DX2                !
 ! D270  D(30,31,33,37)        134.7402         estimate D2E/DX2                !
 ! D271  D(30,31,33,50)         18.5483         estimate D2E/DX2                !
 ! D272  D(30,31,33,71)       -106.2523         estimate D2E/DX2                !
 ! D273  D(32,31,33,37)        -19.5282         estimate D2E/DX2                !
 ! D274  D(32,31,33,50)       -135.7201         estimate D2E/DX2                !
 ! D275  D(32,31,33,71)         99.4793         estimate D2E/DX2                !
 ! D276  D(31,32,34,35)        -14.695          estimate D2E/DX2                !
 ! D277  D(31,32,34,44)       -150.8695         estimate D2E/DX2                !
 ! D278  D(40,32,34,35)        130.0604         estimate D2E/DX2                !
 ! D279  D(40,32,34,44)         -6.1141         estimate D2E/DX2                !
 ! D280  D(31,32,40,18)        147.6203         estimate D2E/DX2                !
 ! D281  D(31,32,40,37)        -14.2703         estimate D2E/DX2                !
 ! D282  D(34,32,40,18)         -0.6002         estimate D2E/DX2                !
 ! D283  D(34,32,40,37)       -162.4908         estimate D2E/DX2                !
 ! D284  D(31,33,37,40)         10.4273         estimate D2E/DX2                !
 ! D285  D(31,33,37,46)       -110.3685         estimate D2E/DX2                !
 ! D286  D(31,33,37,72)        131.5069         estimate D2E/DX2                !
 ! D287  D(50,33,37,40)        130.4032         estimate D2E/DX2                !
 ! D288  D(50,33,37,46)          9.6074         estimate D2E/DX2                !
 ! D289  D(50,33,37,72)       -108.5172         estimate D2E/DX2                !
 ! D290  D(71,33,37,40)       -108.1227         estimate D2E/DX2                !
 ! D291  D(71,33,37,46)        131.0815         estimate D2E/DX2                !
 ! D292  D(71,33,37,72)         12.9569         estimate D2E/DX2                !
 ! D293  D(31,33,50,21)        -15.4206         estimate D2E/DX2                !
 ! D294  D(31,33,50,48)        107.7135         estimate D2E/DX2                !
 ! D295  D(31,33,50,70)       -136.5785         estimate D2E/DX2                !
 ! D296  D(37,33,50,21)       -128.2571         estimate D2E/DX2                !
 ! D297  D(37,33,50,48)         -5.123          estimate D2E/DX2                !
 ! D298  D(37,33,50,70)        110.585          estimate D2E/DX2                !
 ! D299  D(71,33,50,21)        109.6075         estimate D2E/DX2                !
 ! D300  D(71,33,50,48)       -127.2583         estimate D2E/DX2                !
 ! D301  D(71,33,50,70)        -11.5504         estimate D2E/DX2                !
 ! D302  D(32,34,35,29)          0.0933         estimate D2E/DX2                !
 ! D303  D(32,34,35,36)       -140.966          estimate D2E/DX2                !
 ! D304  D(44,34,35,29)        140.9987         estimate D2E/DX2                !
 ! D305  D(44,34,35,36)         -0.0606         estimate D2E/DX2                !
 ! D306  D(32,34,44,43)        144.2202         estimate D2E/DX2                !
 ! D307  D(32,34,44,47)          4.577          estimate D2E/DX2                !
 ! D308  D(35,34,44,43)          3.9851         estimate D2E/DX2                !
 ! D309  D(35,34,44,47)       -135.6581         estimate D2E/DX2                !
 ! D310  D(29,35,36,38)         -4.489          estimate D2E/DX2                !
 ! D311  D(29,35,36,43)       -144.3676         estimate D2E/DX2                !
 ! D312  D(34,35,36,38)        135.9923         estimate D2E/DX2                !
 ! D313  D(34,35,36,43)         -3.8863         estimate D2E/DX2                !
 ! D314  D(35,36,38,27)         -2.9411         estimate D2E/DX2                !
 ! D315  D(35,36,38,39)       -146.7251         estimate D2E/DX2                !
 ! D316  D(43,36,38,27)        132.3252         estimate D2E/DX2                !
 ! D317  D(43,36,38,39)        -11.4587         estimate D2E/DX2                !
 ! D318  D(35,36,43,42)        147.2194         estimate D2E/DX2                !
 ! D319  D(35,36,43,44)          6.2454         estimate D2E/DX2                !
 ! D320  D(38,36,43,42)          8.1846         estimate D2E/DX2                !
 ! D321  D(38,36,43,44)       -132.7894         estimate D2E/DX2                !
 ! D322  D(33,37,40,18)       -157.2324         estimate D2E/DX2                !
 ! D323  D(33,37,40,32)          1.7628         estimate D2E/DX2                !
 ! D324  D(46,37,40,18)        -44.6041         estimate D2E/DX2                !
 ! D325  D(46,37,40,32)        114.3911         estimate D2E/DX2                !
 ! D326  D(72,37,40,18)         80.276          estimate D2E/DX2                !
 ! D327  D(72,37,40,32)       -120.7289         estimate D2E/DX2                !
 ! D328  D(33,37,46,45)        159.6824         estimate D2E/DX2                !
 ! D329  D(33,37,46,48)        -11.261          estimate D2E/DX2                !
 ! D330  D(40,37,46,45)         45.0746         estimate D2E/DX2                !
 ! D331  D(40,37,46,48)       -125.8688         estimate D2E/DX2                !
 ! D332  D(72,37,46,45)        -80.1676         estimate D2E/DX2                !
 ! D333  D(72,37,46,48)        108.889          estimate D2E/DX2                !
 ! D334  D(27,38,39,4)           2.2567         estimate D2E/DX2                !
 ! D335  D(27,38,39,41)       -142.2602         estimate D2E/DX2                !
 ! D336  D(36,38,39,4)         150.108          estimate D2E/DX2                !
 ! D337  D(36,38,39,41)          5.5912         estimate D2E/DX2                !
 ! D338  D(4,39,41,1)            0.2997         estimate D2E/DX2                !
 ! D339  D(4,39,41,42)        -136.3558         estimate D2E/DX2                !
 ! D340  D(38,39,41,1)         140.3293         estimate D2E/DX2                !
 ! D341  D(38,39,41,42)          3.6738         estimate D2E/DX2                !
 ! D342  D(1,41,42,43)        -148.1349         estimate D2E/DX2                !
 ! D343  D(1,41,42,66)          -5.6588         estimate D2E/DX2                !
 ! D344  D(39,41,42,43)         -7.0069         estimate D2E/DX2                !
 ! D345  D(39,41,42,66)        135.4693         estimate D2E/DX2                !
 ! D346  D(41,42,43,36)          1.1629         estimate D2E/DX2                !
 ! D347  D(41,42,43,44)        136.9422         estimate D2E/DX2                !
 ! D348  D(66,42,43,36)       -136.6942         estimate D2E/DX2                !
 ! D349  D(66,42,43,44)         -0.915          estimate D2E/DX2                !
 ! D350  D(41,42,66,49)       -135.4306         estimate D2E/DX2                !
 ! D351  D(41,42,66,65)          5.6146         estimate D2E/DX2                !
 ! D352  D(43,42,66,49)          7.0147         estimate D2E/DX2                !
 ! D353  D(43,42,66,65)        148.06           estimate D2E/DX2                !
 ! D354  D(36,43,44,34)         -6.2876         estimate D2E/DX2                !
 ! D355  D(36,43,44,47)        132.6001         estimate D2E/DX2                !
 ! D356  D(42,43,44,34)       -147.2418         estimate D2E/DX2                !
 ! D357  D(42,43,44,47)         -8.3541         estimate D2E/DX2                !
 ! D358  D(34,44,47,18)          3.3509         estimate D2E/DX2                !
 ! D359  D(34,44,47,49)        146.449          estimate D2E/DX2                !
 ! D360  D(43,44,47,18)       -131.7674         estimate D2E/DX2                !
 ! D361  D(43,44,47,49)         11.3307         estimate D2E/DX2                !
 ! D362  D(14,45,46,37)       -173.5782         estimate D2E/DX2                !
 ! D363  D(14,45,46,48)         -3.2761         estimate D2E/DX2                !
 ! D364  D(20,45,46,37)        -18.5583         estimate D2E/DX2                !
 ! D365  D(20,45,46,48)        151.7437         estimate D2E/DX2                !
 ! D366  D(37,46,48,17)        177.6204         estimate D2E/DX2                !
 ! D367  D(37,46,48,50)          8.7942         estimate D2E/DX2                !
 ! D368  D(45,46,48,17)          5.9035         estimate D2E/DX2                !
 ! D369  D(45,46,48,50)       -162.9227         estimate D2E/DX2                !
 ! D370  D(18,47,49,51)         -2.2797         estimate D2E/DX2                !
 ! D371  D(18,47,49,66)        141.9939         estimate D2E/DX2                !
 ! D372  D(44,47,49,51)       -149.4938         estimate D2E/DX2                !
 ! D373  D(44,47,49,66)         -5.2202         estimate D2E/DX2                !
 ! D374  D(17,48,50,21)        -44.3867         estimate D2E/DX2                !
 ! D375  D(17,48,50,33)       -171.4346         estimate D2E/DX2                !
 ! D376  D(17,48,50,70)         73.4519         estimate D2E/DX2                !
 ! D377  D(46,48,50,21)        125.05           estimate D2E/DX2                !
 ! D378  D(46,48,50,33)         -1.9979         estimate D2E/DX2                !
 ! D379  D(46,48,50,70)       -117.1114         estimate D2E/DX2                !
 ! D380  D(47,49,51,19)          4.6            estimate D2E/DX2                !
 ! D381  D(47,49,51,52)        151.4412         estimate D2E/DX2                !
 ! D382  D(66,49,51,19)       -139.7695         estimate D2E/DX2                !
 ! D383  D(66,49,51,52)          7.0717         estimate D2E/DX2                !
 ! D384  D(47,49,66,42)         -3.9966         estimate D2E/DX2                !
 ! D385  D(47,49,66,65)       -140.5277         estimate D2E/DX2                !
 ! D386  D(51,49,66,42)        135.7846         estimate D2E/DX2                !
 ! D387  D(51,49,66,65)         -0.7465         estimate D2E/DX2                !
 ! D388  D(19,51,52,53)         -3.5656         estimate D2E/DX2                !
 ! D389  D(19,51,52,64)        134.1068         estimate D2E/DX2                !
 ! D390  D(49,51,52,53)       -145.6636         estimate D2E/DX2                !
 ! D391  D(49,51,52,64)         -7.9913         estimate D2E/DX2                !
 ! D392  D(51,52,53,54)          1.3836         estimate D2E/DX2                !
 ! D393  D(51,52,53,62)        142.675          estimate D2E/DX2                !
 ! D394  D(64,52,53,54)       -141.0354         estimate D2E/DX2                !
 ! D395  D(64,52,53,62)          0.2561         estimate D2E/DX2                !
 ! D396  D(51,52,64,63)       -139.6898         estimate D2E/DX2                !
 ! D397  D(51,52,64,65)          2.6052         estimate D2E/DX2                !
 ! D398  D(53,52,64,63)          1.9514         estimate D2E/DX2                !
 ! D399  D(53,52,64,65)        144.2465         estimate D2E/DX2                !
 ! D400  D(52,53,54,20)          2.9961         estimate D2E/DX2                !
 ! D401  D(52,53,54,55)        145.175          estimate D2E/DX2                !
 ! D402  D(62,53,54,20)       -134.0215         estimate D2E/DX2                !
 ! D403  D(62,53,54,55)          8.1574         estimate D2E/DX2                !
 ! D404  D(52,53,62,61)       -144.4474         estimate D2E/DX2                !
 ! D405  D(52,53,62,63)         -2.3679         estimate D2E/DX2                !
 ! D406  D(54,53,62,61)         -3.522          estimate D2E/DX2                !
 ! D407  D(54,53,62,63)        138.5575         estimate D2E/DX2                !
 ! D408  D(20,54,55,14)         -4.9165         estimate D2E/DX2                !
 ! D409  D(20,54,55,60)        142.2998         estimate D2E/DX2                !
 ! D410  D(53,54,55,14)       -152.0123         estimate D2E/DX2                !
 ! D411  D(53,54,55,60)         -4.796          estimate D2E/DX2                !
 ! D412  D(14,55,60,59)         -6.6585         estimate D2E/DX2                !
 ! D413  D(14,55,60,61)        139.2184         estimate D2E/DX2                !
 ! D414  D(54,55,60,59)       -149.0972         estimate D2E/DX2                !
 ! D415  D(54,55,60,61)         -3.2203         estimate D2E/DX2                !
 ! D416  D(17,56,57,15)       -156.9986         estimate D2E/DX2                !
 ! D417  D(17,56,57,58)          6.1798         estimate D2E/DX2                !
[...]
 Alpha virt. eigenvalues --    1.17365   1.17791   1.17980   1.18411   1.18911
 Alpha virt. eigenvalues --    1.19639   1.19928   1.20496   1.20763   1.21490
 Alpha virt. eigenvalues --    1.21830   1.22375   1.22758   1.23393   1.23823
 Alpha virt. eigenvalues --    1.24326   1.24512   1.24972   1.25022   1.25792
 Alpha virt. eigenvalues --    1.26176   1.26600   1.27158   1.27925   1.27961
 Alpha virt. eigenvalues --    1.28234   1.29043   1.29458   1.30185   1.30475
 Alpha virt. eigenvalues --    1.31072   1.31481   1.31703   1.32510   1.32847
 Alpha virt. eigenvalues --    1.33230   1.33769   1.34032   1.34361   1.34720
 Alpha virt. eigenvalues --    1.35299   1.35452   1.35916   1.36285   1.36439
 Alpha virt. eigenvalues --    1.36796   1.37011   1.37319   1.37448   1.38287
 Alpha virt. eigenvalues --    1.38528   1.38663   1.39007   1.39593   1.39784
 Alpha virt. eigenvalues --    1.40313   1.40576   1.41020   1.41526   1.41871
 Alpha virt. eigenvalues --    1.42254   1.42551   1.42703   1.42985   1.43821
 Alpha virt. eigenvalues --    1.44027   1.44231   1.44635   1.44921   1.45072
 Alpha virt. eigenvalues --    1.45162   1.45362   1.45554   1.46018   1.46381
 Alpha virt. eigenvalues --    1.46461   1.46945   1.47178   1.47409   1.47520
 Alpha virt. eigenvalues --    1.47809   1.48233   1.48601   1.48702   1.48839
 Alpha virt. eigenvalues --    1.48982   1.49290   1.49764   1.49966   1.50379
 Alpha virt. eigenvalues --    1.50471   1.50544   1.51012   1.51243   1.51440
 Alpha virt. eigenvalues --    1.51635   1.51960   1.52055   1.52323   1.52693
 Alpha virt. eigenvalues --    1.52975   1.53295   1.53478   1.53542   1.54059
 Alpha virt. eigenvalues --    1.54417   1.54859   1.55310   1.55437   1.55549
 Alpha virt. eigenvalues --    1.56392   1.56475   1.56674   1.57033   1.57185
 Alpha virt. eigenvalues --    1.57716   1.57960   1.58609   1.58875   1.59321
 Alpha virt. eigenvalues --    1.59478   1.60094   1.60146   1.60674   1.60831
 Alpha virt. eigenvalues --    1.61425   1.61929   1.62056   1.62411   1.62790
 Alpha virt. eigenvalues --    1.63074   1.63350   1.63619   1.64543   1.64695
 Alpha virt. eigenvalues --    1.65234   1.65413   1.65991   1.66382   1.66486
 Alpha virt. eigenvalues --    1.66748   1.67128   1.67589   1.67734   1.68129
 Alpha virt. eigenvalues --    1.68724   1.69008   1.69277   1.69715   1.70257
 Alpha virt. eigenvalues --    1.70465   1.70784   1.70961   1.71714   1.71958
 Alpha virt. eigenvalues --    1.72280   1.72499   1.72888   1.73350   1.73423
 Alpha virt. eigenvalues --    1.74064   1.74467   1.74994   1.75250   1.75472
 Alpha virt. eigenvalues --    1.76146   1.76729   1.77054   1.77580   1.77647
 Alpha virt. eigenvalues --    1.78121   1.78202   1.78343   1.79091   1.79539
 Alpha virt. eigenvalues --    1.79596   1.80256   1.80303   1.80726   1.81023
 Alpha virt. eigenvalues --    1.81299   1.81433   1.81554   1.82795   1.83042
 Alpha virt. eigenvalues --    1.83693   1.83780   1.84330   1.84925   1.85117
 Alpha virt. eigenvalues --    1.85343   1.85749   1.86238   1.86541   1.86712
 Alpha virt. eigenvalues --    1.87203   1.87501   1.88195   1.88675   1.89326
 Alpha virt. eigenvalues --    1.89535   1.89992   1.90586   1.90701   1.90999
 Alpha virt. eigenvalues --    1.91276   1.92066   1.92409   1.92912   1.93455
 Alpha virt. eigenvalues --    1.93596   1.94193   1.94484   1.95300   1.95394
 Alpha virt. eigenvalues --    1.95681   1.96241   1.96378   1.96513   1.97271
 Alpha virt. eigenvalues --    1.97755   1.98227   1.98569   1.99420   1.99915
 Alpha virt. eigenvalues --    2.00709   2.01222   2.01479   2.01909   2.02422
 Alpha virt. eigenvalues --    2.03021   2.03263   2.03667   2.04351   2.04933
 Alpha virt. eigenvalues --    2.05048   2.05514   2.05798   2.06143   2.06387
 Alpha virt. eigenvalues --    2.06726   2.07037   2.07750   2.08078   2.08765
 Alpha virt. eigenvalues --    2.09531   2.09828   2.10295   2.10356   2.10995
 Alpha virt. eigenvalues --    2.11106   2.11462   2.11730   2.12124   2.12504
 Alpha virt. eigenvalues --    2.12691   2.13274   2.13981   2.14120   2.14654
 Alpha virt. eigenvalues --    2.15152   2.15575   2.15764   2.15968   2.16602
 Alpha virt. eigenvalues --    2.17054   2.17793   2.18022   2.18569   2.18835
 Alpha virt. eigenvalues --    2.19376   2.20133   2.20912   2.21274   2.21546
 Alpha virt. eigenvalues --    2.22112   2.22699   2.23580   2.23769   2.24238
 Alpha virt. eigenvalues --    2.24519   2.25274   2.25477   2.26186   2.26795
 Alpha virt. eigenvalues --    2.27375   2.27650   2.28047   2.28868   2.29768
 Alpha virt. eigenvalues --    2.30089   2.31219   2.31282   2.32196   2.32279
 Alpha virt. eigenvalues --    2.32533   2.32723   2.33417   2.33510   2.34135
 Alpha virt. eigenvalues --    2.34397   2.34844   2.35995   2.36312   2.36774
 Alpha virt. eigenvalues --    2.37382   2.37503   2.38047   2.38975   2.39552
 Alpha virt. eigenvalues --    2.39772   2.40414   2.40573   2.41582   2.41830
 Alpha virt. eigenvalues --    2.42097   2.42465   2.42858   2.43475   2.43788
 Alpha virt. eigenvalues --    2.44486   2.45023   2.45549   2.45652   2.46045
 Alpha virt. eigenvalues --    2.46437   2.47108   2.47766   2.47910   2.48523
 Alpha virt. eigenvalues --    2.48755   2.49550   2.50165   2.50657   2.51152
 Alpha virt. eigenvalues --    2.52298   2.53124   2.53290   2.53504   2.54995
 Alpha virt. eigenvalues --    2.55288   2.55530   2.56372   2.56892   2.57312
 Alpha virt. eigenvalues --    2.57619   2.57968   2.58252   2.58628   2.59112
 Alpha virt. eigenvalues --    2.59676   2.60239   2.60369   2.60535   2.60971
 Alpha virt. eigenvalues --    2.61130   2.62348   2.62821   2.62921   2.63972
 Alpha virt. eigenvalues --    2.64636   2.64765   2.65010   2.65877   2.66079
 Alpha virt. eigenvalues --    2.66808   2.66932   2.67554   2.68160   2.68852
 Alpha virt. eigenvalues --    2.69679   2.70742   2.71261   2.72161   2.73422
 Alpha virt. eigenvalues --    2.73566   2.74135   2.74681   2.75086   2.75376
 Alpha virt. eigenvalues --    2.75965   2.76851   2.77580   2.78413   2.79069
 Alpha virt. eigenvalues --    2.80854   2.81554   2.81689   2.82589   2.82861
 Alpha virt. eigenvalues --    2.83650   2.83982   2.84348   2.85092   2.85147
 Alpha virt. eigenvalues --    2.86122   2.86603   2.87621   2.87813   2.88657
 Alpha virt. eigenvalues --    2.89131   2.90455   2.90698   2.91102   2.91725
 Alpha virt. eigenvalues --    2.91791   2.93426   2.94063   2.94605   2.94876
 Alpha virt. eigenvalues --    2.95457   2.95779   2.96034   2.96565   2.97745
 Alpha virt. eigenvalues --    2.98165   2.98459   2.98805   2.99086   2.99555
 Alpha virt. eigenvalues --    2.99963   3.00220   3.00653   3.00942   3.01288
 Alpha virt. eigenvalues --    3.01876   3.02310   3.02726   3.02862   3.03666
 Alpha virt. eigenvalues --    3.04318   3.04628   3.04719   3.05337   3.05493
 Alpha virt. eigenvalues --    3.06104   3.06464   3.06972   3.07007   3.07512
 Alpha virt. eigenvalues --    3.07633   3.08127   3.08549   3.08652   3.09055
 Alpha virt. eigenvalues --    3.09195   3.09650   3.10020   3.10604   3.11167
 Alpha virt. eigenvalues --    3.11387   3.11677   3.11961   3.12845   3.12931
 Alpha virt. eigenvalues --    3.13792   3.13848   3.13950   3.14264   3.14960
 Alpha virt. eigenvalues --    3.15231   3.15450   3.15678   3.15879   3.15927
 Alpha virt. eigenvalues --    3.16100   3.16727   3.16834   3.17189   3.17520
 Alpha virt. eigenvalues --    3.17766   3.17918   3.19291   3.20013   3.20270
 Alpha virt. eigenvalues --    3.20929   3.21583   3.21892   3.22231   3.22796
 Alpha virt. eigenvalues --    3.23756   3.24154   3.24589   3.26093   3.28199
 Alpha virt. eigenvalues --    3.28925   3.29706   3.30871   3.32757   3.33621
 Alpha virt. eigenvalues --    3.34302   3.34459   3.36215   3.38583   3.41043
 Alpha virt. eigenvalues --    3.41488   3.42079   3.44625   3.45729   3.46644
 Alpha virt. eigenvalues --    3.47985   3.49791   3.50546   3.51184   3.53723
 Alpha virt. eigenvalues --    3.54462   3.55548   3.56135   3.56852   3.57273
 Alpha virt. eigenvalues --    3.58203   3.58729   3.59705   3.61510   3.62537
 Alpha virt. eigenvalues --    3.63215   3.64457   3.65539   3.66077   3.66488
 Alpha virt. eigenvalues --    3.68933   3.69751   3.70251   3.71131   3.71230
 Alpha virt. eigenvalues --    3.72113   3.74301   3.76410   3.76752   3.76948
 Alpha virt. eigenvalues --    3.77692   3.80311   3.80528   3.81573   3.82668
 Alpha virt. eigenvalues --    3.85233   3.85933   3.86009   3.86442   3.88754
 Alpha virt. eigenvalues --    3.88848   3.89818   3.90348   3.90606   3.91932
 Alpha virt. eigenvalues --    3.92582   3.94038   3.94542   3.94946   3.95707
 Alpha virt. eigenvalues --    3.98048   3.98137   4.00558   4.02621   4.04870
 Alpha virt. eigenvalues --    4.06488   4.09550   4.12194   4.15089   4.17673
 Alpha virt. eigenvalues --    4.24059   4.24896   4.26322   4.30962   4.33746
 Alpha virt. eigenvalues --    4.35258   4.36797   4.38265   4.39440   4.40060
 Alpha virt. eigenvalues --    4.41289   4.43393   4.44894   4.50895   4.54507
 Alpha virt. eigenvalues --    4.56895   4.58246   4.61213   4.61800   4.65521
 Alpha virt. eigenvalues --    4.67006   4.68773   4.69980   4.70571   4.75377
 Alpha virt. eigenvalues --    4.79676   4.82946   4.90630   4.92160   4.96745
 Alpha virt. eigenvalues --    5.01283   5.04433   5.04599   5.06766  23.06265
 Alpha virt. eigenvalues --   23.25574  23.26432  23.33438  23.46479  23.48252
 Alpha virt. eigenvalues --   23.53617  23.55537  23.57819  23.65206  23.68895
 Alpha virt. eigenvalues --   23.69630  23.74112  23.76994  23.79368  23.80209
 Alpha virt. eigenvalues --   23.82316  23.83491  23.84993  23.85114  23.85335
 Alpha virt. eigenvalues --   23.86033  23.87003  23.87983  23.90110  23.90621
 Alpha virt. eigenvalues --   23.91053  23.91896  23.93059  23.94238  23.94297
 Alpha virt. eigenvalues --   23.95541  23.96154  23.97262  23.98184  23.98601
 Alpha virt. eigenvalues --   23.98986  23.99335  23.99690  24.00383  24.01443
 Alpha virt. eigenvalues --   24.01941  24.03291  24.03624  24.04552  24.05355
 Alpha virt. eigenvalues --   24.06442  24.06934  24.08333  24.08885  24.10053
 Alpha virt. eigenvalues --   24.11039  24.11144  24.11249  24.11551  24.12587
 Alpha virt. eigenvalues --   24.13032  24.13313  24.14279  24.14317  24.15155
 Alpha virt. eigenvalues --   24.15543  24.18938  24.19514  24.19697  24.24289
          Condensed to atoms (all electrons):
 Mulliken charges:
               1
     1  C   -0.004647
     2  C   -0.002478
     3  C   -0.007056
     4  C   -0.006061
     5  C   -0.004511
     6  C   -0.006977
     7  C   -0.137603
     8  C   -0.002801
     9  C    0.016390
    10  C   -0.146227
    11  C   -0.019580
    12  C   -0.002993
    13  C   -0.007047
    14  C   -0.016123
    15  C    0.012496
    16  C   -0.111748
    17  C   -0.105249
    18  C    0.014881
    19  C    0.002188
    20  C   -0.005160
    21  C   -0.149629
    22  C    0.037077
    23  C    0.002139
    24  C    0.010589
    25  C   -0.006458
    26  C   -0.002221
    27  C    0.018634
    28  C   -0.032506
    29  C    0.021069
    30  C    0.006951
    31  C    0.007393
    32  C    0.022123
    33  C   -0.138574
    34  C   -0.010491
    35  C   -0.007922
    36  C   -0.007717
    37  C   -0.141773
    38  C   -0.002252
    39  C   -0.003007
    40  C   -0.025574
    41  C    0.000353
    42  C   -0.003500
    43  C   -0.012696
    44  C   -0.007473
    45  C    0.011151
    46  C   -0.014430
    47  C   -0.001025
    48  C   -0.058572
    49  C   -0.003399
    50  C   -0.102894
    51  C   -0.007207
    52  C   -0.007299
    53  C   -0.008499
    54  C   -0.003829
    55  C    0.023985
    56  C   -0.012366
    57  C    0.012226
    58  C   -0.149190
    59  C   -0.150106
    60  C   -0.025793
    61  C    0.018841
    62  C   -0.006326
    63  C   -0.000907
    64  C   -0.002276
    65  C   -0.005513
    66  C    0.000764
    67  H    0.154759
    68  H    0.142314
    69  H    0.140517
    70  H    0.129120
    71  H    0.144453
    72  H    0.154842
    73  H    0.139657
    74  H    0.143499
    75  H    0.145588
    76  H    0.163686
 Sum of Mulliken charges =  -0.00000
 Mulliken charges with hydrogens summed into heavy atoms:
               1
     1  C   -0.004647
     2  C   -0.002478
     3  C   -0.007056
     4  C   -0.006061
     5  C   -0.004511
     6  C   -0.006977
     7  C    0.017156
     8  C   -0.002801
     9  C    0.016390
    10  C   -0.003912
    11  C   -0.019580
    12  C   -0.002993
    13  C   -0.007047
    14  C   -0.016123
    15  C    0.012496
    16  C    0.031751
    17  C    0.034409
    18  C    0.014881
    19  C    0.002188
    20  C   -0.005160
    21  C   -0.009112
    22  C    0.037077
    23  C    0.002139
    24  C    0.010589
    25  C   -0.006458
    26  C   -0.002221
    27  C    0.018634
    28  C   -0.032506
    29  C    0.021069
    30  C    0.006951
    31  C    0.007393
    32  C    0.022123
    33  C    0.005879
    34  C   -0.010491
    35  C   -0.007922
    36  C   -0.007717
    37  C    0.013068
    38  C   -0.002252
    39  C   -0.003007
    40  C   -0.025574
    41  C    0.000353
    42  C   -0.003500
    43  C   -0.012696
    44  C   -0.007473
    45  C    0.011151
    46  C   -0.014430
    47  C   -0.001025
    48  C   -0.058572
    49  C   -0.003399
    50  C    0.026225
    51  C   -0.007207
    52  C   -0.007299
    53  C   -0.008499
    54  C   -0.003829
    55  C    0.023985
    56  C   -0.012366
    57  C    0.012226
    58  C   -0.003602
    59  C    0.013580
    60  C   -0.025793
    61  C    0.018841
    62  C   -0.006326
    63  C   -0.000907
    64  C   -0.002276
    65  C   -0.005513
    66  C    0.000764
 Electronic spatial extent (au):  <R**2>=          21831.9086
 Charge=             -0.0000 electrons
 Dipole moment (field-independent basis, Debye):
    X=             -6.2093    Y=              3.8786    Z=             -0.0293  Tot=              7.3212
 Quadrupole moment (field-independent basis, Debye-Ang):
   XX=           -352.0512   YY=           -361.5349   ZZ=           -373.6346
   XY=             -4.3962   XZ=              0.4583   YZ=             -1.9157
 Traceless Quadrupole moment (field-independent basis, Debye-Ang):
   XX=             10.3557   YY=              0.8720   ZZ=            -11.2277
   XY=             -4.3962   XZ=              0.4583   YZ=             -1.9157
 Octapole moment (field-independent basis, Debye-Ang**2):
  XXX=           -195.7556  YYY=            154.5209  ZZZ=              2.6044  XYY=            -29.8200
  XXY=             22.1499  XXZ=              0.0898  XZZ=            -59.1207  YZZ=             -6.9304
  YYZ=             -4.6014  XYZ=              9.1414
 Hexadecapole moment (field-independent basis, Debye-Ang**3):
 XXXX=         -12591.4866 YYYY=         -11115.1427 ZZZZ=          -8623.4563 XXXY=            -78.1559
 XXXZ=             -9.4514 YYYX=           -111.0895 YYYZ=            -29.3519 ZZZX=             -7.0904
 ZZZY=            -17.9715 XXYY=          -4083.7565 XXZZ=          -3516.1991 YYZZ=          -3424.3802
 XXYZ=            -23.2070 YYXZ=             26.8341 ZZXY=             15.5289
 N-N= 1.002278544045D+04 E-N=-2.589530784819D+04  KE= 2.511032273772D+03
 No NMR shielding tensors so no spin-rotation constants.
 Leave Link  601 at Wed Jul 20 22:03:28 2022, MaxMem=  1342177280 cpu:              59.5 elap:               1.5
 (Enter /home/mkliu/g16/l9999.exe)
 1\1\GINC-NODE02\FOpt\RB3LYP\6-311G(d,p)\C66H10\MKLIU\20-Jul-2022\0\\#P
  opt b3lyp/6-311G(d, p) empiricaldispersion=GD3\\force\\0,1\C,12.73994
 89598,12.0577443967,21.888298965\C,12.7432310567,13.002455374,22.90708
 85444\C,12.6246843784,14.4113661928,22.5849280945\C,12.560507015,14.82
 67265089,21.2540250478\C,13.4303439206,15.1505817884,23.5117015895\C,1
 4.0609812332,14.2210688446,24.4240771973\C,15.6165017367,17.3306617013
 ,18.743195395\C,13.673352765,12.8836386409,24.0201988577\C,15.35899324
 53,14.4757705445,24.8752908485\C,16.9063385886,17.0001781171,17.862303
 1761\C,16.0325045013,15.6944743231,24.5278741909\C,15.4371754423,16.52
 97203292,23.6147546082\C,14.1446485322,16.2525855651,23.0535788031\C,1
 9.1542390636,14.0550428617,22.5948091909\C,16.2341359287,17.1413816493
 ,22.5643160485\C,19.5127048318,15.5037882553,22.7461743073\C,19.558368
 5928,16.2407904869,21.3472547311\C,17.4115706123,11.5783320902,19.3155
 191103\C,17.6559999688,11.3018091404,20.7579143616\C,18.4026028871,12.
 0623162658,21.6532948572\C,18.1676250857,17.1250518925,18.7818006052\C
 ,17.5549658064,17.2578218939,20.1494342728\C,16.1585923429,17.36875759
 72,20.1552571048\C,15.4677508591,17.2460196884,21.3687059575\C,14.1394
 911774,16.6530751295,21.6442092421\C,13.3331055757,15.9596253741,20.74
 71945605\C,13.6172450007,15.6873784092,19.3072072225\C,14.6548502527,1
 6.1603561578,18.5122614228\C,15.2607673299,15.2654037892,17.5668508457
 \C,16.6485729542,15.5926829482,17.416794931\C,17.5767800871,14.5903015
 499,17.418614439\C,17.1357960613,13.2341079277,17.5648793027\C,19.0067
 892335,14.7210113716,17.8626822323\C,15.7940310451,12.8980456066,17.40
 25906085\C,14.8185225374,13.9562441322,17.4048831747\C,13.6670026107,1
 3.5018006095,18.1136837762\C,19.2044327466,13.4329374907,18.7668927067
 \C,13.0671164488,14.3685074626,19.0264894\C,12.4531807524,13.839163532
 6,20.2145945094\C,17.968729017,12.5703978365,18.5248433435\C,12.544912
 9908,12.4746152256,20.5176279833\C,13.339619142,11.615943262,19.662188
 8183\C,13.8800744897,12.1136555735,18.4874460827\C,15.2462487569,11.78
 80654371,18.1122921091\C,19.1343406329,13.3336217021,21.4237681004\C,1
 9.3414340587,14.0226420544,20.1570537662\C,16.0602639401,11.1244525104
 ,19.0296692752\C,19.4958630011,15.3586432459,20.1241632688\C,15.484058
 6903,10.5601320942,20.2206458274\C,19.2856690888,15.9750565739,18.7528
 661779\C,16.4757527211,10.6012573299,21.2622546898\C,16.0647882634,10.
 6953732632,22.5910168641\C,16.8636105698,11.4435567305,23.5132526071\C
 ,18.0117977011,12.0734807207,23.0547865211\C,18.4127788412,13.33826165
 35,23.6121852245\C,18.2553771297,16.9976075091,21.3143289451\C,17.6036
 359465,16.9635288667,22.5318994583\C,18.4297984127,16.3040872158,23.60
 9182258\C,17.5577512989,15.5005400104,24.6445769718\C,17.6152277233,13
 .9825204223,24.5241250636\C,16.3431055941,13.4095099311,24.8751065816\
 C,15.9832414531,12.1397607602,24.4268788232\C,14.6193340381,11.8579995
 945,24.0223962466\C,14.6666869154,10.9195742762,22.9125284904\C,13.728
 0511326,10.9891998247,21.8910368554\C,14.1311164061,10.7570075279,20.5
 209481601\H,15.1574093476,18.2829930381,18.4619486946\H,16.9804085528,
 17.679788183,17.0103834555\H,18.6817860105,18.0573614308,18.5305578017
 \H,20.2079103615,16.4554420847,18.4094369371\H,19.6845453263,14.705212
 3226,17.0059901024\H,20.1105010653,12.8760958243,18.5043506782\H,20.43
 63152317,16.8966989144,21.2966289249\H,20.4862342343,15.5784110564,23.
 2407456156\H,18.965950507,17.0722990497,24.1740583986\H,17.8764678813,
 15.793770383,25.6510690022\\Version=ES64L-G16RevA.03\State=1-A\HF=-252
 1.4922205\RMSD=6.087e-09\RMSF=8.272e-05\Dipole=2.1961047,1.8032271,-0.
 4712912\Quadrupole=2.4505004,-2.8950347,0.4445343,7.7075206,-1.7402103
 ,-2.7912785\PG=C01 [X(C66H10)]\\@


 WE'RE IN THE POSITION OF A VISITOR FROM ANOTHER
 DIMENSION WHO COMES TO EARTH AND SEES A CHESS MATCH.
 ASSUMING HE KNOWS IT'S A GAME, HE'S GOT TWO PROBLEMS:
 FIRST, FIGURE OUT THE RULES, AND SECOND, FIGURE OUT HOW TO WIN.
 NINETY PERCENT OF SCIENCE (INCLUDING VIRTUALLY ALL OF CHEMISRY)
 IS IN THAT SECOND CATEGORY.  THEY'RE TRYING TO APPLY
 THE LAWS THAT ARE ALREADY KNOWN.

                     -- SHELDON GLASHOW, 1979
 Job cpu time:       1 days  4 hours 33 minutes 21.5 seconds.
 Elapsed time:       0 days  0 hours 35 minutes 46.6 seconds.
 File lengths (MBytes):  RWF=    957 Int=      0 D2E=      0 Chk=    120 Scr=      1
 Normal termination of Gaussian 16 at Wed Jul 20 22:03:29 2022.
