 Entering Gaussian System, Link 0=g16
 Input=dihept_10_addons_7.gjf
 Output=dihept_10_addons_7.log
 Initial command:
 /home/mkliu/g16/l1.exe "/data/scratch/Gau-138584.inp" -scrdir="/data/scratch/"
 Entering Link 1 = /home/mkliu/g16/l1.exe PID=    138585.
  
 Copyright (c) 1988,1990,1992,1993,1995,1998,2003,2009,2016,
            Gaussian, Inc.  All Rights Reserved.
  
 This is part of the Gaussian(R) 16 program.  It is based on
 the Gaussian(R) 09 system (copyright 2009, Gaussian, Inc.),
 the Gaussian(R) 03 system (copyright 2003, Gaussian, Inc.),
 the Gaussian(R) 98 system (copyright 1998, Gaussian, Inc.),
 the Gaussian(R) 94 system (copyright 1995, Gaussian, Inc.),
 the Gaussian 92(TM) system (copyright 1992, Gaussian, Inc.),
 the Gaussian 90(TM) system (copyright 1990, Gaussian, Inc.),
 the Gaussian 88(TM) system (copyright 1988, Gaussian, Inc.),
 the Gaussian 86(TM) system (copyright 1986, Carnegie Mellon
 University), and the Gaussian 82(TM) system (copyright 1983,
 Carnegie Mellon University). Gaussian is a federally registered
 trademark of Gaussian, Inc.
  
 This software contains proprietary and confidential information,
 including trade secrets, belonging to Gaussian, Inc.
  
 This software is provided under written license and may be
 used, copied, transmitted, or stored only in accord with that
 written license.
  
 The following legend is applicable only to US Government
 contracts under FAR:
  
                    RESTRICTED RIGHTS LEGEND
  
 Use, reproduction and disclosure by the US Government is
 subject to restrictions as set forth in subparagraphs (a)
 and (c) of the Commercial Computer Software - Restricted
 Rights clause in FAR 52.227-19.
  
 Gaussian, Inc.
 340 Quinnipiac St., Bldg. 40, Wallingford CT 06492
  
  
 ---------------------------------------------------------------
 Warning -- This program may not be used in any manner that
 competes with the business of Gaussian, Inc. or will provide
 assistance to any competitor of Gaussian, Inc.  The licensee
 of this program is prohibited from giving any competitor of
 Gaussian, Inc. access to this program.  By using this program,
 the user acknowledges that Gaussian, Inc. is engaged in the
 business of creating and licensing software in the field of
 computational chemistry and represents and warrants to the
 licensee that it is not a competitor of Gaussian, Inc. and that
 it will not use this program in any manner prohibited above.
 ---------------------------------------------------------------
  

 Cite this work as:
 Gaussian 16, Revision A.03,
 M. J. Frisch, G. W. Trucks, H. B. Schlegel, G. E. Scuseria, 
 M. A. Robb, J. R. Cheeseman, G. Scalmani, V. Barone, 
 G. A. Petersson, H. Nakatsuji, X. Li, M. Caricato, A. V. Marenich, 
 J. Bloino, B. G. Janesko, R. Gomperts, B. Mennucci, H. P. Hratchian, 
 J. V. Ortiz, A. F. Izmaylov, J. L. Sonnenberg, D. Williams-Young, 
 F. Ding, F. Lipparini, F. Egidi, J. Goings, B. Peng, A. Petrone, 
 T. Henderson, D. Ranasinghe, V. G. Zakrzewski, J. Gao, N. Rega, 
 G. Zheng, W. Liang, M. Hada, M. Ehara, K. Toyota, R. Fukuda, 
 J. Hasegawa, M. Ishida, T. Nakajima, Y. Honda, O. Kitao, H. Nakai, 
 T. Vreven, K. Throssell, J. A. Montgomery, Jr., J. E. Peralta, 
 F. Ogliaro, M. J. Bearpark, J. J. Heyd, E. N. Brothers, K. N. Kudin, 
 V. N. Staroverov, T. A. Keith, R. Kobayashi, J. Normand, 
 K. Raghavachari, A. P. Rendell, J. C. Burant, S. S. Iyengar, 
 J. Tomasi, M. Cossi, J. M. Millam, M. Klene, C. Adamo, R. Cammi, 
 J. W. Ochterski, R. L. Martin, K. Morokuma, O. Farkas, 
 J. B. Foresman, and D. J. Fox, Gaussian, Inc., Wallingford CT, 2016.
 
 ******************************************
 Gaussian 16:  ES64L-G16RevA.03 25-Dec-2016
                20-Jul-2022 
 ******************************************
 %mem=10GB
 %chk=dihept_10_addons_7.chk
 %nprocshared=48
 Will use up to   48 processors via shared memory.
 -------------------------------------------------
 #P opt b3lyp/6-311G(d, p) empiricaldispersion=GD3
 -------------------------------------------------
 1/18=20,19=15,26=3,38=1/1,3;
 2/9=110,12=2,17=6,18=5,40=1/2;
 3/5=4,6=6,7=101,11=2,25=1,30=1,71=1,74=-5,124=31/1,2,3;
 4//1;
 5/5=2,38=5/2;
 6/7=2,8=2,9=2,10=2,28=1/1;
 7//1,2,3,16;
 1/18=20,19=15,26=3/3(2);
 2/9=110/2;
 99//99;
 2/9=110/2;
 3/5=4,6=6,7=101,11=2,25=1,30=1,71=1,74=-5,124=31/1,2,3;
 4/5=5,16=3,69=1/1;
 5/5=2,38=5/2;
 7//1,2,3,16;
 1/18=20,19=15,26=3/3(-5);
 2/9=110/2;
 6/7=2,8=2,9=2,10=2,19=2,28=1/1;
 99/9=1/99;
 Leave Link    1 at Wed Jul 20 07:46:53 2022, MaxMem=  1342177280 cpu:               2.0 elap:               0.0
 (Enter /home/mkliu/g16/l101.exe)
 -----
 force
 -----
 Symbolic Z-matrix:
 Charge =  0 Multiplicity = 1
 C                     12.55286   11.93703   21.9051 
 C                     12.52566   12.99267   23.04677 
 C                     12.76666   14.39263   22.53444 
 C                     12.67339   14.83077   21.23809 
 C                     13.59989   15.10665   23.4055 
 C                     14.20549   14.2014   24.31927 
 C                     15.6441   17.36054   18.71871 
 C                     13.5509   12.84991   24.25092 
 C                     15.44999   14.46546   24.78685 
 C                     16.9286   17.00173   17.88719 
 C                     16.10036   15.68211   24.41475 
 C                     15.49969   16.58408   23.54201 
 C                     14.24149   16.26273   22.96725 
 C                     19.2335   14.07776   22.57807 
 C                     16.25725   17.29121   22.5606 
 C                     19.21177   15.46788   22.56388 
 C                     19.27388   16.12605   21.30464 
 C                     17.47728   11.637    19.29165 
 C                     17.72082   11.35765   20.71558 
 C                     18.48371   12.08416   21.62029 
 C                     18.02296   16.87494   18.90821 
 C                     17.57649   17.41938   20.14147 
 C                     16.14995   17.52487   20.14042 
 C                     15.4837   17.37477   21.3363 
 C                     14.20647   16.69354   21.60001 
 C                     13.4263   15.95098   20.72348 
 C                     13.69368   15.68971   19.30476 
 C                     14.71112   16.17766   18.51192 
 C                     15.29851   15.29852   17.54774 
 C                     16.67113   15.61763   17.36673 
 C                     17.60488   14.61496   17.36581 
 C                     17.18845   13.26869   17.54137 
 C                     19.00413   14.77148   17.88907 
 C                     15.84545   12.93888   17.38843 
 C                     14.87129   13.98612   17.39003 
 C                     13.72798   13.52419   18.09869 
 C                     19.26913   13.4653   18.72202 
 C                     13.13512   14.38366   19.01682 
 C                     12.52247   13.84588   20.188 
 C                     18.02907   12.61873   18.499 
 C                     12.59199   12.50793   20.49417 
 C                     13.40919   11.6836   19.66218 
 C                     13.94304   12.15497   18.47011 
 C                     15.30258   11.83528   18.09992 
 C                     19.25004   13.30602   21.35135 
 C                     19.45381   13.95282   20.15053 
 C                     16.12833   11.18595   19.00672 
 C                     19.46017   15.38373   20.1453 
 C                     15.55359   10.65511   20.20046 
 C                     18.95517   15.87083   18.90983 
 C                     16.53865   10.72262   21.22107 
 C                     16.10655   10.88094   22.53577 
 C                     16.90686   11.56438   23.46056 
 C                     18.07338   12.12348   23.00472 
 C                     18.51044   13.37445   23.58738 
 C                     18.30134   17.17481   21.30361 
 C                     17.6386   17.15817   22.56036 
 C                     18.262    16.15443   23.3919 
 C                     17.50718   15.42839   24.30362 
 C                     17.70176   14.02561   24.48772 
 C                     16.47238   13.41755   25.14843 
 C                     16.09767   11.98843   24.663 
 C                     14.59835   11.69089   24.23269 
 C                     14.7381   11.07737   22.86749 
 C                     13.81447   11.11166   21.87606 
 C                     14.21881   10.87503   20.52621 
 H                     15.16637   18.28421   18.37424 
 H                     17.14758   17.72878   17.1022 
 H                     19.74616   14.93744   17.1051 
 H                     20.16328   12.92859   18.38661 
 H                     12.95662   12.71248   25.16165 
 H                     14.21729   10.92201   24.91465 
 H                     11.5207   12.95923   23.48151 
 H                     11.67498   11.28924   22.01046 
 H                     16.33165   11.30543   25.4869 
 H                     16.62095   13.38734   26.23395 
 
 ITRead=  0  0  0  0  0  0  0  0  0  0  0  0  0  0  0  0  0  0  0  0
 ITRead=  0  0  0  0  0  0  0  0  0  0  0  0  0  0  0  0  0  0  0  0
 ITRead=  0  0  0  0  0  0  0  0  0  0  0  0  0  0  0  0  0  0  0  0
 ITRead=  0  0  0  0  0  0  0  0  0  0  0  0  0  0  0  0
 MicOpt= -1 -1 -1 -1 -1 -1 -1 -1 -1 -1 -1 -1 -1 -1 -1 -1 -1 -1 -1 -1
 MicOpt= -1 -1 -1 -1 -1 -1 -1 -1 -1 -1 -1 -1 -1 -1 -1 -1 -1 -1 -1 -1
 MicOpt= -1 -1 -1 -1 -1 -1 -1 -1 -1 -1 -1 -1 -1 -1 -1 -1 -1 -1 -1 -1
 MicOpt= -1 -1 -1 -1 -1 -1 -1 -1 -1 -1 -1 -1 -1 -1 -1 -1
 NAtoms=     76 NQM=       76 NQMF=       0 NMMI=      0 NMMIF=      0
                NMic=       0 NMicF=      0.
                    Isotopes and Nuclear Properties:
 (Nuclear quadrupole moments (NQMom) in fm**2, nuclear magnetic moments (NMagM)
  in nuclear magnetons)

  Atom         1           2           3           4           5           6           7           8           9          10
 IAtWgt=          12          12          12          12          12          12          12          12          12          12
 AtmWgt=  12.0000000  12.0000000  12.0000000  12.0000000  12.0000000  12.0000000  12.0000000  12.0000000  12.0000000  12.0000000
 NucSpn=           0           0           0           0           0           0           0           0           0           0
 AtZEff=  -0.0000000  -0.0000000  -0.0000000  -0.0000000  -0.0000000  -0.0000000  -0.0000000  -0.0000000  -0.0000000  -0.0000000
 NQMom=    0.0000000   0.0000000   0.0000000   0.0000000   0.0000000   0.0000000   0.0000000   0.0000000   0.0000000   0.0000000
 NMagM=    0.0000000   0.0000000   0.0000000   0.0000000   0.0000000   0.0000000   0.0000000   0.0000000   0.0000000   0.0000000
 AtZNuc=   6.0000000   6.0000000   6.0000000   6.0000000   6.0000000   6.0000000   6.0000000   6.0000000   6.0000000   6.0000000

  Atom        11          12          13          14          15          16          17          18          19          20
 IAtWgt=          12          12          12          12          12          12          12          12          12          12
 AtmWgt=  12.0000000  12.0000000  12.0000000  12.0000000  12.0000000  12.0000000  12.0000000  12.0000000  12.0000000  12.0000000
 NucSpn=           0           0           0           0           0           0           0           0           0           0
 AtZEff=  -0.0000000  -0.0000000  -0.0000000  -0.0000000  -0.0000000  -0.0000000  -0.0000000  -0.0000000  -0.0000000  -0.0000000
 NQMom=    0.0000000   0.0000000   0.0000000   0.0000000   0.0000000   0.0000000   0.0000000   0.0000000   0.0000000   0.0000000
 NMagM=    0.0000000   0.0000000   0.0000000   0.0000000   0.0000000   0.0000000   0.0000000   0.0000000   0.0000000   0.0000000
 AtZNuc=   6.0000000   6.0000000   6.0000000   6.0000000   6.0000000   6.0000000   6.0000000   6.0000000   6.0000000   6.0000000

  Atom        21          22          23          24          25          26          27          28          29          30
 IAtWgt=          12          12          12          12          12          12          12          12          12          12
 AtmWgt=  12.0000000  12.0000000  12.0000000  12.0000000  12.0000000  12.0000000  12.0000000  12.0000000  12.0000000  12.0000000
 NucSpn=           0           0           0           0           0           0           0           0           0           0
 AtZEff=  -0.0000000  -0.0000000  -0.0000000  -0.0000000  -0.0000000  -0.0000000  -0.0000000  -0.0000000  -0.0000000  -0.0000000
 NQMom=    0.0000000   0.0000000   0.0000000   0.0000000   0.0000000   0.0000000   0.0000000   0.0000000   0.0000000   0.0000000
 NMagM=    0.0000000   0.0000000   0.0000000   0.0000000   0.0000000   0.0000000   0.0000000   0.0000000   0.0000000   0.0000000
 AtZNuc=   6.0000000   6.0000000   6.0000000   6.0000000   6.0000000   6.0000000   6.0000000   6.0000000   6.0000000   6.0000000

  Atom        31          32          33          34          35          36          37          38          39          40
 IAtWgt=          12          12          12          12          12          12          12          12          12          12
 AtmWgt=  12.0000000  12.0000000  12.0000000  12.0000000  12.0000000  12.0000000  12.0000000  12.0000000  12.0000000  12.0000000
 NucSpn=           0           0           0           0           0           0           0           0           0           0
 AtZEff=  -0.0000000  -0.0000000  -0.0000000  -0.0000000  -0.0000000  -0.0000000  -0.0000000  -0.0000000  -0.0000000  -0.0000000
 NQMom=    0.0000000   0.0000000   0.0000000   0.0000000   0.0000000   0.0000000   0.0000000   0.0000000   0.0000000   0.0000000
 NMagM=    0.0000000   0.0000000   0.0000000   0.0000000   0.0000000   0.0000000   0.0000000   0.0000000   0.0000000   0.0000000
 AtZNuc=   6.0000000   6.0000000   6.0000000   6.0000000   6.0000000   6.0000000   6.0000000   6.0000000   6.0000000   6.0000000

  Atom        41          42          43          44          45          46          47          48          49          50
 IAtWgt=          12          12          12          12          12          12          12          12          12          12
 AtmWgt=  12.0000000  12.0000000  12.0000000  12.0000000  12.0000000  12.0000000  12.0000000  12.0000000  12.0000000  12.0000000
 NucSpn=           0           0           0           0           0           0           0           0           0           0
 AtZEff=  -0.0000000  -0.0000000  -0.0000000  -0.0000000  -0.0000000  -0.0000000  -0.0000000  -0.0000000  -0.0000000  -0.0000000
 NQMom=    0.0000000   0.0000000   0.0000000   0.0000000   0.0000000   0.0000000   0.0000000   0.0000000   0.0000000   0.0000000
 NMagM=    0.0000000   0.0000000   0.0000000   0.0000000   0.0000000   0.0000000   0.0000000   0.0000000   0.0000000   0.0000000
 AtZNuc=   6.0000000   6.0000000   6.0000000   6.0000000   6.0000000   6.0000000   6.0000000   6.0000000   6.0000000   6.0000000

  Atom        51          52          53          54          55          56          57          58          59          60
 IAtWgt=          12          12          12          12          12          12          12          12          12          12
 AtmWgt=  12.0000000  12.0000000  12.0000000  12.0000000  12.0000000  12.0000000  12.0000000  12.0000000  12.0000000  12.0000000
 NucSpn=           0           0           0           0           0           0           0           0           0           0
 AtZEff=  -0.0000000  -0.0000000  -0.0000000  -0.0000000  -0.0000000  -0.0000000  -0.0000000  -0.0000000  -0.0000000  -0.0000000
 NQMom=    0.0000000   0.0000000   0.0000000   0.0000000   0.0000000   0.0000000   0.0000000   0.0000000   0.0000000   0.0000000
 NMagM=    0.0000000   0.0000000   0.0000000   0.0000000   0.0000000   0.0000000   0.0000000   0.0000000   0.0000000   0.0000000
 AtZNuc=   6.0000000   6.0000000   6.0000000   6.0000000   6.0000000   6.0000000   6.0000000   6.0000000   6.0000000   6.0000000

  Atom        61          62          63          64          65          66          67          68          69          70
 IAtWgt=          12          12          12          12          12          12           1           1           1           1
 AtmWgt=  12.0000000  12.0000000  12.0000000  12.0000000  12.0000000  12.0000000   1.0078250   1.0078250   1.0078250   1.0078250
 NucSpn=           0           0           0           0           0           0           1           1           1           1
 AtZEff=  -0.0000000  -0.0000000  -0.0000000  -0.0000000  -0.0000000  -0.0000000  -0.0000000  -0.0000000  -0.0000000  -0.0000000
 NQMom=    0.0000000   0.0000000   0.0000000   0.0000000   0.0000000   0.0000000   0.0000000   0.0000000   0.0000000   0.0000000
 NMagM=    0.0000000   0.0000000   0.0000000   0.0000000   0.0000000   0.0000000   2.7928460   2.7928460   2.7928460   2.7928460
 AtZNuc=   6.0000000   6.0000000   6.0000000   6.0000000   6.0000000   6.0000000   1.0000000   1.0000000   1.0000000   1.0000000

  Atom        71          72          73          74          75          76
 IAtWgt=           1           1           1           1           1           1
 AtmWgt=   1.0078250   1.0078250   1.0078250   1.0078250   1.0078250   1.0078250
 NucSpn=           1           1           1           1           1           1
 AtZEff=  -0.0000000  -0.0000000  -0.0000000  -0.0000000  -0.0000000  -0.0000000
 NQMom=    0.0000000   0.0000000   0.0000000   0.0000000   0.0000000   0.0000000
 NMagM=    2.7928460   2.7928460   2.7928460   2.7928460   2.7928460   2.7928460
 AtZNuc=   1.0000000   1.0000000   1.0000000   1.0000000   1.0000000   1.0000000
 Leave Link  101 at Wed Jul 20 07:46:54 2022, MaxMem=  1342177280 cpu:              26.7 elap:               0.6
 (Enter /home/mkliu/g16/l103.exe)

 GradGradGradGradGradGradGradGradGradGradGradGradGradGradGradGradGradGrad
 Berny optimization.
 Initialization pass.
                           ----------------------------
                           !    Initial Parameters    !
                           ! (Angstroms and Degrees)  !
 --------------------------                            --------------------------
 ! Name  Definition              Value          Derivative Info.                !
 --------------------------------------------------------------------------------
 ! R1    R(1,2)                  1.5552         estimate D2E/DX2                !
 ! R2    R(1,41)                 1.5226         estimate D2E/DX2                !
 ! R3    R(1,65)                 1.5079         estimate D2E/DX2                !
 ! R4    R(1,74)                 1.0961         estimate D2E/DX2                !
 ! R5    R(2,3)                  1.5101         estimate D2E/DX2                !
 ! R6    R(2,8)                  1.5879         estimate D2E/DX2                !
 ! R7    R(2,73)                 1.0955         estimate D2E/DX2                !
 ! R8    R(3,4)                  1.3716         estimate D2E/DX2                !
 ! R9    R(3,5)                  1.401          estimate D2E/DX2                !
 ! R10   R(4,26)                 1.4445         estimate D2E/DX2                !
 ! R11   R(4,39)                 1.4476         estimate D2E/DX2                !
 ! R12   R(5,6)                  1.4217         estimate D2E/DX2                !
 ! R13   R(5,13)                 1.3929         estimate D2E/DX2                !
 ! R14   R(6,8)                  1.5032         estimate D2E/DX2                !
 ! R15   R(6,9)                  1.3554         estimate D2E/DX2                !
 ! R16   R(7,10)                 1.5717         estimate D2E/DX2                !
 ! R17   R(7,23)                 1.5179         estimate D2E/DX2                !
 ! R18   R(7,28)                 1.5207         estimate D2E/DX2                !
 ! R19   R(7,67)                 1.0955         estimate D2E/DX2                !
 ! R20   R(8,63)                 1.5623         estimate D2E/DX2                !
 ! R21   R(8,71)                 1.0961         estimate D2E/DX2                !
 ! R22   R(9,11)                 1.4289         estimate D2E/DX2                !
 ! R23   R(9,61)                 1.508          estimate D2E/DX2                !
 ! R24   R(10,21)                1.5021         estimate D2E/DX2                !
 ! R25   R(10,30)                1.501          estimate D2E/DX2                !
 ! R26   R(10,68)                1.0921         estimate D2E/DX2                !
 ! R27   R(11,12)                1.3914         estimate D2E/DX2                !
 ! R28   R(11,59)                1.4338         estimate D2E/DX2                !
 ! R29   R(12,13)                1.4201         estimate D2E/DX2                !
 ! R30   R(12,15)                1.4273         estimate D2E/DX2                !
 ! R31   R(13,25)                1.4339         estimate D2E/DX2                !
 ! R32   R(14,16)                1.3904         estimate D2E/DX2                !
 ! R33   R(14,45)                1.4494         estimate D2E/DX2                !
 ! R34   R(14,55)                1.4269         estimate D2E/DX2                !
 ! R35   R(15,24)                1.4506         estimate D2E/DX2                !
 ! R36   R(15,57)                1.3877         estimate D2E/DX2                !
 ! R37   R(16,17)                1.4222         estimate D2E/DX2                !
 ! R38   R(16,58)                1.4349         estimate D2E/DX2                !
 ! R39   R(17,48)                1.3892         estimate D2E/DX2                !
 ! R40   R(17,56)                1.4303         estimate D2E/DX2                !
 ! R41   R(18,19)                1.4714         estimate D2E/DX2                !
 ! R42   R(18,40)                1.3772         estimate D2E/DX2                !
 ! R43   R(18,47)                1.4506         estimate D2E/DX2                !
 ! R44   R(19,20)                1.3886         estimate D2E/DX2                !
 ! R45   R(19,51)                1.434          estimate D2E/DX2                !
 ! R46   R(20,45)                1.4672         estimate D2E/DX2                !
 ! R47   R(20,54)                1.4445         estimate D2E/DX2                !
 ! R48   R(21,22)                1.4201         estimate D2E/DX2                !
 ! R49   R(21,50)                1.3701         estimate D2E/DX2                !
 ! R50   R(22,23)                1.4304         estimate D2E/DX2                !
 ! R51   R(22,56)                1.3913         estimate D2E/DX2                !
 ! R52   R(23,24)                1.3772         estimate D2E/DX2                !
 ! R53   R(24,25)                1.4714         estimate D2E/DX2                !
 ! R54   R(25,26)                1.3886         estimate D2E/DX2                !
 ! R55   R(26,27)                1.4672         estimate D2E/DX2                !
 ! R56   R(27,28)                1.3791         estimate D2E/DX2                !
 ! R57   R(27,38)                1.4494         estimate D2E/DX2                !
 ! R58   R(28,29)                1.4309         estimate D2E/DX2                !
 ! R59   R(29,30)                1.4208         estimate D2E/DX2                !
 ! R60   R(29,35)                1.3892         estimate D2E/DX2                !
 ! R61   R(30,31)                1.3701         estimate D2E/DX2                !
 ! R62   R(31,32)                1.4201         estimate D2E/DX2                !
 ! R63   R(31,33)                1.5021         estimate D2E/DX2                !
 ! R64   R(32,34)                1.3913         estimate D2E/DX2                !
 ! R65   R(32,40)                1.4304         estimate D2E/DX2                !
 ! R66   R(33,37)                1.5717         estimate D2E/DX2                !
 ! R67   R(33,50)                1.501          estimate D2E/DX2                !
 ! R68   R(33,69)                1.0921         estimate D2E/DX2                !
 ! R69   R(34,35)                1.4303         estimate D2E/DX2                !
 ! R70   R(34,44)                1.4209         estimate D2E/DX2                !
 ! R71   R(35,36)                1.4222         estimate D2E/DX2                !
 ! R72   R(36,38)                1.3904         estimate D2E/DX2                !
 ! R73   R(36,43)                1.4349         estimate D2E/DX2                !
 ! R74   R(37,40)                1.5179         estimate D2E/DX2                !
 ! R75   R(37,46)                1.5207         estimate D2E/DX2                !
 ! R76   R(37,70)                1.0955         estimate D2E/DX2                !
 ! R77   R(38,39)                1.427          estimate D2E/DX2                !
 ! R78   R(39,41)                1.3743         estimate D2E/DX2                !
 ! R79   R(41,42)                1.4281         estimate D2E/DX2                !
 ! R80   R(42,43)                1.3886         estimate D2E/DX2                !
 ! R81   R(42,66)                1.4338         estimate D2E/DX2                !
 ! R82   R(43,44)                1.4449         estimate D2E/DX2                !
 ! R83   R(44,47)                1.3877         estimate D2E/DX2                !
 ! R84   R(45,46)                1.3791         estimate D2E/DX2                !
 ! R85   R(46,48)                1.4309         estimate D2E/DX2                !
 ! R86   R(47,49)                1.4273         estimate D2E/DX2                !
 ! R87   R(48,50)                1.4208         estimate D2E/DX2                !
 ! R88   R(49,51)                1.4201         estimate D2E/DX2                !
 ! R89   R(49,66)                1.3914         estimate D2E/DX2                !
 ! R90   R(51,52)                1.3929         estimate D2E/DX2                !
 ! R91   R(52,53)                1.401          estimate D2E/DX2                !
 ! R92   R(52,64)                1.4217         estimate D2E/DX2                !
 ! R93   R(53,54)                1.3715         estimate D2E/DX2                !
 ! R94   R(53,62)                1.5101         estimate D2E/DX2                !
 ! R95   R(54,55)                1.4476         estimate D2E/DX2                !
 ! R96   R(55,60)                1.3743         estimate D2E/DX2                !
 ! R97   R(56,57)                1.4209         estimate D2E/DX2                !
 ! R98   R(57,58)                1.4448         estimate D2E/DX2                !
 ! R99   R(58,59)                1.3886         estimate D2E/DX2                !
 ! R100  R(59,60)                1.4281         estimate D2E/DX2                !
 ! R101  R(60,61)                1.5224         estimate D2E/DX2                !
 ! R102  R(61,62)                1.5551         estimate D2E/DX2                !
 ! R103  R(61,76)                1.0961         estimate D2E/DX2                !
 ! R104  R(62,63)                1.588          estimate D2E/DX2                !
 ! R105  R(62,75)                1.0955         estimate D2E/DX2                !
 ! R106  R(63,64)                1.5032         estimate D2E/DX2                !
 ! R107  R(63,72)                1.0961         estimate D2E/DX2                !
 ! R108  R(64,65)                1.3554         estimate D2E/DX2                !
 ! R109  R(65,66)                1.4288         estimate D2E/DX2                !
 ! A1    A(2,1,41)             115.2281         estimate D2E/DX2                !
 ! A2    A(2,1,65)             113.5982         estimate D2E/DX2                !
 ! A3    A(2,1,74)             108.4571         estimate D2E/DX2                !
 ! A4    A(41,1,65)             99.5493         estimate D2E/DX2                !
 ! A5    A(41,1,74)            109.3455         estimate D2E/DX2                !
 ! A6    A(65,1,74)            110.3933         estimate D2E/DX2                !
 ! A7    A(1,2,3)              112.1742         estimate D2E/DX2                !
 ! A8    A(1,2,8)              118.9712         estimate D2E/DX2                !
 ! A9    A(1,2,73)             106.658          estimate D2E/DX2                !
 ! A10   A(3,2,8)              103.7442         estimate D2E/DX2                !
 ! A11   A(3,2,73)             108.0198         estimate D2E/DX2                !
 ! A12   A(8,2,73)             106.7756         estimate D2E/DX2                !
 ! A13   A(2,3,4)              127.2977         estimate D2E/DX2                !
 ! A14   A(2,3,5)              110.8819         estimate D2E/DX2                !
 ! A15   A(4,3,5)              117.7282         estimate D2E/DX2                !
 ! A16   A(3,4,26)             123.299          estimate D2E/DX2                !
 ! A17   A(3,4,39)             118.3844         estimate D2E/DX2                !
 ! A18   A(26,4,39)            108.877          estimate D2E/DX2                !
 ! A19   A(3,5,6)              109.174          estimate D2E/DX2                !
 ! A20   A(3,5,13)             120.087          estimate D2E/DX2                !
 ! A21   A(6,5,13)             122.3089         estimate D2E/DX2                !
 ! A22   A(5,6,8)              110.9623         estimate D2E/DX2                !
 ! A23   A(5,6,9)              119.2615         estimate D2E/DX2                !
 ! A24   A(8,6,9)              126.2038         estimate D2E/DX2                !
 ! A25   A(10,7,23)            104.3528         estimate D2E/DX2                !
 ! A26   A(10,7,28)            104.5899         estimate D2E/DX2                !
 ! A27   A(10,7,67)            112.4914         estimate D2E/DX2                !
 ! A28   A(23,7,28)            114.5844         estimate D2E/DX2                !
 ! A29   A(23,7,67)            110.3996         estimate D2E/DX2                !
 ! A30   A(28,7,67)            110.2158         estimate D2E/DX2                !
 ! A31   A(2,8,6)              103.5797         estimate D2E/DX2                !
 ! A32   A(2,8,63)             119.3889         estimate D2E/DX2                !
 ! A33   A(2,8,71)             106.9345         estimate D2E/DX2                !
 ! A34   A(6,8,63)             112.0588         estimate D2E/DX2                !
 ! A35   A(6,8,71)             108.1212         estimate D2E/DX2                !
 ! A36   A(63,8,71)            106.271          estimate D2E/DX2                !
 ! A37   A(6,9,11)             119.6013         estimate D2E/DX2                !
 ! A38   A(6,9,61)             124.7383         estimate D2E/DX2                !
 ! A39   A(11,9,61)            110.2148         estimate D2E/DX2                !
 ! A40   A(7,10,21)            104.7785         estimate D2E/DX2                !
 ! A41   A(7,10,30)            104.7015         estimate D2E/DX2                !
 ! A42   A(7,10,68)            113.089          estimate D2E/DX2                !
 ! A43   A(21,10,30)           106.4302         estimate D2E/DX2                !
 ! A44   A(21,10,68)           113.4965         estimate D2E/DX2                !
 ! A45   A(30,10,68)           113.5186         estimate D2E/DX2                !
 ! A46   A(9,11,12)            121.2526         estimate D2E/DX2                !
 ! A47   A(9,11,59)            108.4271         estimate D2E/DX2                !
 ! A48   A(12,11,59)           119.3183         estimate D2E/DX2                !
 ! A49   A(11,12,13)           119.3176         estimate D2E/DX2                !
 ! A50   A(11,12,15)           121.5553         estimate D2E/DX2                !
 ! A51   A(13,12,15)           107.7028         estimate D2E/DX2                !
 ! A52   A(5,13,12)            117.942          estimate D2E/DX2                !
 ! A53   A(5,13,25)            122.5543         estimate D2E/DX2                !
 ! A54   A(12,13,25)           109.85           estimate D2E/DX2                !
 ! A55   A(16,14,45)           121.5954         estimate D2E/DX2                !
 ! A56   A(16,14,55)           119.4782         estimate D2E/DX2                !
 ! A57   A(45,14,55)           109.999          estimate D2E/DX2                !
 ! A58   A(12,15,24)           109.0163         estimate D2E/DX2                !
 ! A59   A(12,15,57)           118.748          estimate D2E/DX2                !
 ! A60   A(24,15,57)           122.4239         estimate D2E/DX2                !
 ! A61   A(14,16,17)           118.102          estimate D2E/DX2                !
 ! A62   A(14,16,58)           118.8704         estimate D2E/DX2                !
 ! A63   A(17,16,58)           108.5662         estimate D2E/DX2                !
 ! A64   A(16,17,48)           119.8333         estimate D2E/DX2                !
 ! A65   A(16,17,56)           108.0755         estimate D2E/DX2                !
 ! A66   A(48,17,56)           118.8425         estimate D2E/DX2                !
 ! A67   A(19,18,40)           128.7585         estimate D2E/DX2                !
 ! A68   A(19,18,47)           106.5569         estimate D2E/DX2                !
 ! A69   A(40,18,47)           118.7636         estimate D2E/DX2                !
 ! A70   A(18,19,20)           128.47           estimate D2E/DX2                !
 ! A71   A(18,19,51)           106.7845         estimate D2E/DX2                !
 ! A72   A(20,19,51)           117.0603         estimate D2E/DX2                !
 ! A73   A(19,20,45)           127.1023         estimate D2E/DX2                !
 ! A74   A(19,20,54)           118.8553         estimate D2E/DX2                !
 ! A75   A(45,20,54)           107.541          estimate D2E/DX2                !
 ! A76   A(10,21,22)           109.2019         estimate D2E/DX2                !
 ! A77   A(10,21,50)           123.9429         estimate D2E/DX2                !
 ! A78   A(22,21,50)           119.5937         estimate D2E/DX2                !
 ! A79   A(21,22,23)           109.9482         estimate D2E/DX2                !
 ! A80   A(21,22,56)           119.6166         estimate D2E/DX2                !
 ! A81   A(23,22,56)           122.2175         estimate D2E/DX2                !
 ! A82   A(7,23,22)            108.9682         estimate D2E/DX2                !
 ! A83   A(7,23,24)            129.8146         estimate D2E/DX2                !
 ! A84   A(22,23,24)           118.2807         estimate D2E/DX2                !
 ! A85   A(15,24,23)           118.7633         estimate D2E/DX2                !
 ! A86   A(15,24,25)           106.5567         estimate D2E/DX2                !
 ! A87   A(23,24,25)           128.759          estimate D2E/DX2                !
 ! A88   A(13,25,24)           106.7854         estimate D2E/DX2                !
 ! A89   A(13,25,26)           117.0592         estimate D2E/DX2                !
 ! A90   A(24,25,26)           128.4724         estimate D2E/DX2                !
 ! A91   A(4,26,25)            118.8589         estimate D2E/DX2                !
 ! A92   A(4,26,27)            107.541          estimate D2E/DX2                !
 ! A93   A(25,26,27)           127.1            estimate D2E/DX2                !
 ! A94   A(26,27,28)           128.8568         estimate D2E/DX2                !
 ! A95   A(26,27,38)           106.4            estimate D2E/DX2                !
 ! A96   A(28,27,38)           119.271          estimate D2E/DX2                !
 ! A97   A(7,28,27)            130.5183         estimate D2E/DX2                !
 ! A98   A(7,28,29)            108.5229         estimate D2E/DX2                !
 ! A99   A(27,28,29)           118.2195         estimate D2E/DX2                !
 ! A100  A(28,29,30)           110.1473         estimate D2E/DX2                !
 ! A101  A(28,29,35)           122.0517         estimate D2E/DX2                !
 ! A102  A(30,29,35)           119.6584         estimate D2E/DX2                !
 ! A103  A(10,30,29)           109.1872         estimate D2E/DX2                !
 ! A104  A(10,30,31)           123.9281         estimate D2E/DX2                !
 ! A105  A(29,30,31)           119.612          estimate D2E/DX2                !
 ! A106  A(30,31,32)           119.5927         estimate D2E/DX2                !
 ! A107  A(30,31,33)           123.9431         estimate D2E/DX2                !
 ! A108  A(32,31,33)           109.2016         estimate D2E/DX2                !
 ! A109  A(31,32,34)           119.6161         estimate D2E/DX2                !
 ! A110  A(31,32,40)           109.9492         estimate D2E/DX2                !
 ! A111  A(34,32,40)           122.2177         estimate D2E/DX2                !
 ! A112  A(31,33,37)           104.779          estimate D2E/DX2                !
 ! A113  A(31,33,50)           106.4302         estimate D2E/DX2                !
 ! A114  A(31,33,69)           113.4968         estimate D2E/DX2                !
 ! A115  A(37,33,50)           104.7015         estimate D2E/DX2                !
 ! A116  A(37,33,69)           113.0887         estimate D2E/DX2                !
 ! A117  A(50,33,69)           113.5182         estimate D2E/DX2                !
 ! A118  A(32,34,35)           118.9308         estimate D2E/DX2                !
 ! A119  A(32,34,44)           119.8591         estimate D2E/DX2                !
 ! A120  A(35,34,44)           107.9335         estimate D2E/DX2                !
 ! A121  A(29,35,34)           118.8418         estimate D2E/DX2                !
 ! A122  A(29,35,36)           119.8348         estimate D2E/DX2                !
 ! A123  A(34,35,36)           108.0755         estimate D2E/DX2                !
 ! A124  A(35,36,38)           118.102          estimate D2E/DX2                !
 ! A125  A(35,36,43)           108.5671         estimate D2E/DX2                !
 ! A126  A(38,36,43)           118.8711         estimate D2E/DX2                !
 ! A127  A(33,37,40)           104.3528         estimate D2E/DX2                !
 ! A128  A(33,37,46)           104.5897         estimate D2E/DX2                !
 ! A129  A(33,37,70)           112.4909         estimate D2E/DX2                !
 ! A130  A(40,37,46)           114.5841         estimate D2E/DX2                !
 ! A131  A(40,37,70)           110.4            estimate D2E/DX2                !
 ! A132  A(46,37,70)           110.2163         estimate D2E/DX2                !
 ! A133  A(27,38,36)           121.5937         estimate D2E/DX2                !
 ! A134  A(27,38,39)           109.9991         estimate D2E/DX2                !
 ! A135  A(36,38,39)           119.4782         estimate D2E/DX2                !
 ! A136  A(4,39,38)            107.1106         estimate D2E/DX2                !
 ! A137  A(4,39,41)            119.7024         estimate D2E/DX2                !
 ! A138  A(38,39,41)           121.8724         estimate D2E/DX2                !
 ! A139  A(18,40,32)           118.2793         estimate D2E/DX2                !
 ! A140  A(18,40,37)           129.8167         estimate D2E/DX2                !
 ! A141  A(32,40,37)           108.9676         estimate D2E/DX2                !
 ! A142  A(1,41,39)            124.7636         estimate D2E/DX2                !
 ! A143  A(1,41,42)            109.7632         estimate D2E/DX2                !
 ! A144  A(39,41,42)           117.4588         estimate D2E/DX2                !
 ! A145  A(41,42,43)           121.6125         estimate D2E/DX2                !
 ! A146  A(41,42,66)           107.3111         estimate D2E/DX2                !
 ! A147  A(43,42,66)           119.4496         estimate D2E/DX2                !
 ! A148  A(36,43,42)           119.2422         estimate D2E/DX2                !
 ! A149  A(36,43,44)           106.6092         estimate D2E/DX2                !
 ! A150  A(42,43,44)           120.4375         estimate D2E/DX2                !
 ! A151  A(34,44,43)           108.4184         estimate D2E/DX2                !
 ! A152  A(34,44,47)           117.5996         estimate D2E/DX2                !
 ! A153  A(43,44,47)           119.7365         estimate D2E/DX2                !
 ! A154  A(14,45,20)           106.3997         estimate D2E/DX2                !
 ! A155  A(14,45,46)           119.2702         estimate D2E/DX2                !
 ! A156  A(20,45,46)           128.8579         estimate D2E/DX2                !
 ! A157  A(37,46,45)           130.5165         estimate D2E/DX2                !
 ! A158  A(37,46,48)           108.5237         estimate D2E/DX2                !
 ! A159  A(45,46,48)           118.219          estimate D2E/DX2                !
 ! A160  A(18,47,44)           122.4249         estimate D2E/DX2                !
 ! A161  A(18,47,49)           109.0157         estimate D2E/DX2                !
 ! A162  A(44,47,49)           118.7467         estimate D2E/DX2                !
 ! A163  A(17,48,46)           122.0533         estimate D2E/DX2                !
 ! A164  A(17,48,50)           119.6586         estimate D2E/DX2                !
 ! A165  A(46,48,50)           110.1468         estimate D2E/DX2                !
 ! A166  A(47,49,51)           107.7038         estimate D2E/DX2                !
 ! A167  A(47,49,66)           121.5541         estimate D2E/DX2                !
 ! A168  A(51,49,66)           119.318          estimate D2E/DX2                !
 ! A169  A(21,50,33)           123.9281         estimate D2E/DX2                !
 ! A170  A(21,50,48)           119.6107         estimate D2E/DX2                !
 ! A171  A(33,50,48)           109.1879         estimate D2E/DX2                !
 ! A172  A(19,51,49)           109.8503         estimate D2E/DX2                !
 ! A173  A(19,51,52)           122.5557         estimate D2E/DX2                !
 ! A174  A(49,51,52)           117.9418         estimate D2E/DX2                !
 ! A175  A(51,52,53)           120.0838         estimate D2E/DX2                !
 ! A176  A(51,52,64)           122.311          estimate D2E/DX2                !
 ! A177  A(53,52,64)           109.1732         estimate D2E/DX2                !
 ! A178  A(52,53,54)           117.7304         estimate D2E/DX2                !
 ! A179  A(52,53,62)           110.8843         estimate D2E/DX2                !
 ! A180  A(54,53,62)           127.2951         estimate D2E/DX2                !
 ! A181  A(20,54,53)           123.3014         estimate D2E/DX2                !
 ! A182  A(20,54,55)           108.8766         estimate D2E/DX2                !
 ! A183  A(53,54,55)           118.3787         estimate D2E/DX2                !
 ! A184  A(14,55,54)           107.1114         estimate D2E/DX2                !
 ! A185  A(14,55,60)           121.8726         estimate D2E/DX2                !
 ! A186  A(54,55,60)           119.7033         estimate D2E/DX2                !
 ! A187  A(17,56,22)           118.9298         estimate D2E/DX2                !
 ! A188  A(17,56,57)           107.9344         estimate D2E/DX2                !
 ! A189  A(22,56,57)           119.8579         estimate D2E/DX2                !
 ! A190  A(15,57,56)           117.6006         estimate D2E/DX2                !
 ! A191  A(15,57,58)           119.7339         estimate D2E/DX2                !
 ! A192  A(56,57,58)           108.4173         estimate D2E/DX2                !
 ! A193  A(16,58,57)           106.6105         estimate D2E/DX2                !
 ! A194  A(16,58,59)           119.2431         estimate D2E/DX2                !
 ! A195  A(57,58,59)           120.4362         estimate D2E/DX2                !
 ! A196  A(11,59,58)           119.4541         estimate D2E/DX2                !
 ! A197  A(11,59,60)           107.308          estimate D2E/DX2                !
 ! A198  A(58,59,60)           121.6115         estimate D2E/DX2                !
 ! A199  A(55,60,59)           117.4611         estimate D2E/DX2                !
 ! A200  A(55,60,61)           124.7689         estimate D2E/DX2                !
 ! A201  A(59,60,61)           109.7698         estimate D2E/DX2                !
 ! A202  A(9,61,60)             99.5477         estimate D2E/DX2                !
 ! A203  A(9,61,62)            113.6019         estimate D2E/DX2                !
 ! A204  A(9,61,76)            110.3968         estimate D2E/DX2                !
 ! A205  A(60,61,62)           115.2238         estimate D2E/DX2                !
 ! A206  A(60,61,76)           109.3523         estimate D2E/DX2                !
 ! A207  A(62,61,76)           108.4503         estimate D2E/DX2                !
 ! A208  A(53,62,61)           112.1778         estimate D2E/DX2                !
 ! A209  A(53,62,63)           103.742          estimate D2E/DX2                !
 ! A210  A(53,62,75)           108.0195         estimate D2E/DX2                !
 ! A211  A(61,62,63)           118.9648         estimate D2E/DX2                !
 ! A212  A(61,62,75)           106.6619         estimate D2E/DX2                !
 ! A213  A(63,62,75)           106.7772         estimate D2E/DX2                !
 ! A214  A(8,63,62)            119.3972         estimate D2E/DX2                !
 ! A215  A(8,63,64)            112.0677         estimate D2E/DX2                !
 ! A216  A(8,63,72)            106.263          estimate D2E/DX2                !
 ! A217  A(62,63,64)           103.5795         estimate D2E/DX2                !
 ! A218  A(62,63,72)           106.9229         estimate D2E/DX2                !
 ! A219  A(64,63,72)           108.123          estimate D2E/DX2                !
 ! A220  A(52,64,63)           110.9632         estimate D2E/DX2                !
 ! A221  A(52,64,65)           119.2573         estimate D2E/DX2                !
 ! A222  A(63,64,65)           126.2001         estimate D2E/DX2                !
 ! A223  A(1,65,64)            124.7431         estimate D2E/DX2                !
 ! A224  A(1,65,66)            110.2188         estimate D2E/DX2                !
 ! A225  A(64,65,66)           119.6029         estimate D2E/DX2                !
 ! A226  A(42,66,49)           119.3225         estimate D2E/DX2                !
 ! A227  A(42,66,65)           108.4276         estimate D2E/DX2                !
 ! A228  A(49,66,65)           121.252          estimate D2E/DX2                !
 ! D1    D(41,1,2,3)            -9.1843         estimate D2E/DX2                !
 ! D2    D(41,1,2,8)          -130.4435         estimate D2E/DX2                !
 ! D3    D(41,1,2,73)          108.8912         estimate D2E/DX2                !
 ! D4    D(65,1,2,3)           104.7665         estimate D2E/DX2                !
 ! D5    D(65,1,2,8)           -16.4926         estimate D2E/DX2                !
 ! D6    D(65,1,2,73)         -137.1579         estimate D2E/DX2                !
 ! D7    D(74,1,2,3)          -132.0934         estimate D2E/DX2                !
 ! D8    D(74,1,2,8)           106.6475         estimate D2E/DX2                !
 ! D9    D(74,1,2,73)          -14.0178         estimate D2E/DX2                !
 ! D10   D(2,1,41,39)           -4.1421         estimate D2E/DX2                !
 ! D11   D(2,1,41,42)          143.6163         estimate D2E/DX2                !
 ! D12   D(65,1,41,39)        -126.0133         estimate D2E/DX2                !
 ! D13   D(65,1,41,42)          21.7451         estimate D2E/DX2                !
 ! D14   D(74,1,41,39)         118.2926         estimate D2E/DX2                !
 ! D15   D(74,1,41,42)         -93.949          estimate D2E/DX2                !
 ! D16   D(2,1,65,64)           12.1918         estimate D2E/DX2                !
 ! D17   D(2,1,65,66)         -141.455          estimate D2E/DX2                !
 ! D18   D(41,1,65,64)         135.2264         estimate D2E/DX2                !
 ! D19   D(41,1,65,66)         -18.4204         estimate D2E/DX2                !
 ! D20   D(74,1,65,64)        -109.8808         estimate D2E/DX2                !
 ! D21   D(74,1,65,66)          96.4724         estimate D2E/DX2                !
 ! D22   D(1,2,3,4)             16.9837         estimate D2E/DX2                !
 ! D23   D(1,2,3,5)           -139.4516         estimate D2E/DX2                !
 ! D24   D(8,2,3,4)            146.6385         estimate D2E/DX2                !
 ! D25   D(8,2,3,5)             -9.7968         estimate D2E/DX2                !
 ! D26   D(73,2,3,4)          -100.281          estimate D2E/DX2                !
 ! D27   D(73,2,3,5)           103.2838         estimate D2E/DX2                !
 ! D28   D(1,2,8,6)            127.8933         estimate D2E/DX2                !
 ! D29   D(1,2,8,63)             2.48           estimate D2E/DX2                !
 ! D30   D(1,2,8,71)          -118.0259         estimate D2E/DX2                !
 ! D31   D(3,2,8,6)              2.4748         estimate D2E/DX2                !
 ! D32   D(3,2,8,63)          -122.9385         estimate D2E/DX2                !
 ! D33   D(3,2,8,71)           116.5556         estimate D2E/DX2                !
 ! D34   D(73,2,8,6)          -111.5011         estimate D2E/DX2                !
 ! D35   D(73,2,8,63)          123.0856         estimate D2E/DX2                !
 ! D36   D(73,2,8,71)            2.5797         estimate D2E/DX2                !
 ! D37   D(2,3,4,26)          -152.6011         estimate D2E/DX2                !
 ! D38   D(2,3,4,39)            -9.9538         estimate D2E/DX2                !
 ! D39   D(5,3,4,26)             2.4389         estimate D2E/DX2                !
 ! D40   D(5,3,4,39)           145.0862         estimate D2E/DX2                !
 ! D41   D(2,3,5,6)             13.6825         estimate D2E/DX2                !
 ! D42   D(2,3,5,13)           162.4927         estimate D2E/DX2                !
 ! D43   D(4,3,5,6)           -145.2611         estimate D2E/DX2                !
 ! D44   D(4,3,5,13)             3.5491         estimate D2E/DX2                !
 ! D45   D(3,4,26,25)           -5.2445         estimate D2E/DX2                !
 ! D46   D(3,4,26,27)          148.4601         estimate D2E/DX2                !
 ! D47   D(39,4,26,25)        -150.9033         estimate D2E/DX2                !
 ! D48   D(39,4,26,27)           2.8013         estimate D2E/DX2                !
 ! D49   D(3,4,39,38)         -149.8489         estimate D2E/DX2                !
 ! D50   D(3,4,39,41)           -5.5903         estimate D2E/DX2                !
 ! D51   D(26,4,39,38)          -2.256          estimate D2E/DX2                !
 ! D52   D(26,4,39,41)         142.0026         estimate D2E/DX2                !
 ! D53   D(3,5,6,8)            -11.9338         estimate D2E/DX2                !
 ! D54   D(3,5,6,9)            148.066          estimate D2E/DX2                !
 ! D55   D(13,5,6,8)          -159.916          estimate D2E/DX2                !
 ! D56   D(13,5,6,9)             0.0838         estimate D2E/DX2                !
 ! D57   D(3,5,13,12)         -149.5538         estimate D2E/DX2                !
 ! D58   D(3,5,13,25)           -6.9332         estimate D2E/DX2                !
 ! D59   D(6,5,13,12)           -4.9163         estimate D2E/DX2                !
 ! D60   D(6,5,13,25)          137.7043         estimate D2E/DX2                !
 ! D61   D(5,6,8,2)              5.4029         estimate D2E/DX2                !
 ! D62   D(5,6,8,63)           135.3893         estimate D2E/DX2                !
 ! D63   D(5,6,8,71)          -107.8221         estimate D2E/DX2                !
 ! D64   D(9,6,8,2)           -152.8953         estimate D2E/DX2                !
 ! D65   D(9,6,8,63)           -22.9089         estimate D2E/DX2                !
 ! D66   D(9,6,8,71)            93.8797         estimate D2E/DX2                !
 ! D67   D(5,6,9,11)             3.517          estimate D2E/DX2                !
 ! D68   D(5,6,9,61)          -147.8304         estimate D2E/DX2                !
 ! D69   D(8,6,9,11)           160.2006         estimate D2E/DX2                !
 ! D70   D(8,6,9,61)             8.8531         estimate D2E/DX2                !
 ! D71   D(23,7,10,21)           4.7329         estimate D2E/DX2                !
 ! D72   D(23,7,10,30)         116.5498         estimate D2E/DX2                !
 ! D73   D(23,7,10,68)        -119.3715         estimate D2E/DX2                !
 ! D74   D(28,7,10,21)        -115.9542         estimate D2E/DX2                !
 ! D75   D(28,7,10,30)          -4.1373         estimate D2E/DX2                !
 ! D76   D(28,7,10,68)         119.9414         estimate D2E/DX2                !
 ! D77   D(67,7,10,21)         124.4263         estimate D2E/DX2                !
 ! D78   D(67,7,10,30)        -123.7568         estimate D2E/DX2                !
 ! D79   D(67,7,10,68)           0.3218         estimate D2E/DX2                !
 ! D80   D(10,7,23,22)           5.4211         estimate D2E/DX2                !
 ! D81   D(10,7,23,24)        -154.4218         estimate D2E/DX2                !
 ! D82   D(28,7,23,22)         119.187          estimate D2E/DX2                !
 ! D83   D(28,7,23,24)         -40.6559         estimate D2E/DX2                !
 ! D84   D(67,7,23,22)        -115.6732         estimate D2E/DX2                !
 ! D85   D(67,7,23,24)          84.4838         estimate D2E/DX2                !
 ! D86   D(10,7,28,27)         154.2622         estimate D2E/DX2                !
 ! D87   D(10,7,28,29)          -6.1838         estimate D2E/DX2                !
 ! D88   D(23,7,28,27)          40.6357         estimate D2E/DX2                !
 ! D89   D(23,7,28,29)        -119.8103         estimate D2E/DX2                !
 ! D90   D(67,7,28,27)         -84.6005         estimate D2E/DX2                !
 ! D91   D(67,7,28,29)         114.9536         estimate D2E/DX2                !
 ! D92   D(2,8,63,62)          137.2427         estimate D2E/DX2                !
 ! D93   D(2,8,63,64)           15.9638         estimate D2E/DX2                !
 ! D94   D(2,8,63,72)         -101.9343         estimate D2E/DX2                !
 ! D95   D(6,8,63,62)           15.9782         estimate D2E/DX2                !
 ! D96   D(6,8,63,64)         -105.3007         estimate D2E/DX2                !
 ! D97   D(6,8,63,72)          136.8012         estimate D2E/DX2                !
 ! D98   D(71,8,63,62)        -101.9178         estimate D2E/DX2                !
 ! D99   D(71,8,63,64)         136.8033         estimate D2E/DX2                !
 ! D100  D(71,8,63,72)          18.9052         estimate D2E/DX2                !
 ! D101  D(6,9,11,12)           -2.2563         estimate D2E/DX2                !
 ! D102  D(6,9,11,59)         -145.9567         estimate D2E/DX2                !
 ! D103  D(61,9,11,12)         152.9157         estimate D2E/DX2                !
 ! D104  D(61,9,11,59)           9.2152         estimate D2E/DX2                !
 ! D105  D(6,9,61,60)          135.2011         estimate D2E/DX2                !
 ! D106  D(6,9,61,62)           12.1709         estimate D2E/DX2                !
 ! D107  D(6,9,61,76)         -109.898          estimate D2E/DX2                !
 ! D108  D(11,9,61,60)         -18.4216         estimate D2E/DX2                !
 ! D109  D(11,9,61,62)        -141.4518         estimate D2E/DX2                !
 ! D110  D(11,9,61,76)          96.4793         estimate D2E/DX2                !
 ! D111  D(7,10,21,22)         -13.5152         estimate D2E/DX2                !
 ! D112  D(7,10,21,50)         136.3408         estimate D2E/DX2                !
 ! D113  D(30,10,21,22)       -124.0903         estimate D2E/DX2                !
 ! D114  D(30,10,21,50)         25.7657         estimate D2E/DX2                !
 ! D115  D(68,10,21,22)        110.329          estimate D2E/DX2                !
 ! D116  D(68,10,21,50)        -99.8151         estimate D2E/DX2                !
 ! D117  D(7,10,30,29)          13.2781         estimate D2E/DX2                !
 ! D118  D(7,10,30,31)        -136.5624         estimate D2E/DX2                !
 ! D119  D(21,10,30,29)        123.9071         estimate D2E/DX2                !
 ! D120  D(21,10,30,31)        -25.9334         estimate D2E/DX2                !
 ! D121  D(68,10,30,29)       -110.5256         estimate D2E/DX2                !
 ! D122  D(68,10,30,31)         99.6339         estimate D2E/DX2                !
 ! D123  D(9,11,12,13)          -2.6615         estimate D2E/DX2                !
 ! D124  D(9,11,12,15)        -141.6122         estimate D2E/DX2                !
 ! D125  D(59,11,12,13)        137.2357         estimate D2E/DX2                !
 ! D126  D(59,11,12,15)         -1.715          estimate D2E/DX2                !
 ! D127  D(9,11,59,58)         149.0101         estimate D2E/DX2                !
 ! D128  D(9,11,59,60)           5.2562         estimate D2E/DX2                !
 ! D129  D(12,11,59,58)          4.4921         estimate D2E/DX2                !
 ! D130  D(12,11,59,60)       -139.2618         estimate D2E/DX2                !
 ! D131  D(11,12,13,5)           6.0698         estimate D2E/DX2                !
 ! D132  D(11,12,13,25)       -140.9719         estimate D2E/DX2                !
 ! D133  D(15,12,13,5)         150.0956         estimate D2E/DX2                !
 ! D134  D(15,12,13,25)          3.054          estimate D2E/DX2                !
 ! D135  D(11,12,15,24)        141.0358         estimate D2E/DX2                !
 ! D136  D(11,12,15,57)         -5.6764         estimate D2E/DX2                !
 ! D137  D(13,12,15,24)         -2.0185         estimate D2E/DX2                !
 ! D138  D(13,12,15,57)       -148.7307         estimate D2E/DX2                !
 ! D139  D(5,13,25,24)        -148.1006         estimate D2E/DX2                !
 ! D140  D(5,13,25,26)           4.0017         estimate D2E/DX2                !
 ! D141  D(12,13,25,24)         -2.8644         estimate D2E/DX2                !
 ! D142  D(12,13,25,26)        149.2379         estimate D2E/DX2                !
 ! D143  D(45,14,16,17)         -3.0997         estimate D2E/DX2                !
 ! D144  D(45,14,16,58)        131.8594         estimate D2E/DX2                !
 ! D145  D(55,14,16,17)       -147.0907         estimate D2E/DX2                !
 ! D146  D(55,14,16,58)        -12.1316         estimate D2E/DX2                !
 ! D147  D(16,14,45,20)       -146.13           estimate D2E/DX2                !
 ! D148  D(16,14,45,46)         10.0301         estimate D2E/DX2                !
 ! D149  D(55,14,45,20)          0.8696         estimate D2E/DX2                !
 ! D150  D(55,14,45,46)        157.0296         estimate D2E/DX2                !
 ! D151  D(16,14,55,54)        148.6349         estimate D2E/DX2                !
 ! D152  D(16,14,55,60)          5.3202         estimate D2E/DX2                !
 ! D153  D(45,14,55,54)          0.8365         estimate D2E/DX2                !
 ! D154  D(45,14,55,60)       -142.4783         estimate D2E/DX2                !
 ! D155  D(12,15,24,23)       -154.9955         estimate D2E/DX2                !
 ! D156  D(12,15,24,25)          0.2682         estimate D2E/DX2                !
 ! D157  D(57,15,24,23)         -9.7505         estimate D2E/DX2                !
 ! D158  D(57,15,24,25)        145.5132         estimate D2E/DX2                !
 ! D159  D(12,15,57,56)        145.2928         estimate D2E/DX2                !
 ! D160  D(12,15,57,58)         10.1252         estimate D2E/DX2                !
 ! D161  D(24,15,57,56)          3.2248         estimate D2E/DX2                !
 ! D162  D(24,15,57,58)       -131.9428         estimate D2E/DX2                !
 ! D163  D(14,16,17,48)         -5.0964         estimate D2E/DX2                !
 ! D164  D(14,16,17,56)        135.45           estimate D2E/DX2                !
 ! D165  D(58,16,17,48)       -144.2764         estimate D2E/DX2                !
 ! D166  D(58,16,17,56)         -3.73           estimate D2E/DX2                !
 ! D167  D(14,16,58,57)       -132.7074         estimate D2E/DX2                !
 ! D168  D(14,16,58,59)          7.9047         estimate D2E/DX2                !
 ! D169  D(17,16,58,57)          6.1101         estimate D2E/DX2                !
 ! D170  D(17,16,58,59)        146.7222         estimate D2E/DX2                !
 ! D171  D(16,17,48,46)          6.7009         estimate D2E/DX2                !
 ! D172  D(16,17,48,50)        152.2084         estimate D2E/DX2                !
 ! D173  D(56,17,48,46)       -129.6972         estimate D2E/DX2                !
 ! D174  D(56,17,48,50)         15.8103         estimate D2E/DX2                !
 ! D175  D(16,17,56,22)       -141.1601         estimate D2E/DX2                !
 ! D176  D(16,17,56,57)         -0.1942         estimate D2E/DX2                !
 ! D177  D(48,17,56,22)         -0.1591         estimate D2E/DX2                !
 ! D178  D(48,17,56,57)        140.8068         estimate D2E/DX2                !
 ! D179  D(40,18,19,20)          5.656          estimate D2E/DX2                !
 ! D180  D(40,18,19,51)        153.497          estimate D2E/DX2                !
 ! D181  D(47,18,19,20)       -146.2838         estimate D2E/DX2                !
 ! D182  D(47,18,19,51)          1.5572         estimate D2E/DX2                !
 ! D183  D(19,18,40,32)       -141.151          estimate D2E/DX2                !
 ! D184  D(19,18,40,37)         17.1296         estimate D2E/DX2                !
 ! D185  D(47,18,40,32)          7.8943         estimate D2E/DX2                !
 ! D186  D(47,18,40,37)        166.1749         estimate D2E/DX2                !
 ! D187  D(19,18,47,44)        145.5136         estimate D2E/DX2                !
 ! D188  D(19,18,47,49)          0.2705         estimate D2E/DX2                !
 ! D189  D(40,18,47,44)         -9.7501         estimate D2E/DX2                !
 ! D190  D(40,18,47,49)       -154.9931         estimate D2E/DX2                !
 ! D191  D(18,19,20,45)         -1.0176         estimate D2E/DX2                !
 ! D192  D(18,19,20,54)        147.0009         estimate D2E/DX2                !
 ! D193  D(51,19,20,45)       -146.1111         estimate D2E/DX2                !
 ! D194  D(51,19,20,54)          1.9074         estimate D2E/DX2                !
 ! D195  D(18,19,51,49)         -2.8631         estimate D2E/DX2                !
 ! D196  D(18,19,51,52)       -148.1016         estimate D2E/DX2                !
 ! D197  D(20,19,51,49)        149.2348         estimate D2E/DX2                !
 ! D198  D(20,19,51,52)          3.9964         estimate D2E/DX2                !
 ! D199  D(19,20,45,14)        148.6501         estimate D2E/DX2                !
 ! D200  D(19,20,45,46)         -4.428          estimate D2E/DX2                !
 ! D201  D(54,20,45,14)         -2.2386         estimate D2E/DX2                !
 ! D202  D(54,20,45,46)       -155.3167         estimate D2E/DX2                !
 ! D203  D(19,20,54,53)         -5.2466         estimate D2E/DX2                !
 ! D204  D(19,20,54,55)       -150.8972         estimate D2E/DX2                !
 ! D205  D(45,20,54,53)        148.4564         estimate D2E/DX2                !
 ! D206  D(45,20,54,55)          2.8058         estimate D2E/DX2                !
 ! D207  D(10,21,22,23)         17.7341         estimate D2E/DX2                !
 ! D208  D(10,21,22,56)        166.9073         estimate D2E/DX2                !
 ! D209  D(50,21,22,23)       -133.6392         estimate D2E/DX2                !
 ! D210  D(50,21,22,56)         15.5341         estimate D2E/DX2                !
 ! D211  D(10,21,50,33)          0.1831         estimate D2E/DX2                !
 ! D212  D(10,21,50,48)       -146.7376         estimate D2E/DX2                !
 ! D213  D(22,21,50,33)        147.1323         estimate D2E/DX2                !
 ! D214  D(22,21,50,48)          0.2115         estimate D2E/DX2                !
 ! D215  D(21,22,23,7)         -14.4063         estimate D2E/DX2                !
 ! D216  D(21,22,23,24)        148.1021         estimate D2E/DX2                !
 ! D217  D(56,22,23,7)        -162.6323         estimate D2E/DX2                !
 ! D218  D(56,22,23,24)         -0.1239         estimate D2E/DX2                !
 ! D219  D(21,22,56,17)        -15.4629         estimate D2E/DX2                !
 ! D220  D(21,22,56,57)       -151.7624         estimate D2E/DX2                !
 ! D221  D(23,22,56,17)        129.8313         estimate D2E/DX2                !
 ! D222  D(23,22,56,57)         -6.4682         estimate D2E/DX2                !
 ! D223  D(7,23,24,15)         166.1762         estimate D2E/DX2                !
 ! D224  D(7,23,24,25)          17.1311         estimate D2E/DX2                !
 ! D225  D(22,23,24,15)          7.8951         estimate D2E/DX2                !
 ! D226  D(22,23,24,25)       -141.15           estimate D2E/DX2                !
 ! D227  D(15,24,25,13)          1.5595         estimate D2E/DX2                !
 ! D228  D(15,24,25,26)       -146.2851         estimate D2E/DX2                !
 ! D229  D(23,24,25,13)        153.499          estimate D2E/DX2                !
 ! D230  D(23,24,25,26)          5.6544         estimate D2E/DX2                !
 ! D231  D(13,25,26,4)           1.9043         estimate D2E/DX2                !
 ! D232  D(13,25,26,27)       -146.1172         estimate D2E/DX2                !
 ! D233  D(24,25,26,4)         147.0025         estimate D2E/DX2                !
 ! D234  D(24,25,26,27)         -1.0191         estimate D2E/DX2                !
 ! D235  D(4,26,27,28)        -155.3158         estimate D2E/DX2                !
 ! D236  D(4,26,27,38)          -2.2374         estimate D2E/DX2                !
 ! D237  D(25,26,27,28)         -4.4233         estimate D2E/DX2                !
 ! D238  D(25,26,27,38)        148.6551         estimate D2E/DX2                !
 ! D239  D(26,27,28,7)         -17.1013         estimate D2E/DX2                !
 ! D240  D(26,27,28,29)        141.7883         estimate D2E/DX2                !
 ! D241  D(38,27,28,7)        -167.2385         estimate D2E/DX2                !
 ! D242  D(38,27,28,29)         -8.3489         estimate D2E/DX2                !
 ! D243  D(26,27,38,36)       -146.1248         estimate D2E/DX2                !
 ! D244  D(26,27,38,39)          0.8723         estimate D2E/DX2                !
 ! D245  D(28,27,38,36)         10.0349         estimate D2E/DX2                !
 ! D246  D(28,27,38,39)        157.032          estimate D2E/DX2                !
 ! D247  D(7,28,29,30)          15.0775         estimate D2E/DX2                !
 ! D248  D(7,28,29,35)         163.4624         estimate D2E/DX2                !
 ! D249  D(27,28,29,30)       -148.1389         estimate D2E/DX2                !
 ! D250  D(27,28,29,35)          0.246          estimate D2E/DX2                !
 ! D251  D(28,29,30,10)        -18.0606         estimate D2E/DX2                !
 ! D252  D(28,29,30,31)        133.287          estimate D2E/DX2                !
 ! D253  D(35,29,30,10)       -167.311          estimate D2E/DX2                !
 ! D254  D(35,29,30,31)        -15.9634         estimate D2E/DX2                !
 ! D255  D(28,29,35,34)       -129.6947         estimate D2E/DX2                !
 ! D256  D(28,29,35,36)          6.7045         estimate D2E/DX2                !
 ! D257  D(30,29,35,34)         15.8107         estimate D2E/DX2                !
 ! D258  D(30,29,35,36)        152.2099         estimate D2E/DX2                !
 ! D259  D(10,30,31,32)        147.131          estimate D2E/DX2                !
 ! D260  D(10,30,31,33)          0.1841         estimate D2E/DX2                !
 ! D261  D(29,30,31,32)          0.2093         estimate D2E/DX2                !
 ! D262  D(29,30,31,33)       -146.7376         estimate D2E/DX2                !
 ! D263  D(30,31,32,34)         15.5353         estimate D2E/DX2                !
 ! D264  D(30,31,32,40)       -133.639          estimate D2E/DX2                !
 ! D265  D(33,31,32,34)        166.9068         estimate D2E/DX2                !
 ! D266  D(33,31,32,40)         17.7325         estimate D2E/DX2                !
 ! D267  D(30,31,33,37)        136.3401         estimate D2E/DX2                !
 ! D268  D(30,31,33,50)         25.7648         estimate D2E/DX2                !
 ! D269  D(30,31,33,69)        -99.8156         estimate D2E/DX2                !
 ! D270  D(32,31,33,37)        -13.5135         estimate D2E/DX2                !
 ! D271  D(32,31,33,50)       -124.0888         estimate D2E/DX2                !
 ! D272  D(32,31,33,69)        110.3308         estimate D2E/DX2                !
 ! D273  D(31,32,34,35)        -15.4625         estimate D2E/DX2                !
 ! D274  D(31,32,34,44)       -151.7635         estimate D2E/DX2                !
 ! D275  D(40,32,34,35)        129.8331         estimate D2E/DX2                !
 ! D276  D(40,32,34,44)         -6.4679         estimate D2E/DX2                !
 ! D277  D(31,32,40,18)        148.1033         estimate D2E/DX2                !
 ! D278  D(31,32,40,37)        -14.4053         estimate D2E/DX2                !
 ! D279  D(34,32,40,18)         -0.1236         estimate D2E/DX2                !
 ! D280  D(34,32,40,37)       -162.6322         estimate D2E/DX2                !
 ! D281  D(31,33,37,40)          4.732          estimate D2E/DX2                !
 ! D282  D(31,33,37,46)       -115.9546         estimate D2E/DX2                !
 ! D283  D(31,33,37,70)        124.4257         estimate D2E/DX2                !
 ! D284  D(50,33,37,40)        116.5491         estimate D2E/DX2                !
 ! D285  D(50,33,37,46)         -4.1375         estimate D2E/DX2                !
 ! D286  D(50,33,37,70)       -123.7572         estimate D2E/DX2                !
 ! D287  D(69,33,37,40)       -119.373          estimate D2E/DX2                !
 ! D288  D(69,33,37,46)        119.9404         estimate D2E/DX2                !
 ! D289  D(69,33,37,70)          0.3207         estimate D2E/DX2                !
 ! D290  D(31,33,50,21)        -25.9325         estimate D2E/DX2                !
 ! D291  D(31,33,50,48)        123.9066         estimate D2E/DX2                !
 ! D292  D(37,33,50,21)       -136.562          estimate D2E/DX2                !
 ! D293  D(37,33,50,48)         13.277          estimate D2E/DX2                !
 ! D294  D(69,33,50,21)         99.6349         estimate D2E/DX2                !
 ! D295  D(69,33,50,48)       -110.526          estimate D2E/DX2                !
 ! D296  D(32,34,35,29)         -0.1604         estimate D2E/DX2                !
 ! D297  D(32,34,35,36)       -141.163          estimate D2E/DX2                !
 ! D298  D(44,34,35,29)        140.8076         estimate D2E/DX2                !
 ! D299  D(44,34,35,36)         -0.1951         estimate D2E/DX2                !
 ! D300  D(32,34,44,43)        144.5569         estimate D2E/DX2                !
 ! D301  D(32,34,44,47)          4.7378         estimate D2E/DX2                !
 ! D302  D(35,34,44,43)          4.0162         estimate D2E/DX2                !
 ! D303  D(35,34,44,47)       -135.803          estimate D2E/DX2                !
 ! D304  D(29,35,36,38)         -5.0952         estimate D2E/DX2                !
 ! D305  D(29,35,36,43)       -144.2773         estimate D2E/DX2                !
 ! D306  D(34,35,36,38)        135.4518         estimate D2E/DX2                !
 ! D307  D(34,35,36,43)         -3.7303         estimate D2E/DX2                !
 ! D308  D(35,36,38,27)         -3.1051         estimate D2E/DX2                !
 ! D309  D(35,36,38,39)       -147.0934         estimate D2E/DX2                !
 ! D310  D(43,36,38,27)        131.8564         estimate D2E/DX2                !
 ! D311  D(43,36,38,39)        -12.1319         estimate D2E/DX2                !
 ! D312  D(35,36,43,42)        146.7228         estimate D2E/DX2                !
 ! D313  D(35,36,43,44)          6.1113         estimate D2E/DX2                !
 ! D314  D(38,36,43,42)          7.9035         estimate D2E/DX2                !
 ! D315  D(38,36,43,44)       -132.708          estimate D2E/DX2                !
 ! D316  D(33,37,40,18)       -154.4212         estimate D2E/DX2                !
 ! D317  D(33,37,40,32)          5.4211         estimate D2E/DX2                !
 ! D318  D(46,37,40,18)        -40.6558         estimate D2E/DX2                !
 ! D319  D(46,37,40,32)        119.1865         estimate D2E/DX2                !
 ! D320  D(70,37,40,18)         84.4847         estimate D2E/DX2                !
 ! D321  D(70,37,40,32)       -115.673          estimate D2E/DX2                !
 ! D322  D(33,37,46,45)        154.2588         estimate D2E/DX2                !
 ! D323  D(33,37,46,48)         -6.1823         estimate D2E/DX2                !
 ! D324  D(40,37,46,45)         40.6327         estimate D2E/DX2                !
 ! D325  D(40,37,46,48)       -119.8084         estimate D2E/DX2                !
 ! D326  D(70,37,46,45)        -84.6043         estimate D2E/DX2                !
 ! D327  D(70,37,46,48)        114.9546         estimate D2E/DX2                !
 ! D328  D(27,38,39,4)           0.831          estimate D2E/DX2                !
 ! D329  D(27,38,39,41)       -142.4807         estimate D2E/DX2                !
 ! D330  D(36,38,39,4)         148.6264         estimate D2E/DX2                !
 ! D331  D(36,38,39,41)          5.3147         estimate D2E/DX2                !
 ! D332  D(4,39,41,1)           12.3853         estimate D2E/DX2                !
 ! D333  D(4,39,41,42)        -133.1562         estimate D2E/DX2                !
 ! D334  D(38,39,41,1)         151.2841         estimate D2E/DX2                !
 ! D335  D(38,39,41,42)          5.7426         estimate D2E/DX2                !
 ! D336  D(1,41,42,43)        -160.4935         estimate D2E/DX2                !
 ! D337  D(1,41,42,66)         -17.6908         estimate D2E/DX2                !
 ! D338  D(39,41,42,43)        -10.0914         estimate D2E/DX2                !
 ! D339  D(39,41,42,66)        132.7112         estimate D2E/DX2                !
 ! D340  D(41,42,43,36)          3.3479         estimate D2E/DX2                !
 ! D341  D(41,42,43,44)        138.494          estimate D2E/DX2                !
 ! D342  D(66,42,43,36)       -135.1366         estimate D2E/DX2                !
 ! D343  D(66,42,43,44)          0.0095         estimate D2E/DX2                !
 ! D344  D(41,42,66,49)       -139.2735         estimate D2E/DX2                !
 ! D345  D(41,42,66,65)          5.2498         estimate D2E/DX2                !
 ! D346  D(43,42,66,49)          4.4808         estimate D2E/DX2                !
 ! D347  D(43,42,66,65)        149.0041         estimate D2E/DX2                !
 ! D348  D(36,43,44,34)         -6.2324         estimate D2E/DX2                !
 ! D349  D(36,43,44,47)        132.5823         estimate D2E/DX2                !
 ! D350  D(42,43,44,34)       -146.2752         estimate D2E/DX2                !
 ! D351  D(42,43,44,47)         -7.4606         estimate D2E/DX2                !
 ! D352  D(34,44,47,18)          3.225          estimate D2E/DX2                !
 ! D353  D(34,44,47,49)        145.2912         estimate D2E/DX2                !
 ! D354  D(43,44,47,18)       -131.9465         estimate D2E/DX2                !
 ! D355  D(43,44,47,49)         10.1197         estimate D2E/DX2                !
 ! D356  D(14,45,46,37)       -167.2333         estimate D2E/DX2                !
 ! D357  D(14,45,46,48)         -8.3488         estimate D2E/DX2                !
 ! D358  D(20,45,46,37)        -17.0964         estimate D2E/DX2                !
 ! D359  D(20,45,46,48)        141.7881         estimate D2E/DX2                !
 ! D360  D(37,46,48,17)        163.4621         estimate D2E/DX2                !
 ! D361  D(37,46,48,50)         15.0752         estimate D2E/DX2                !
 ! D362  D(45,46,48,17)          0.2501         estimate D2E/DX2                !
 ! D363  D(45,46,48,50)       -148.1368         estimate D2E/DX2                !
 ! D364  D(18,47,49,51)         -2.0201         estimate D2E/DX2                !
 ! D365  D(18,47,49,66)        141.0348         estimate D2E/DX2                !
 ! D366  D(44,47,49,51)       -148.7313         estimate D2E/DX2                !
 ! D367  D(44,47,49,66)         -5.6764         estimate D2E/DX2                !
 ! D368  D(17,48,50,21)        -15.9646         estimate D2E/DX2                !
 ! D369  D(17,48,50,33)       -167.3113         estimate D2E/DX2                !
 ! D370  D(46,48,50,21)        133.2882         estimate D2E/DX2                !
 ! D371  D(46,48,50,33)        -18.0584         estimate D2E/DX2                !
 ! D372  D(47,49,51,19)          3.0541         estimate D2E/DX2                !
 ! D373  D(47,49,51,52)        150.0986         estimate D2E/DX2                !
 ! D374  D(66,49,51,19)       -140.9716         estimate D2E/DX2                !
 ! D375  D(66,49,51,52)          6.0729         estimate D2E/DX2                !
 ! D376  D(47,49,66,42)         -1.7065         estimate D2E/DX2                !
 ! D377  D(47,49,66,65)       -141.6105         estimate D2E/DX2                !
 ! D378  D(51,49,66,42)        137.2449         estimate D2E/DX2                !
 ! D379  D(51,49,66,65)         -2.659          estimate D2E/DX2                !
 ! D380  D(19,51,52,53)         -6.9265         estimate D2E/DX2                !
 ! D381  D(19,51,52,64)        137.707          estimate D2E/DX2                !
 ! D382  D(49,51,52,53)       -149.5498         estimate D2E/DX2                !
 ! D383  D(49,51,52,64)         -4.9163         estimate D2E/DX2                !
 ! D384  D(51,52,53,54)          3.5438         estimate D2E/DX2                !
 ! D385  D(51,52,53,62)        162.4917         estimate D2E/DX2                !
 ! D386  D(64,52,53,54)       -145.2639         estimate D2E/DX2                !
 ! D387  D(64,52,53,62)         13.6839         estimate D2E/DX2                !
 ! D388  D(51,52,64,63)       -159.9055         estimate D2E/DX2                !
 ! D389  D(51,52,64,65)          0.0748         estimate D2E/DX2                !
 ! D390  D(53,52,64,63)        -11.9278         estimate D2E/DX2                !
 ! D391  D(53,52,64,65)        148.0525         estimate D2E/DX2                !
 ! D392  D(52,53,54,20)          2.4421         estimate D2E/DX2                !
 ! D393  D(52,53,54,55)        145.0825         estimate D2E/DX2                !
 ! D394  D(62,53,54,20)       -152.6044         estimate D2E/DX2                !
 ! D395  D(62,53,54,55)         -9.9641         estimate D2E/DX2                !
 ! D396  D(52,53,62,61)       -139.4517         estimate D2E/DX2                !
 ! D397  D(52,53,62,63)         -9.8042         estimate D2E/DX2                !
 ! D398  D(52,53,62,75)        103.277          estimate D2E/DX2                !
 ! D399  D(54,53,62,61)         16.9897         estimate D2E/DX2                !
 ! D400  D(54,53,62,63)        146.6372         estimate D2E/DX2                !
 ! D401  D(54,53,62,75)       -100.2816         estimate D2E/DX2                !
 ! D402  D(20,54,55,14)         -2.2622         estimate D2E/DX2                !
 ! D403  D(20,54,55,60)        141.9991         estimate D2E/DX2                !
 ! D404  D(53,54,55,14)       -149.8504         estimate D2E/DX2                !
 ! D405  D(53,54,55,60)         -5.5891         estimate D2E/DX2                !
 ! D406  D(14,55,60,59)          5.7308         estimate D2E/DX2                !
 ! D407  D(14,55,60,61)        151.3022         estimate D2E/DX2                !
 ! D408  D(54,55,60,59)       -133.1713         estimate D2E/DX2                !
 ! D409  D(54,55,60,61)         12.4001         estimate D2E/DX2                !
 ! D410  D(17,56,57,15)       -135.8004         estimate D2E/DX2                !
 ! D411  D(17,56,57,58)          4.0145         estimate D2E/DX2                !
 ! D412  D(22,56,57,15)          4.7384         estimate D2E/DX2                !
 ! D413  D(22,56,57,58)        144.5532         estimate D2E/DX2                !
 ! D414  D(15,57,58,16)        132.5814         estimate D2E/DX2                !
 ! D415  D(15,57,58,59)         -7.4631         estimate D2E/DX2                !
 ! D416  D(56,57,58,16)         -6.2306         estimate D2E/DX2                !
 ! D417  D(56,57,58,59)       -146.2751         estimate D2E/DX2                !
[...]
 Alpha virt. eigenvalues --    1.07237   1.08166   1.08316   1.09062   1.09130
 Alpha virt. eigenvalues --    1.09280   1.10610   1.10896   1.10959   1.11725
 Alpha virt. eigenvalues --    1.12296   1.12800   1.13675   1.14270   1.14525
 Alpha virt. eigenvalues --    1.14585   1.14875   1.15399   1.15666   1.15919
 Alpha virt. eigenvalues --    1.16189   1.16708   1.16849   1.18319   1.18435
 Alpha virt. eigenvalues --    1.18973   1.20640   1.20685   1.20817   1.21716
 Alpha virt. eigenvalues --    1.21847   1.21985   1.23027   1.23181   1.23245
 Alpha virt. eigenvalues --    1.23739   1.24326   1.24822   1.25206   1.25605
 Alpha virt. eigenvalues --    1.26170   1.27270   1.27909   1.28240   1.28623
 Alpha virt. eigenvalues --    1.28776   1.29332   1.29515   1.30763   1.30839
 Alpha virt. eigenvalues --    1.31001   1.31750   1.31877   1.32812   1.32828
 Alpha virt. eigenvalues --    1.33569   1.33930   1.33942   1.34503   1.34533
 Alpha virt. eigenvalues --    1.34836   1.35346   1.35449   1.36030   1.37027
 Alpha virt. eigenvalues --    1.37591   1.37759   1.38319   1.38453   1.38624
 Alpha virt. eigenvalues --    1.39387   1.39580   1.39658   1.40275   1.40499
 Alpha virt. eigenvalues --    1.40685   1.41378   1.41436   1.41626   1.41791
 Alpha virt. eigenvalues --    1.42657   1.42667   1.43055   1.43294   1.43782
 Alpha virt. eigenvalues --    1.44302   1.44423   1.45086   1.45089   1.45333
 Alpha virt. eigenvalues --    1.45981   1.46073   1.46359   1.46640   1.46782
 Alpha virt. eigenvalues --    1.47130   1.47494   1.47495   1.47660   1.47737
 Alpha virt. eigenvalues --    1.48221   1.48537   1.48584   1.48957   1.49151
 Alpha virt. eigenvalues --    1.49736   1.49934   1.50024   1.50550   1.50658
 Alpha virt. eigenvalues --    1.51104   1.51215   1.51313   1.51556   1.51869
 Alpha virt. eigenvalues --    1.51931   1.52307   1.52405   1.52901   1.53059
 Alpha virt. eigenvalues --    1.53390   1.53452   1.53734   1.54164   1.54199
 Alpha virt. eigenvalues --    1.54415   1.54793   1.55368   1.55403   1.55608
 Alpha virt. eigenvalues --    1.55996   1.56673   1.56702   1.57143   1.57587
 Alpha virt. eigenvalues --    1.57684   1.58048   1.58081   1.58820   1.58956
 Alpha virt. eigenvalues --    1.59187   1.59551   1.59800   1.60501   1.60704
 Alpha virt. eigenvalues --    1.61017   1.61464   1.61504   1.61867   1.62122
 Alpha virt. eigenvalues --    1.63016   1.63127   1.63616   1.63761   1.63933
 Alpha virt. eigenvalues --    1.64213   1.65301   1.65404   1.65495   1.65874
 Alpha virt. eigenvalues --    1.66225   1.66547   1.67446   1.68066   1.68291
 Alpha virt. eigenvalues --    1.69306   1.69415   1.69634   1.69699   1.70433
 Alpha virt. eigenvalues --    1.70559   1.70658   1.71391   1.71444   1.71623
 Alpha virt. eigenvalues --    1.71774   1.72175   1.72486   1.72849   1.73371
 Alpha virt. eigenvalues --    1.73584   1.74013   1.75041   1.75367   1.75796
 Alpha virt. eigenvalues --    1.76204   1.76204   1.76951   1.77485   1.77839
 Alpha virt. eigenvalues --    1.78493   1.78571   1.79268   1.79571   1.79601
 Alpha virt. eigenvalues --    1.80279   1.80484   1.80940   1.80985   1.81184
 Alpha virt. eigenvalues --    1.81415   1.81976   1.82758   1.83285   1.83287
 Alpha virt. eigenvalues --    1.83558   1.84099   1.84336   1.84363   1.85421
 Alpha virt. eigenvalues --    1.85640   1.85893   1.86469   1.86777   1.87183
 Alpha virt. eigenvalues --    1.87892   1.88361   1.89185   1.89503   1.89555
 Alpha virt. eigenvalues --    1.89947   1.90388   1.90658   1.90846   1.91696
 Alpha virt. eigenvalues --    1.91880   1.92615   1.92648   1.93053   1.93100
 Alpha virt. eigenvalues --    1.93673   1.93874   1.94609   1.94932   1.95437
 Alpha virt. eigenvalues --    1.95717   1.95809   1.97467   1.97473   1.98274
 Alpha virt. eigenvalues --    1.98481   1.98854   1.98921   2.00262   2.00564
 Alpha virt. eigenvalues --    2.00711   2.01901   2.02178   2.02450   2.02920
 Alpha virt. eigenvalues --    2.03255   2.03662   2.03709   2.03774   2.03912
 Alpha virt. eigenvalues --    2.04567   2.05107   2.05527   2.05998   2.07382
 Alpha virt. eigenvalues --    2.07892   2.08124   2.08476   2.08550   2.09351
 Alpha virt. eigenvalues --    2.09451   2.10141   2.10545   2.10612   2.11013
 Alpha virt. eigenvalues --    2.11117   2.11374   2.11653   2.11983   2.12017
 Alpha virt. eigenvalues --    2.12715   2.13167   2.13635   2.13654   2.14161
 Alpha virt. eigenvalues --    2.14223   2.14647   2.15210   2.16113   2.16184
 Alpha virt. eigenvalues --    2.17184   2.17686   2.17814   2.18246   2.18899
 Alpha virt. eigenvalues --    2.19540   2.19728   2.20212   2.21199   2.21581
 Alpha virt. eigenvalues --    2.21930   2.22488   2.23126   2.23171   2.23577
 Alpha virt. eigenvalues --    2.23741   2.24403   2.24404   2.25961   2.26227
 Alpha virt. eigenvalues --    2.26900   2.27198   2.27368   2.27849   2.29763
 Alpha virt. eigenvalues --    2.29901   2.30053   2.30952   2.31488   2.31923
 Alpha virt. eigenvalues --    2.32803   2.32858   2.34115   2.34341   2.35064
 Alpha virt. eigenvalues --    2.35510   2.35544   2.36760   2.36935   2.37902
 Alpha virt. eigenvalues --    2.37978   2.38882   2.39067   2.39677   2.39926
 Alpha virt. eigenvalues --    2.40399   2.40810   2.40961   2.42189   2.42331
 Alpha virt. eigenvalues --    2.42714   2.42999   2.43076   2.43323   2.43755
 Alpha virt. eigenvalues --    2.43988   2.44060   2.44416   2.45529   2.46289
 Alpha virt. eigenvalues --    2.46498   2.46850   2.47245   2.47634   2.47858
 Alpha virt. eigenvalues --    2.48875   2.49938   2.50662   2.50831   2.51086
 Alpha virt. eigenvalues --    2.51576   2.52045   2.52905   2.53068   2.53983
 Alpha virt. eigenvalues --    2.54672   2.54845   2.55127   2.55959   2.56369
 Alpha virt. eigenvalues --    2.56467   2.57544   2.57742   2.58456   2.58870
 Alpha virt. eigenvalues --    2.58937   2.59727   2.59857   2.60492   2.61113
 Alpha virt. eigenvalues --    2.61216   2.61608   2.62021   2.62288   2.63518
 Alpha virt. eigenvalues --    2.64537   2.65134   2.65283   2.66024   2.66027
 Alpha virt. eigenvalues --    2.66938   2.67349   2.68521   2.68545   2.69110
 Alpha virt. eigenvalues --    2.69963   2.70718   2.71088   2.71327   2.72778
 Alpha virt. eigenvalues --    2.73237   2.73297   2.74191   2.75164   2.75205
 Alpha virt. eigenvalues --    2.76602   2.77008   2.77075   2.77549   2.79020
 Alpha virt. eigenvalues --    2.79650   2.79871   2.81197   2.81222   2.82039
 Alpha virt. eigenvalues --    2.82234   2.82564   2.82959   2.84449   2.85888
 Alpha virt. eigenvalues --    2.86427   2.86463   2.87133   2.87942   2.88299
 Alpha virt. eigenvalues --    2.88529   2.89197   2.89213   2.89341   2.90558
 Alpha virt. eigenvalues --    2.91719   2.92078   2.92796   2.93870   2.94537
 Alpha virt. eigenvalues --    2.94652   2.95129   2.95229   2.95401   2.96284
 Alpha virt. eigenvalues --    2.97229   2.97858   2.98281   2.98635   2.99035
 Alpha virt. eigenvalues --    2.99615   3.00074   3.00367   3.00766   3.01072
 Alpha virt. eigenvalues --    3.01693   3.01734   3.02177   3.02916   3.04183
 Alpha virt. eigenvalues --    3.04360   3.04557   3.04904   3.05509   3.05667
 Alpha virt. eigenvalues --    3.05784   3.06139   3.06800   3.07326   3.07388
 Alpha virt. eigenvalues --    3.07717   3.07987   3.08403   3.09213   3.09621
 Alpha virt. eigenvalues --    3.09910   3.10020   3.10623   3.10753   3.10816
 Alpha virt. eigenvalues --    3.11809   3.12006   3.12837   3.13071   3.13214
 Alpha virt. eigenvalues --    3.13373   3.13525   3.14253   3.14377   3.14703
 Alpha virt. eigenvalues --    3.14993   3.15433   3.15472   3.15533   3.15635
 Alpha virt. eigenvalues --    3.17003   3.17266   3.17617   3.18071   3.18074
 Alpha virt. eigenvalues --    3.18267   3.18279   3.19714   3.19948   3.21036
 Alpha virt. eigenvalues --    3.21207   3.21519   3.22389   3.22395   3.22995
 Alpha virt. eigenvalues --    3.23680   3.24302   3.25202   3.27776   3.28202
 Alpha virt. eigenvalues --    3.29683   3.30382   3.32082   3.33336   3.33423
 Alpha virt. eigenvalues --    3.33999   3.34667   3.35501   3.37128   3.37674
 Alpha virt. eigenvalues --    3.40953   3.41604   3.41675   3.42946   3.44189
 Alpha virt. eigenvalues --    3.45578   3.47875   3.48362   3.48836   3.51256
 Alpha virt. eigenvalues --    3.53256   3.53300   3.56410   3.56962   3.57098
 Alpha virt. eigenvalues --    3.58164   3.58974   3.61114   3.61277   3.62883
 Alpha virt. eigenvalues --    3.63888   3.64804   3.64948   3.65454   3.66250
 Alpha virt. eigenvalues --    3.66441   3.68682   3.69300   3.70222   3.71878
 Alpha virt. eigenvalues --    3.74009   3.75017   3.75395   3.76649   3.77860
 Alpha virt. eigenvalues --    3.78567   3.79955   3.80670   3.81418   3.82916
 Alpha virt. eigenvalues --    3.82928   3.84712   3.86330   3.87837   3.87990
 Alpha virt. eigenvalues --    3.88721   3.89331   3.90028   3.90264   3.90976
 Alpha virt. eigenvalues --    3.92526   3.93353   3.94003   3.95484   3.96254
 Alpha virt. eigenvalues --    3.96636   3.98564   4.01995   4.02520   4.04533
 Alpha virt. eigenvalues --    4.04843   4.09647   4.11346   4.12200   4.17502
 Alpha virt. eigenvalues --    4.22494   4.25988   4.26853   4.30139   4.33663
 Alpha virt. eigenvalues --    4.34007   4.36132   4.40307   4.40348   4.40843
 Alpha virt. eigenvalues --    4.41372   4.42197   4.45967   4.50417   4.50876
 Alpha virt. eigenvalues --    4.53109   4.57903   4.60361   4.62270   4.63580
 Alpha virt. eigenvalues --    4.66943   4.69808   4.71201   4.73078   4.74589
 Alpha virt. eigenvalues --    4.81125   4.86479   4.89170   4.90388   4.94330
 Alpha virt. eigenvalues --    5.00004   5.02529   5.03706   5.06210  23.08551
 Alpha virt. eigenvalues --   23.22073  23.26507  23.34670  23.47036  23.48372
 Alpha virt. eigenvalues --   23.52032  23.54344  23.59167  23.66611  23.67564
 Alpha virt. eigenvalues --   23.73242  23.73915  23.74925  23.78793  23.79747
 Alpha virt. eigenvalues --   23.80935  23.80955  23.82259  23.83331  23.84950
 Alpha virt. eigenvalues --   23.85564  23.86680  23.87497  23.87709  23.90721
 Alpha virt. eigenvalues --   23.91020  23.91733  23.92129  23.93848  23.95485
 Alpha virt. eigenvalues --   23.97571  23.97768  23.99012  23.99057  23.99791
 Alpha virt. eigenvalues --   24.00212  24.00324  24.01302  24.02137  24.02358
 Alpha virt. eigenvalues --   24.03214  24.03567  24.04906  24.05295  24.05339
 Alpha virt. eigenvalues --   24.06263  24.06520  24.07112  24.07803  24.09337
 Alpha virt. eigenvalues --   24.11085  24.11519  24.11875  24.12319  24.12458
 Alpha virt. eigenvalues --   24.12757  24.13382  24.14740  24.14788  24.15991
 Alpha virt. eigenvalues --   24.16469  24.17073  24.18199  24.19376  24.19415
          Condensed to atoms (all electrons):
 Mulliken charges:
               1
     1  C   -0.145124
     2  C   -0.129949
     3  C   -0.034364
     4  C    0.013504
     5  C    0.029050
     6  C   -0.016677
     7  C   -0.123499
     8  C   -0.127463
     9  C   -0.012085
    10  C   -0.170961
    11  C    0.024590
    12  C   -0.008211
    13  C   -0.013628
    14  C   -0.008170
    15  C   -0.005987
    16  C   -0.002595
    17  C   -0.015499
    18  C    0.009792
    19  C    0.000793
    20  C   -0.013208
    21  C   -0.004870
    22  C    0.031519
    23  C   -0.025495
    24  C    0.009792
    25  C    0.000795
    26  C   -0.013210
    27  C    0.018338
    28  C   -0.025950
    29  C    0.032314
    30  C   -0.005972
    31  C   -0.004870
    32  C    0.031519
    33  C   -0.170960
    34  C   -0.012509
    35  C   -0.015498
    36  C   -0.002596
    37  C   -0.123498
    38  C   -0.008169
    39  C   -0.000155
    40  C   -0.025495
    41  C   -0.025107
    42  C    0.016293
    43  C   -0.018853
    44  C   -0.007362
    45  C    0.018339
    46  C   -0.025951
    47  C   -0.005987
    48  C    0.032314
    49  C   -0.008212
    50  C   -0.005973
    51  C   -0.013626
    52  C    0.029048
    53  C   -0.034361
    54  C    0.013501
    55  C   -0.000154
    56  C   -0.012509
    57  C   -0.007362
    58  C   -0.018854
    59  C    0.016294
    60  C   -0.025108
    61  C   -0.145123
    62  C   -0.129950
    63  C   -0.127464
    64  C   -0.016676
    65  C   -0.012085
    66  C    0.024591
    67  H    0.163191
    68  H    0.158285
    69  H    0.158285
    70  H    0.163191
    71  H    0.145082
    72  H    0.145082
    73  H    0.151201
    74  H    0.159740
    75  H    0.151201
    76  H    0.159740
 Sum of Mulliken charges =  -0.00000
 Mulliken charges with hydrogens summed into heavy atoms:
               1
     1  C    0.014616
     2  C    0.021252
     3  C   -0.034364
     4  C    0.013504
     5  C    0.029050
     6  C   -0.016677
     7  C    0.039693
     8  C    0.017619
     9  C   -0.012085
    10  C   -0.012675
    11  C    0.024590
    12  C   -0.008211
    13  C   -0.013628
    14  C   -0.008170
    15  C   -0.005987
    16  C   -0.002595
    17  C   -0.015499
    18  C    0.009792
    19  C    0.000793
    20  C   -0.013208
    21  C   -0.004870
    22  C    0.031519
    23  C   -0.025495
    24  C    0.009792
    25  C    0.000795
    26  C   -0.013210
    27  C    0.018338
    28  C   -0.025950
    29  C    0.032314
    30  C   -0.005972
    31  C   -0.004870
    32  C    0.031519
    33  C   -0.012675
    34  C   -0.012509
    35  C   -0.015498
    36  C   -0.002596
    37  C    0.039693
    38  C   -0.008169
    39  C   -0.000155
    40  C   -0.025495
    41  C   -0.025107
    42  C    0.016293
    43  C   -0.018853
    44  C   -0.007362
    45  C    0.018339
    46  C   -0.025951
    47  C   -0.005987
    48  C    0.032314
    49  C   -0.008212
    50  C   -0.005973
    51  C   -0.013626
    52  C    0.029048
    53  C   -0.034361
    54  C    0.013501
    55  C   -0.000154
    56  C   -0.012509
    57  C   -0.007362
    58  C   -0.018854
    59  C    0.016294
    60  C   -0.025108
    61  C    0.014617
    62  C    0.021251
    63  C    0.017618
    64  C   -0.016676
    65  C   -0.012085
    66  C    0.024591
 Electronic spatial extent (au):  <R**2>=          21886.3071
 Charge=             -0.0000 electrons
 Dipole moment (field-independent basis, Debye):
    X=              1.6214    Y=             -0.0000    Z=             -0.0000  Tot=              1.6214
 Quadrupole moment (field-independent basis, Debye-Ang):
   XX=           -326.2899   YY=           -383.7328   ZZ=           -372.4375
   XY=             -0.0000   XZ=             -0.0000   YZ=             -5.4198
 Traceless Quadrupole moment (field-independent basis, Debye-Ang):
   XX=             34.5302   YY=            -22.9127   ZZ=            -11.6175
   XY=             -0.0000   XZ=             -0.0000   YZ=             -5.4198
 Octapole moment (field-independent basis, Debye-Ang**2):
  XXX=             67.9096  YYY=             -0.0002  ZZZ=              0.0000  XYY=             53.5436
  XXY=             -0.0002  XXZ=             -0.0001  XZZ=            -40.8262  YZZ=              0.0000
  YYZ=              0.0000  XYZ=            -14.5466
 Hexadecapole moment (field-independent basis, Debye-Ang**3):
 XXXX=         -12176.8641 YYYY=         -11430.8601 ZZZZ=          -8740.1482 XXXY=             -0.0012
 XXXZ=             -0.0005 YYYX=             -0.0006 YYYZ=            -31.2586 ZZZX=             -0.0009
 ZZZY=            -39.0001 XXYY=          -4046.5912 XXZZ=          -3467.4085 YYZZ=          -3397.4043
 XXYZ=           -116.9155 YYXZ=             -0.0001 ZZXY=              0.0002
 N-N= 1.001198809880D+04 E-N=-2.587411788353D+04  KE= 2.511050708999D+03
 No NMR shielding tensors so no spin-rotation constants.
 Leave Link  601 at Wed Jul 20 08:20:12 2022, MaxMem=  1342177280 cpu:              59.4 elap:               1.5
 (Enter /home/mkliu/g16/l9999.exe)
 1\1\GINC-NODE01\FOpt\RB3LYP\6-311G(d,p)\C66H10\MKLIU\20-Jul-2022\0\\#P
  opt b3lyp/6-311G(d, p) empiricaldispersion=GD3\\force\\0,1\C,12.53840
 016,11.9237637307,21.9064250381\C,12.5013876184,12.9958031068,23.05420
 34652\C,12.7447404175,14.4109411118,22.5472810474\C,12.6508370621,14.8
 351746377,21.2424318397\C,13.5834821375,15.1223687961,23.4192383736\C,
 14.193198175,14.2144627633,24.344739531\C,15.6394561489,17.3726950353,
 18.7134244952\C,13.538954226,12.8497980394,24.2772115504\C,15.44279774
 88,14.4789916912,24.8132230385\C,16.9412494746,17.0049173335,17.873016
 1095\C,16.1026063921,15.696169527,24.4303711086\C,15.4967921227,16.605
 3838227,23.55866061\C,14.2296901868,16.2846856467,22.985913065\C,19.25
 26132912,14.0837560193,22.5954518659\C,16.2648500918,17.3125056145,22.
 5769362892\C,19.2338032686,15.4802358687,22.5752758967\C,19.3000279148
 ,16.1447239246,21.3143812546\C,17.4820658182,11.6145576463,19.27222712
 31\C,17.7318483986,11.3309877886,20.713971444\C,18.4975409187,12.06725
 28073,21.6241562789\C,18.0436548549,16.8991708163,18.9029248234\C,17.5
 976385664,17.4449170003,20.1426432814\C,16.1597108629,17.5488825216,20
 .1437282609\C,15.4858096625,17.4036646601,21.3444403806\C,14.190504804
 7,16.7157065773,21.6096359515\C,13.4088534386,15.9646128585,20.7255041
 256\C,13.6740422828,15.6939303132,19.2893631834\C,14.699085603,16.1788
 693854,18.4912595571\C,15.290882685,15.2946370195,17.5171197167\C,16.6
 684307721,15.6197971913,17.3341269022\C,17.6070393892,14.6119975181,17
 .3337194126\C,17.1862320124,13.2607756866,17.5091940547\C,19.008548563
 8,14.784186264,17.8753045674\C,15.8387013385,12.9240288337,17.35716587
 14\C,14.8572956753,13.9787642798,17.3603681658\C,13.7125241504,13.5179
 617759,18.0765703819\C,19.2804643506,13.4594187584,18.716295199\C,13.1
 144228512,14.3761502089,19.002154047\C,12.501259398,13.8405903375,20.1
 812083338\C,18.0310409258,12.6056686909,18.4764474579\C,12.5696077931,
 12.4958386925,20.4787075727\C,13.3970745009,11.6692482826,19.646546260
 4\C,13.9293025966,12.1408351643,18.4500520508\C,15.2982018658,11.81903
 49069,18.0751621025\C,19.2738100715,13.3056860253,21.3599912692\C,19.4
 758449815,13.9609805209,20.1547441652\C,16.1210470741,11.1649262826,18
 .9898806814\C,19.4848757122,15.4035168594,20.1479623838\C,15.551954736
 1,10.6295311054,20.1912149001\C,18.9810266853,15.8902220046,18.9045359
 966\C,16.5408332531,10.6916943495,21.2181951389\C,16.1122939636,10.855
 3260189,22.5395255652\C,16.9173647078,11.5354669073,23.4664552708\C,18
 .0846485867,12.1086533589,23.0188751091\C,18.5251614192,13.3735785126,
 23.6051175868\C,18.3215133584,17.2021459346,21.3128647496\C,17.6522276
 745,17.1829754362,22.5699873001\C,18.2783739333,16.1709896047,23.40772
 74558\C,17.5194054362,15.4427619536,24.3192696441\C,17.7206803655,14.0
 342979852,24.5094386903\C,16.474008741,13.4189263328,25.1680247284\C,1
 6.1070654145,11.9715243259,24.6797471151\C,14.5860177881,11.6682668885
 ,24.2460697363\C,14.7320053579,11.0471948005,22.8720762579\C,13.805023
 2613,11.0824530061,21.8768809509\C,14.2120897033,10.8566458387,20.5179
 285525\H,15.1721904933,18.2955260386,18.3584452847\H,17.1480741949,17.
 7409793059,17.0916192259\H,19.7584731718,14.937161959,17.0946917701\H,
 20.1760006709,12.9345481199,18.3720715125\H,12.94221105,12.7055245622,
 25.181303865\H,14.2082057402,10.9069571385,24.9330660477\H,11.49906297
 24,12.9507803995,23.4855597293\H,11.6555210575,11.2848344463,22.017568
 6094\H,16.3372775942,11.2990844616,25.5089501443\H,16.6246818654,13.37
 74727551,26.2522938116\\Version=ES64L-G16RevA.03\State=1-A\HF=-2521.49
 1208\RMSD=2.890e-09\RMSF=7.757e-05\Dipole=-0.2997581,-0.2785421,0.4893
 958\Quadrupole=-1.02222,-6.8679806,7.8902006,3.9788077,-14.0861623,-16
 .0836529\PG=C01 [X(C66H10)]\\@


      SCIENCE SANS CONSCIENCE N'EST QUE RUINE DE L'AME.

                                                  -- RABELAIS
 Job cpu time:       1 days  2 hours 31 minutes 55.9 seconds.
 Elapsed time:       0 days  0 hours 33 minutes 15.1 seconds.
 File lengths (MBytes):  RWF=    957 Int=      0 D2E=      0 Chk=    119 Scr=      1
 Normal termination of Gaussian 16 at Wed Jul 20 08:20:12 2022.
