 Entering Gaussian System, Link 0=g16
 Input=dihept_10_addons_3.gjf
 Output=dihept_10_addons_3.log
 Initial command:
 /home/mkliu/g16/l1.exe "/data/scratch/Gau-80964.inp" -scrdir="/data/scratch/"
 Entering Link 1 = /home/mkliu/g16/l1.exe PID=     80965.
  
 Copyright (c) 1988,1990,1992,1993,1995,1998,2003,2009,2016,
            Gaussian, Inc.  All Rights Reserved.
  
 This is part of the Gaussian(R) 16 program.  It is based on
 the Gaussian(R) 09 system (copyright 2009, Gaussian, Inc.),
 the Gaussian(R) 03 system (copyright 2003, Gaussian, Inc.),
 the Gaussian(R) 98 system (copyright 1998, Gaussian, Inc.),
 the Gaussian(R) 94 system (copyright 1995, Gaussian, Inc.),
 the Gaussian 92(TM) system (copyright 1992, Gaussian, Inc.),
 the Gaussian 90(TM) system (copyright 1990, Gaussian, Inc.),
 the Gaussian 88(TM) system (copyright 1988, Gaussian, Inc.),
 the Gaussian 86(TM) system (copyright 1986, Carnegie Mellon
 University), and the Gaussian 82(TM) system (copyright 1983,
 Carnegie Mellon University). Gaussian is a federally registered
 trademark of Gaussian, Inc.
  
 This software contains proprietary and confidential information,
 including trade secrets, belonging to Gaussian, Inc.
  
 This software is provided under written license and may be
 used, copied, transmitted, or stored only in accord with that
 written license.
  
 The following legend is applicable only to US Government
 contracts under FAR:
  
                    RESTRICTED RIGHTS LEGEND
  
 Use, reproduction and disclosure by the US Government is
 subject to restrictions as set forth in subparagraphs (a)
 and (c) of the Commercial Computer Software - Restricted
 Rights clause in FAR 52.227-19.
  
 Gaussian, Inc.
 340 Quinnipiac St., Bldg. 40, Wallingford CT 06492
  
  
 ---------------------------------------------------------------
 Warning -- This program may not be used in any manner that
 competes with the business of Gaussian, Inc. or will provide
 assistance to any competitor of Gaussian, Inc.  The licensee
 of this program is prohibited from giving any competitor of
 Gaussian, Inc. access to this program.  By using this program,
 the user acknowledges that Gaussian, Inc. is engaged in the
 business of creating and licensing software in the field of
 computational chemistry and represents and warrants to the
 licensee that it is not a competitor of Gaussian, Inc. and that
 it will not use this program in any manner prohibited above.
 ---------------------------------------------------------------
  

 Cite this work as:
 Gaussian 16, Revision A.03,
 M. J. Frisch, G. W. Trucks, H. B. Schlegel, G. E. Scuseria, 
 M. A. Robb, J. R. Cheeseman, G. Scalmani, V. Barone, 
 G. A. Petersson, H. Nakatsuji, X. Li, M. Caricato, A. V. Marenich, 
 J. Bloino, B. G. Janesko, R. Gomperts, B. Mennucci, H. P. Hratchian, 
 J. V. Ortiz, A. F. Izmaylov, J. L. Sonnenberg, D. Williams-Young, 
 F. Ding, F. Lipparini, F. Egidi, J. Goings, B. Peng, A. Petrone, 
 T. Henderson, D. Ranasinghe, V. G. Zakrzewski, J. Gao, N. Rega, 
 G. Zheng, W. Liang, M. Hada, M. Ehara, K. Toyota, R. Fukuda, 
 J. Hasegawa, M. Ishida, T. Nakajima, Y. Honda, O. Kitao, H. Nakai, 
 T. Vreven, K. Throssell, J. A. Montgomery, Jr., J. E. Peralta, 
 F. Ogliaro, M. J. Bearpark, J. J. Heyd, E. N. Brothers, K. N. Kudin, 
 V. N. Staroverov, T. A. Keith, R. Kobayashi, J. Normand, 
 K. Raghavachari, A. P. Rendell, J. C. Burant, S. S. Iyengar, 
 J. Tomasi, M. Cossi, J. M. Millam, M. Klene, C. Adamo, R. Cammi, 
 J. W. Ochterski, R. L. Martin, K. Morokuma, O. Farkas, 
 J. B. Foresman, and D. J. Fox, Gaussian, Inc., Wallingford CT, 2016.
 
 ******************************************
 Gaussian 16:  ES64L-G16RevA.03 25-Dec-2016
                20-Jul-2022 
 ******************************************
 %mem=10GB
 %chk=dihept_10_addons_3.chk
 %nprocshared=48
 Will use up to   48 processors via shared memory.
 -------------------------------------------------
 #P opt b3lyp/6-311G(d, p) empiricaldispersion=GD3
 -------------------------------------------------
 1/18=20,19=15,26=3,38=1/1,3;
 2/9=110,12=2,17=6,18=5,40=1/2;
 3/5=4,6=6,7=101,11=2,25=1,30=1,71=1,74=-5,124=31/1,2,3;
 4//1;
 5/5=2,38=5/2;
 6/7=2,8=2,9=2,10=2,28=1/1;
 7//1,2,3,16;
 1/18=20,19=15,26=3/3(2);
 2/9=110/2;
 99//99;
 2/9=110/2;
 3/5=4,6=6,7=101,11=2,25=1,30=1,71=1,74=-5,124=31/1,2,3;
 4/5=5,16=3,69=1/1;
 5/5=2,38=5/2;
 7//1,2,3,16;
 1/18=20,19=15,26=3/3(-5);
 2/9=110/2;
 6/7=2,8=2,9=2,10=2,19=2,28=1/1;
 99/9=1/99;
 Leave Link    1 at Wed Jul 20 16:40:26 2022, MaxMem=  1342177280 cpu:               3.0 elap:               0.1
 (Enter /home/mkliu/g16/l101.exe)
 -----
 force
 -----
 Symbolic Z-matrix:
 Charge =  0 Multiplicity = 1
 C                     12.78561   12.07403   21.87485 
 C                     12.80283   13.02391   22.88372 
 C                     12.68153   14.42215   22.56008 
 C                     12.60149   14.83036   21.23185 
 C                     13.47056   15.17253   23.47473 
 C                     14.11752   14.23466   24.38844 
 C                     15.62533   17.31227   18.7445 
 C                     13.7316   12.91114   23.97885 
 C                     15.39049   14.4907   24.82733 
 C                     16.90456   16.98578   17.88623 
 C                     16.05146   15.84508   24.78965 
 C                     15.37552   16.8011   23.74501 
 C                     14.16557   16.26545   23.0236 
 C                     19.1696   14.02839   22.56095 
 C                     16.22538   17.17264   22.57177 
 C                     19.16228   15.40108   22.56019 
 C                     19.23327   16.0386   21.31158 
 C                     17.43454   11.57688   19.32247 
 C                     17.67957   11.27461   20.74287 
 C                     18.44457   12.01654   21.62788 
 C                     18.15381   17.11101   18.79327 
 C                     17.54101   17.32246   20.14352 
 C                     16.14636   17.38153   20.15409 
 C                     15.47488   17.23376   21.36328 
 C                     14.1767   16.62277   21.6362 
 C                     13.36768   15.93838   20.73343 
 C                     13.65119   15.67384   19.31288 
 C                     14.67812   16.15005   18.52623 
 C                     15.2828   15.26066   17.589 
 C                     16.66328   15.58098   17.44963 
 C                     17.58609   14.58152   17.45224 
 C                     17.15571   13.23197   17.59584 
 C                     19.00644   14.70954   17.88666 
 C                     15.81936   12.90464   17.42801 
 C                     14.84882   13.95462   17.42324 
 C                     13.69711   13.49774   18.12111 
 C                     19.23555   13.4088   18.74253 
 C                     13.09873   14.36694   19.02464 
 C                     12.4851   13.83833   20.20368 
 C                     17.99405   12.56135   18.53621 
 C                     12.58102   12.48379   20.51001 
 C                     13.37084   11.62701   19.66471 
 C                     13.90914   12.11906   18.48939 
 C                     15.26826   11.79694   18.12913 
 C                     19.18286   13.25641   21.35757 
 C                     19.37544   13.92243   20.15048 
 C                     16.08494   11.13586   19.03714 
 C                     19.41757   15.31992   20.14392 
 C                     15.50506   10.57051   20.21535 
 C                     19.23447   15.94459   18.79273 
 C                     16.49751   10.60152   21.24631 
 C                     16.08508   10.69723   22.56898 
 C                     16.88279   11.45098   23.47855 
 C                     18.03762   12.06677   23.01649 
 C                     18.42283   13.32307   23.57483 
 C                     18.23498   17.08223   21.30903 
 C                     17.58093   17.05065   22.5558 
 C                     18.40505   16.27251   23.55768 
 C                     17.58589   15.50735   24.62848 
 C                     17.60605   14.01041   24.43429 
 C                     16.3529   13.44702   24.78328 
 C                     16.00867   12.16084   24.36622 
 C                     14.65942   11.87252   23.98424 
 C                     14.69718   10.93163   22.89279 
 C                     13.75918   11.00745   21.87609 
 C                     14.15852   10.77253   20.51523 
 H                     15.15942   18.25942   18.45236 
 H                     16.98381   17.65521   17.02598 
 H                     18.69817   18.01737   18.50931 
 H                     20.17684   16.41805   18.49858 
 H                     19.6771   14.73686   17.0241 
 H                     20.13415   12.86297   18.43531 
 H                     19.10658   16.94356   24.06542 
 H                     18.05566   15.71845   25.59616 
 H                     15.92061   16.32326   25.7656 
 H                     15.09417   17.71558   24.28157 
 
 ITRead=  0  0  0  0  0  0  0  0  0  0  0  0  0  0  0  0  0  0  0  0
 ITRead=  0  0  0  0  0  0  0  0  0  0  0  0  0  0  0  0  0  0  0  0
 ITRead=  0  0  0  0  0  0  0  0  0  0  0  0  0  0  0  0  0  0  0  0
 ITRead=  0  0  0  0  0  0  0  0  0  0  0  0  0  0  0  0
 MicOpt= -1 -1 -1 -1 -1 -1 -1 -1 -1 -1 -1 -1 -1 -1 -1 -1 -1 -1 -1 -1
 MicOpt= -1 -1 -1 -1 -1 -1 -1 -1 -1 -1 -1 -1 -1 -1 -1 -1 -1 -1 -1 -1
 MicOpt= -1 -1 -1 -1 -1 -1 -1 -1 -1 -1 -1 -1 -1 -1 -1 -1 -1 -1 -1 -1
 MicOpt= -1 -1 -1 -1 -1 -1 -1 -1 -1 -1 -1 -1 -1 -1 -1 -1
 NAtoms=     76 NQM=       76 NQMF=       0 NMMI=      0 NMMIF=      0
                NMic=       0 NMicF=      0.
                    Isotopes and Nuclear Properties:
 (Nuclear quadrupole moments (NQMom) in fm**2, nuclear magnetic moments (NMagM)
  in nuclear magnetons)

  Atom         1           2           3           4           5           6           7           8           9          10
 IAtWgt=          12          12          12          12          12          12          12          12          12          12
 AtmWgt=  12.0000000  12.0000000  12.0000000  12.0000000  12.0000000  12.0000000  12.0000000  12.0000000  12.0000000  12.0000000
 NucSpn=           0           0           0           0           0           0           0           0           0           0
 AtZEff=  -0.0000000  -0.0000000  -0.0000000  -0.0000000  -0.0000000  -0.0000000  -0.0000000  -0.0000000  -0.0000000  -0.0000000
 NQMom=    0.0000000   0.0000000   0.0000000   0.0000000   0.0000000   0.0000000   0.0000000   0.0000000   0.0000000   0.0000000
 NMagM=    0.0000000   0.0000000   0.0000000   0.0000000   0.0000000   0.0000000   0.0000000   0.0000000   0.0000000   0.0000000
 AtZNuc=   6.0000000   6.0000000   6.0000000   6.0000000   6.0000000   6.0000000   6.0000000   6.0000000   6.0000000   6.0000000

  Atom        11          12          13          14          15          16          17          18          19          20
 IAtWgt=          12          12          12          12          12          12          12          12          12          12
 AtmWgt=  12.0000000  12.0000000  12.0000000  12.0000000  12.0000000  12.0000000  12.0000000  12.0000000  12.0000000  12.0000000
 NucSpn=           0           0           0           0           0           0           0           0           0           0
 AtZEff=  -0.0000000  -0.0000000  -0.0000000  -0.0000000  -0.0000000  -0.0000000  -0.0000000  -0.0000000  -0.0000000  -0.0000000
 NQMom=    0.0000000   0.0000000   0.0000000   0.0000000   0.0000000   0.0000000   0.0000000   0.0000000   0.0000000   0.0000000
 NMagM=    0.0000000   0.0000000   0.0000000   0.0000000   0.0000000   0.0000000   0.0000000   0.0000000   0.0000000   0.0000000
 AtZNuc=   6.0000000   6.0000000   6.0000000   6.0000000   6.0000000   6.0000000   6.0000000   6.0000000   6.0000000   6.0000000

  Atom        21          22          23          24          25          26          27          28          29          30
 IAtWgt=          12          12          12          12          12          12          12          12          12          12
 AtmWgt=  12.0000000  12.0000000  12.0000000  12.0000000  12.0000000  12.0000000  12.0000000  12.0000000  12.0000000  12.0000000
 NucSpn=           0           0           0           0           0           0           0           0           0           0
 AtZEff=  -0.0000000  -0.0000000  -0.0000000  -0.0000000  -0.0000000  -0.0000000  -0.0000000  -0.0000000  -0.0000000  -0.0000000
 NQMom=    0.0000000   0.0000000   0.0000000   0.0000000   0.0000000   0.0000000   0.0000000   0.0000000   0.0000000   0.0000000
 NMagM=    0.0000000   0.0000000   0.0000000   0.0000000   0.0000000   0.0000000   0.0000000   0.0000000   0.0000000   0.0000000
 AtZNuc=   6.0000000   6.0000000   6.0000000   6.0000000   6.0000000   6.0000000   6.0000000   6.0000000   6.0000000   6.0000000

  Atom        31          32          33          34          35          36          37          38          39          40
 IAtWgt=          12          12          12          12          12          12          12          12          12          12
 AtmWgt=  12.0000000  12.0000000  12.0000000  12.0000000  12.0000000  12.0000000  12.0000000  12.0000000  12.0000000  12.0000000
 NucSpn=           0           0           0           0           0           0           0           0           0           0
 AtZEff=  -0.0000000  -0.0000000  -0.0000000  -0.0000000  -0.0000000  -0.0000000  -0.0000000  -0.0000000  -0.0000000  -0.0000000
 NQMom=    0.0000000   0.0000000   0.0000000   0.0000000   0.0000000   0.0000000   0.0000000   0.0000000   0.0000000   0.0000000
 NMagM=    0.0000000   0.0000000   0.0000000   0.0000000   0.0000000   0.0000000   0.0000000   0.0000000   0.0000000   0.0000000
 AtZNuc=   6.0000000   6.0000000   6.0000000   6.0000000   6.0000000   6.0000000   6.0000000   6.0000000   6.0000000   6.0000000

  Atom        41          42          43          44          45          46          47          48          49          50
 IAtWgt=          12          12          12          12          12          12          12          12          12          12
 AtmWgt=  12.0000000  12.0000000  12.0000000  12.0000000  12.0000000  12.0000000  12.0000000  12.0000000  12.0000000  12.0000000
 NucSpn=           0           0           0           0           0           0           0           0           0           0
 AtZEff=  -0.0000000  -0.0000000  -0.0000000  -0.0000000  -0.0000000  -0.0000000  -0.0000000  -0.0000000  -0.0000000  -0.0000000
 NQMom=    0.0000000   0.0000000   0.0000000   0.0000000   0.0000000   0.0000000   0.0000000   0.0000000   0.0000000   0.0000000
 NMagM=    0.0000000   0.0000000   0.0000000   0.0000000   0.0000000   0.0000000   0.0000000   0.0000000   0.0000000   0.0000000
 AtZNuc=   6.0000000   6.0000000   6.0000000   6.0000000   6.0000000   6.0000000   6.0000000   6.0000000   6.0000000   6.0000000

  Atom        51          52          53          54          55          56          57          58          59          60
 IAtWgt=          12          12          12          12          12          12          12          12          12          12
 AtmWgt=  12.0000000  12.0000000  12.0000000  12.0000000  12.0000000  12.0000000  12.0000000  12.0000000  12.0000000  12.0000000
 NucSpn=           0           0           0           0           0           0           0           0           0           0
 AtZEff=  -0.0000000  -0.0000000  -0.0000000  -0.0000000  -0.0000000  -0.0000000  -0.0000000  -0.0000000  -0.0000000  -0.0000000
 NQMom=    0.0000000   0.0000000   0.0000000   0.0000000   0.0000000   0.0000000   0.0000000   0.0000000   0.0000000   0.0000000
 NMagM=    0.0000000   0.0000000   0.0000000   0.0000000   0.0000000   0.0000000   0.0000000   0.0000000   0.0000000   0.0000000
 AtZNuc=   6.0000000   6.0000000   6.0000000   6.0000000   6.0000000   6.0000000   6.0000000   6.0000000   6.0000000   6.0000000

  Atom        61          62          63          64          65          66          67          68          69          70
 IAtWgt=          12          12          12          12          12          12           1           1           1           1
 AtmWgt=  12.0000000  12.0000000  12.0000000  12.0000000  12.0000000  12.0000000   1.0078250   1.0078250   1.0078250   1.0078250
 NucSpn=           0           0           0           0           0           0           1           1           1           1
 AtZEff=  -0.0000000  -0.0000000  -0.0000000  -0.0000000  -0.0000000  -0.0000000  -0.0000000  -0.0000000  -0.0000000  -0.0000000
 NQMom=    0.0000000   0.0000000   0.0000000   0.0000000   0.0000000   0.0000000   0.0000000   0.0000000   0.0000000   0.0000000
 NMagM=    0.0000000   0.0000000   0.0000000   0.0000000   0.0000000   0.0000000   2.7928460   2.7928460   2.7928460   2.7928460
 AtZNuc=   6.0000000   6.0000000   6.0000000   6.0000000   6.0000000   6.0000000   1.0000000   1.0000000   1.0000000   1.0000000

  Atom        71          72          73          74          75          76
 IAtWgt=           1           1           1           1           1           1
 AtmWgt=   1.0078250   1.0078250   1.0078250   1.0078250   1.0078250   1.0078250
 NucSpn=           1           1           1           1           1           1
 AtZEff=  -0.0000000  -0.0000000  -0.0000000  -0.0000000  -0.0000000  -0.0000000
 NQMom=    0.0000000   0.0000000   0.0000000   0.0000000   0.0000000   0.0000000
 NMagM=    2.7928460   2.7928460   2.7928460   2.7928460   2.7928460   2.7928460
 AtZNuc=   1.0000000   1.0000000   1.0000000   1.0000000   1.0000000   1.0000000
 Leave Link  101 at Wed Jul 20 16:40:26 2022, MaxMem=  1342177280 cpu:              28.4 elap:               0.6
 (Enter /home/mkliu/g16/l103.exe)

 GradGradGradGradGradGradGradGradGradGradGradGradGradGradGradGradGradGrad
 Berny optimization.
 Initialization pass.
                           ----------------------------
                           !    Initial Parameters    !
                           ! (Angstroms and Degrees)  !
 --------------------------                            --------------------------
 ! Name  Definition              Value          Derivative Info.                !
 --------------------------------------------------------------------------------
 ! R1    R(1,2)                  1.3858         estimate D2E/DX2                !
 ! R2    R(1,41)                 1.4396         estimate D2E/DX2                !
 ! R3    R(1,65)                 1.4441         estimate D2E/DX2                !
 ! R4    R(2,3)                  1.4403         estimate D2E/DX2                !
 ! R5    R(2,8)                  1.4404         estimate D2E/DX2                !
 ! R6    R(3,4)                  1.3918         estimate D2E/DX2                !
 ! R7    R(3,5)                  1.4221         estimate D2E/DX2                !
 ! R8    R(4,26)                 1.4364         estimate D2E/DX2                !
 ! R9    R(4,39)                 1.4335         estimate D2E/DX2                !
 ! R10   R(5,6)                  1.4605         estimate D2E/DX2                !
 ! R11   R(5,13)                 1.3715         estimate D2E/DX2                !
 ! R12   R(6,8)                  1.4382         estimate D2E/DX2                !
 ! R13   R(6,9)                  1.3706         estimate D2E/DX2                !
 ! R14   R(7,10)                 1.5747         estimate D2E/DX2                !
 ! R15   R(7,23)                 1.5044         estimate D2E/DX2                !
 ! R16   R(7,28)                 1.5151         estimate D2E/DX2                !
 ! R17   R(7,67)                 1.0952         estimate D2E/DX2                !
 ! R18   R(8,63)                 1.3927         estimate D2E/DX2                !
 ! R19   R(9,11)                 1.5075         estimate D2E/DX2                !
 ! R20   R(9,61)                 1.4204         estimate D2E/DX2                !
 ! R21   R(10,21)                1.5489         estimate D2E/DX2                !
 ! R22   R(10,30)                1.4907         estimate D2E/DX2                !
 ! R23   R(10,68)                1.0929         estimate D2E/DX2                !
 ! R24   R(11,12)                1.5691         estimate D2E/DX2                !
 ! R25   R(11,59)                1.5794         estimate D2E/DX2                !
 ! R26   R(11,75)                1.0947         estimate D2E/DX2                !
 ! R27   R(12,13)                1.5071         estimate D2E/DX2                !
 ! R28   R(12,15)                1.4956         estimate D2E/DX2                !
 ! R29   R(12,76)                1.097          estimate D2E/DX2                !
 ! R30   R(13,25)                1.4327         estimate D2E/DX2                !
 ! R31   R(14,16)                1.3727         estimate D2E/DX2                !
 ! R32   R(14,45)                1.4298         estimate D2E/DX2                !
 ! R33   R(14,55)                1.4433         estimate D2E/DX2                !
 ! R34   R(15,24)                1.4239         estimate D2E/DX2                !
 ! R35   R(15,57)                1.3611         estimate D2E/DX2                !
 ! R36   R(16,17)                1.4037         estimate D2E/DX2                !
 ! R37   R(16,58)                1.5257         estimate D2E/DX2                !
 ! R38   R(17,48)                1.3834         estimate D2E/DX2                !
 ! R39   R(17,56)                1.4442         estimate D2E/DX2                !
 ! R40   R(18,19)                1.4727         estimate D2E/DX2                !
 ! R41   R(18,40)                1.3786         estimate D2E/DX2                !
 ! R42   R(18,47)                1.4482         estimate D2E/DX2                !
 ! R43   R(19,20)                1.3853         estimate D2E/DX2                !
 ! R44   R(19,51)                1.4504         estimate D2E/DX2                !
 ! R45   R(20,45)                1.4681         estimate D2E/DX2                !
 ! R46   R(20,54)                1.4479         estimate D2E/DX2                !
 ! R47   R(21,22)                1.4978         estimate D2E/DX2                !
 ! R48   R(21,50)                1.5901         estimate D2E/DX2                !
 ! R49   R(21,69)                1.0947         estimate D2E/DX2                !
 ! R50   R(22,23)                1.3959         estimate D2E/DX2                !
 ! R51   R(22,56)                1.3776         estimate D2E/DX2                !
 ! R52   R(23,24)                1.391          estimate D2E/DX2                !
 ! R53   R(24,25)                1.4605         estimate D2E/DX2                !
 ! R54   R(25,26)                1.3921         estimate D2E/DX2                !
 ! R55   R(26,27)                1.4725         estimate D2E/DX2                !
 ! R56   R(27,28)                1.3785         estimate D2E/DX2                !
 ! R57   R(27,38)                1.4479         estimate D2E/DX2                !
 ! R58   R(28,29)                1.4266         estimate D2E/DX2                !
 ! R59   R(29,30)                1.424          estimate D2E/DX2                !
 ! R60   R(29,35)                1.3862         estimate D2E/DX2                !
 ! R61   R(30,31)                1.3603         estimate D2E/DX2                !
 ! R62   R(31,32)                1.4238         estimate D2E/DX2                !
 ! R63   R(31,33)                1.4908         estimate D2E/DX2                !
 ! R64   R(32,34)                1.386          estimate D2E/DX2                !
 ! R65   R(32,40)                1.4272         estimate D2E/DX2                !
 ! R66   R(33,37)                1.5738         estimate D2E/DX2                !
 ! R67   R(33,50)                1.5486         estimate D2E/DX2                !
 ! R68   R(33,71)                1.0929         estimate D2E/DX2                !
 ! R69   R(34,35)                1.4298         estimate D2E/DX2                !
 ! R70   R(34,44)                1.4221         estimate D2E/DX2                !
 ! R71   R(35,36)                1.422          estimate D2E/DX2                !
 ! R72   R(36,38)                1.3892         estimate D2E/DX2                !
 ! R73   R(36,43)                1.4427         estimate D2E/DX2                !
 ! R74   R(37,40)                1.5173         estimate D2E/DX2                !
 ! R75   R(37,46)                1.5052         estimate D2E/DX2                !
 ! R76   R(37,72)                1.0954         estimate D2E/DX2                !
 ! R77   R(38,39)                1.4304         estimate D2E/DX2                !
 ! R78   R(39,41)                1.3921         estimate D2E/DX2                !
 ! R79   R(41,42)                1.4396         estimate D2E/DX2                !
 ! R80   R(42,43)                1.3832         estimate D2E/DX2                !
 ! R81   R(42,66)                1.4401         estimate D2E/DX2                !
 ! R82   R(43,44)                1.4425         estimate D2E/DX2                !
 ! R83   R(44,47)                1.3887         estimate D2E/DX2                !
 ! R84   R(45,46)                1.392          estimate D2E/DX2                !
 ! R85   R(46,48)                1.3981         estimate D2E/DX2                !
 ! R86   R(47,49)                1.4297         estimate D2E/DX2                !
 ! R87   R(48,50)                1.4998         estimate D2E/DX2                !
 ! R88   R(49,51)                1.4314         estimate D2E/DX2                !
 ! R89   R(49,66)                1.3942         estimate D2E/DX2                !
 ! R90   R(50,70)                1.0949         estimate D2E/DX2                !
 ! R91   R(51,52)                1.3888         estimate D2E/DX2                !
 ! R92   R(52,53)                1.4254         estimate D2E/DX2                !
 ! R93   R(52,64)                1.4443         estimate D2E/DX2                !
 ! R94   R(53,54)                1.3879         estimate D2E/DX2                !
 ! R95   R(53,62)                1.4339         estimate D2E/DX2                !
 ! R96   R(54,55)                1.4277         estimate D2E/DX2                !
 ! R97   R(55,60)                1.3705         estimate D2E/DX2                !
 ! R98   R(56,57)                1.4083         estimate D2E/DX2                !
 ! R99   R(57,58)                1.5128         estimate D2E/DX2                !
 ! R100  R(58,59)                1.5502         estimate D2E/DX2                !
 ! R101  R(58,73)                1.0956         estimate D2E/DX2                !
 ! R102  R(59,60)                1.5096         estimate D2E/DX2                !
 ! R103  R(59,74)                1.0962         estimate D2E/DX2                !
 ! R104  R(60,61)                1.4176         estimate D2E/DX2                !
 ! R105  R(61,62)                1.3952         estimate D2E/DX2                !
 ! R106  R(62,63)                1.4316         estimate D2E/DX2                !
 ! R107  R(63,64)                1.4415         estimate D2E/DX2                !
 ! R108  R(64,65)                1.3854         estimate D2E/DX2                !
 ! R109  R(65,66)                1.4376         estimate D2E/DX2                !
 ! A1    A(2,1,41)             119.7929         estimate D2E/DX2                !
 ! A2    A(2,1,65)             119.8183         estimate D2E/DX2                !
 ! A3    A(41,1,65)            107.8685         estimate D2E/DX2                !
 ! A4    A(1,2,3)              120.0518         estimate D2E/DX2                !
 ! A5    A(1,2,8)              120.5223         estimate D2E/DX2                !
 ! A6    A(3,2,8)              107.5269         estimate D2E/DX2                !
 ! A7    A(2,3,4)              120.2647         estimate D2E/DX2                !
 ! A8    A(2,3,5)              108.7234         estimate D2E/DX2                !
 ! A9    A(4,3,5)              119.4024         estimate D2E/DX2                !
 ! A10   A(3,4,26)             121.7834         estimate D2E/DX2                !
 ! A11   A(3,4,39)             119.0901         estimate D2E/DX2                !
 ! A12   A(26,4,39)            109.1634         estimate D2E/DX2                !
 ! A13   A(3,5,6)              108.0187         estimate D2E/DX2                !
 ! A14   A(3,5,13)             119.3469         estimate D2E/DX2                !
 ! A15   A(6,5,13)             119.5398         estimate D2E/DX2                !
 ! A16   A(5,6,8)              107.0932         estimate D2E/DX2                !
 ! A17   A(5,6,9)              119.4581         estimate D2E/DX2                !
 ! A18   A(8,6,9)              120.8177         estimate D2E/DX2                !
 ! A19   A(10,7,23)            103.8206         estimate D2E/DX2                !
 ! A20   A(10,7,28)            105.6828         estimate D2E/DX2                !
 ! A21   A(10,7,67)            112.3031         estimate D2E/DX2                !
 ! A22   A(23,7,28)            112.7565         estimate D2E/DX2                !
 ! A23   A(23,7,67)            110.9434         estimate D2E/DX2                !
 ! A24   A(28,7,67)            111.0384         estimate D2E/DX2                !
 ! A25   A(2,8,6)              108.5122         estimate D2E/DX2                !
 ! A26   A(2,8,63)             119.3999         estimate D2E/DX2                !
 ! A27   A(6,8,63)             120.4268         estimate D2E/DX2                !
 ! A28   A(6,9,11)             124.5426         estimate D2E/DX2                !
 ! A29   A(6,9,61)             118.8235         estimate D2E/DX2                !
 ! A30   A(11,9,61)            111.2412         estimate D2E/DX2                !
 ! A31   A(7,10,21)            108.6187         estimate D2E/DX2                !
 ! A32   A(7,10,30)            102.9162         estimate D2E/DX2                !
 ! A33   A(7,10,68)            111.1566         estimate D2E/DX2                !
 ! A34   A(21,10,30)           112.225          estimate D2E/DX2                !
 ! A35   A(21,10,68)           110.6674         estimate D2E/DX2                !
 ! A36   A(30,10,68)           111.0033         estimate D2E/DX2                !
 ! A37   A(9,11,12)            112.0334         estimate D2E/DX2                !
 ! A38   A(9,11,59)            103.6739         estimate D2E/DX2                !
 ! A39   A(9,11,75)            108.5276         estimate D2E/DX2                !
 ! A40   A(12,11,59)           118.7419         estimate D2E/DX2                !
 ! A41   A(12,11,75)           106.0164         estimate D2E/DX2                !
 ! A42   A(59,11,75)           107.4886         estimate D2E/DX2                !
 ! A43   A(11,12,13)           116.6136         estimate D2E/DX2                !
 ! A44   A(11,12,15)           115.3927         estimate D2E/DX2                !
 ! A45   A(11,12,76)           107.0238         estimate D2E/DX2                !
 ! A46   A(13,12,15)            99.7295         estimate D2E/DX2                !
 ! A47   A(13,12,76)           108.9367         estimate D2E/DX2                !
 ! A48   A(15,12,76)           108.8054         estimate D2E/DX2                !
 ! A49   A(5,13,12)            122.1822         estimate D2E/DX2                !
 ! A50   A(5,13,25)            121.413          estimate D2E/DX2                !
 ! A51   A(12,13,25)           111.633          estimate D2E/DX2                !
 ! A52   A(16,14,45)           122.6499         estimate D2E/DX2                !
 ! A53   A(16,14,55)           119.0985         estimate D2E/DX2                !
 ! A54   A(45,14,55)           109.4014         estimate D2E/DX2                !
 ! A55   A(12,15,24)           112.145          estimate D2E/DX2                !
 ! A56   A(12,15,57)           123.5636         estimate D2E/DX2                !
 ! A57   A(24,15,57)           121.2524         estimate D2E/DX2                !
 ! A58   A(14,16,17)           117.0247         estimate D2E/DX2                !
 ! A59   A(14,16,58)           124.9906         estimate D2E/DX2                !
 ! A60   A(17,16,58)           110.3185         estimate D2E/DX2                !
 ! A61   A(16,17,48)           121.437          estimate D2E/DX2                !
 ! A62   A(16,17,56)           107.1454         estimate D2E/DX2                !
 ! A63   A(48,17,56)           117.7742         estimate D2E/DX2                !
 ! A64   A(19,18,40)           128.9858         estimate D2E/DX2                !
 ! A65   A(19,18,47)           106.4129         estimate D2E/DX2                !
 ! A66   A(40,18,47)           118.9032         estimate D2E/DX2                !
 ! A67   A(18,19,20)           126.736          estimate D2E/DX2                !
 ! A68   A(18,19,51)           107.1227         estimate D2E/DX2                !
 ! A69   A(20,19,51)           118.4803         estimate D2E/DX2                !
 ! A70   A(19,20,45)           127.7631         estimate D2E/DX2                !
 ! A71   A(19,20,54)           118.4299         estimate D2E/DX2                !
 ! A72   A(45,20,54)           106.7759         estimate D2E/DX2                !
 ! A73   A(10,21,22)           102.0843         estimate D2E/DX2                !
 ! A74   A(10,21,50)           119.251          estimate D2E/DX2                !
 ! A75   A(10,21,69)           108.4268         estimate D2E/DX2                !
 ! A76   A(22,21,50)           112.4529         estimate D2E/DX2                !
 ! A77   A(22,21,69)           108.6871         estimate D2E/DX2                !
 ! A78   A(50,21,69)           105.6227         estimate D2E/DX2                !
 ! A79   A(21,22,23)           114.933          estimate D2E/DX2                !
 ! A80   A(21,22,56)           122.1396         estimate D2E/DX2                !
 ! A81   A(23,22,56)           120.2828         estimate D2E/DX2                !
 ! A82   A(7,23,22)            109.6924         estimate D2E/DX2                !
 ! A83   A(7,23,24)            129.9738         estimate D2E/DX2                !
 ! A84   A(22,23,24)           118.9718         estimate D2E/DX2                !
 ! A85   A(15,24,23)           119.2041         estimate D2E/DX2                !
 ! A86   A(15,24,25)           106.9742         estimate D2E/DX2                !
 ! A87   A(23,24,25)           129.4917         estimate D2E/DX2                !
 ! A88   A(13,25,24)           106.9893         estimate D2E/DX2                !
 ! A89   A(13,25,26)           120.0571         estimate D2E/DX2                !
 ! A90   A(24,25,26)           126.9454         estimate D2E/DX2                !
 ! A91   A(4,26,25)            117.6592         estimate D2E/DX2                !
 ! A92   A(4,26,27)            107.39           estimate D2E/DX2                !
 ! A93   A(25,26,27)           127.0162         estimate D2E/DX2                !
 ! A94   A(26,27,28)           129.1903         estimate D2E/DX2                !
 ! A95   A(26,27,38)           106.3048         estimate D2E/DX2                !
 ! A96   A(28,27,38)           118.8479         estimate D2E/DX2                !
 ! A97   A(7,28,27)            130.4307         estimate D2E/DX2                !
 ! A98   A(7,28,29)            107.9318         estimate D2E/DX2                !
 ! A99   A(27,28,29)           118.3802         estimate D2E/DX2                !
 ! A100  A(28,29,30)           109.5713         estimate D2E/DX2                !
 ! A101  A(28,29,35)           122.2257         estimate D2E/DX2                !
 ! A102  A(30,29,35)           120.2479         estimate D2E/DX2                !
 ! A103  A(10,30,29)           109.8905         estimate D2E/DX2                !
 ! A104  A(10,30,31)           125.5918         estimate D2E/DX2                !
 ! A105  A(29,30,31)           119.4841         estimate D2E/DX2                !
 ! A106  A(30,31,32)           119.4425         estimate D2E/DX2                !
 ! A107  A(30,31,33)           125.7164         estimate D2E/DX2                !
 ! A108  A(32,31,33)           109.877          estimate D2E/DX2                !
 ! A109  A(31,32,34)           120.2037         estimate D2E/DX2                !
 ! A110  A(31,32,40)           109.5292         estimate D2E/DX2                !
 ! A111  A(34,32,40)           122.3551         estimate D2E/DX2                !
 ! A112  A(31,33,37)           103.0725         estimate D2E/DX2                !
 ! A113  A(31,33,50)           112.2876         estimate D2E/DX2                !
 ! A114  A(31,33,71)           110.9035         estimate D2E/DX2                !
 ! A115  A(37,33,50)           108.6337         estimate D2E/DX2                !
 ! A116  A(37,33,71)           111.1315         estimate D2E/DX2                !
 ! A117  A(50,33,71)           110.5768         estimate D2E/DX2                !
 ! A118  A(32,34,35)           118.7783         estimate D2E/DX2                !
 ! A119  A(32,34,44)           119.8607         estimate D2E/DX2                !
 ! A120  A(35,34,44)           108.0949         estimate D2E/DX2                !
 ! A121  A(29,35,34)           118.6177         estimate D2E/DX2                !
 ! A122  A(29,35,36)           119.8403         estimate D2E/DX2                !
 ! A123  A(34,35,36)           108.1901         estimate D2E/DX2                !
 ! A124  A(35,36,38)           117.8397         estimate D2E/DX2                !
 ! A125  A(35,36,43)           108.2569         estimate D2E/DX2                !
 ! A126  A(38,36,43)           119.6828         estimate D2E/DX2                !
 ! A127  A(33,37,40)           105.5786         estimate D2E/DX2                !
 ! A128  A(33,37,46)           103.8969         estimate D2E/DX2                !
 ! A129  A(33,37,72)           112.2561         estimate D2E/DX2                !
 ! A130  A(40,37,46)           113.1934         estimate D2E/DX2                !
 ! A131  A(40,37,72)           110.7816         estimate D2E/DX2                !
 ! A132  A(46,37,72)           110.8636         estimate D2E/DX2                !
 ! A133  A(27,38,36)           121.9982         estimate D2E/DX2                !
 ! A134  A(27,38,39)           109.461          estimate D2E/DX2                !
 ! A135  A(36,38,39)           119.3172         estimate D2E/DX2                !
 ! A136  A(4,39,38)            107.4962         estimate D2E/DX2                !
 ! A137  A(4,39,41)            120.6614         estimate D2E/DX2                !
 ! A138  A(38,39,41)           120.758          estimate D2E/DX2                !
 ! A139  A(18,40,32)           118.2262         estimate D2E/DX2                !
 ! A140  A(18,40,37)           130.7992         estimate D2E/DX2                !
 ! A141  A(32,40,37)           107.9268         estimate D2E/DX2                !
 ! A142  A(1,41,39)            119.6941         estimate D2E/DX2                !
 ! A143  A(1,41,42)            108.0177         estimate D2E/DX2                !
 ! A144  A(39,41,42)           119.1901         estimate D2E/DX2                !
 ! A145  A(41,42,43)           120.0483         estimate D2E/DX2                !
 ! A146  A(41,42,66)           107.8442         estimate D2E/DX2                !
 ! A147  A(43,42,66)           120.0027         estimate D2E/DX2                !
 ! A148  A(36,43,42)           119.9775         estimate D2E/DX2                !
 ! A149  A(36,43,44)           106.7459         estimate D2E/DX2                !
 ! A150  A(42,43,44)           119.9637         estimate D2E/DX2                !
 ! A151  A(34,44,43)           108.3203         estimate D2E/DX2                !
 ! A152  A(34,44,47)           117.7274         estimate D2E/DX2                !
 ! A153  A(43,44,47)           119.8092         estimate D2E/DX2                !
 ! A154  A(14,45,20)           107.2388         estimate D2E/DX2                !
 ! A155  A(14,45,46)           118.2158         estimate D2E/DX2                !
 ! A156  A(20,45,46)           129.2936         estimate D2E/DX2                !
 ! A157  A(37,46,45)           129.4188         estimate D2E/DX2                !
 ! A158  A(37,46,48)           109.8457         estimate D2E/DX2                !
 ! A159  A(45,46,48)           119.1085         estimate D2E/DX2                !
 ! A160  A(18,47,44)           122.1338         estimate D2E/DX2                !
 ! A161  A(18,47,49)           109.6357         estimate D2E/DX2                !
 ! A162  A(44,47,49)           119.2453         estimate D2E/DX2                !
 ! A163  A(17,48,46)           120.7487         estimate D2E/DX2                !
 ! A164  A(17,48,50)           121.8546         estimate D2E/DX2                !
 ! A165  A(46,48,50)           114.6355         estimate D2E/DX2                !
 ! A166  A(47,49,51)           107.6846         estimate D2E/DX2                !
 ! A167  A(47,49,66)           120.7756         estimate D2E/DX2                !
 ! A168  A(51,49,66)           120.7689         estimate D2E/DX2                !
 ! A169  A(21,50,33)           119.0223         estimate D2E/DX2                !
 ! A170  A(21,50,48)           112.8416         estimate D2E/DX2                !
 ! A171  A(21,50,70)           105.5353         estimate D2E/DX2                !
 ! A172  A(33,50,48)           102.2935         estimate D2E/DX2                !
 ! A173  A(33,50,70)           108.3255         estimate D2E/DX2                !
 ! A174  A(48,50,70)           108.4853         estimate D2E/DX2                !
 ! A175  A(19,51,49)           108.9726         estimate D2E/DX2                !
 ! A176  A(19,51,52)           122.7254         estimate D2E/DX2                !
 ! A177  A(49,51,52)           118.7877         estimate D2E/DX2                !
 ! A178  A(51,52,53)           118.5537         estimate D2E/DX2                !
 ! A179  A(51,52,64)           120.6688         estimate D2E/DX2                !
 ! A180  A(53,52,64)           107.9927         estimate D2E/DX2                !
 ! A181  A(52,53,54)           119.1977         estimate D2E/DX2                !
 ! A182  A(52,53,62)           108.4009         estimate D2E/DX2                !
 ! A183  A(54,53,62)           119.5837         estimate D2E/DX2                !
 ! A184  A(20,54,53)           122.5315         estimate D2E/DX2                !
 ! A185  A(20,54,55)           109.2536         estimate D2E/DX2                !
 ! A186  A(53,54,55)           118.993          estimate D2E/DX2                !
 ! A187  A(14,55,54)           107.151          estimate D2E/DX2                !
 ! A188  A(14,55,60)           120.2521         estimate D2E/DX2                !
 ! A189  A(54,55,60)           121.7194         estimate D2E/DX2                !
 ! A190  A(17,56,22)           118.4069         estimate D2E/DX2                !
 ! A191  A(17,56,57)           107.6539         estimate D2E/DX2                !
 ! A192  A(22,56,57)           121.2635         estimate D2E/DX2                !
 ! A193  A(15,57,56)           118.0939         estimate D2E/DX2                !
 ! A194  A(15,57,58)           125.5125         estimate D2E/DX2                !
 ! A195  A(56,57,58)           110.1728         estimate D2E/DX2                !
 ! A196  A(16,58,57)            97.5381         estimate D2E/DX2                !
 ! A197  A(16,58,59)           115.5912         estimate D2E/DX2                !
 ! A198  A(16,58,73)           109.5753         estimate D2E/DX2                !
 ! A199  A(57,58,59)           115.0555         estimate D2E/DX2                !
 ! A200  A(57,58,73)           109.9208         estimate D2E/DX2                !
 ! A201  A(59,58,73)           108.6968         estimate D2E/DX2                !
 ! A202  A(11,59,58)           118.5752         estimate D2E/DX2                !
 ! A203  A(11,59,60)           103.7766         estimate D2E/DX2                !
 ! A204  A(11,59,74)           106.564          estimate D2E/DX2                !
 ! A205  A(58,59,60)           113.1744         estimate D2E/DX2                !
 ! A206  A(58,59,74)           106.7541         estimate D2E/DX2                !
 ! A207  A(60,59,74)           107.3852         estimate D2E/DX2                !
 ! A208  A(55,60,59)           125.8701         estimate D2E/DX2                !
 ! A209  A(55,60,61)           118.8101         estimate D2E/DX2                !
 ! A210  A(59,60,61)           110.5248         estimate D2E/DX2                !
 ! A211  A(9,61,60)            108.3359         estimate D2E/DX2                !
 ! A212  A(9,61,62)            121.2959         estimate D2E/DX2                !
 ! A213  A(60,61,62)           120.7217         estimate D2E/DX2                !
 ! A214  A(53,62,61)           119.4075         estimate D2E/DX2                !
 ! A215  A(53,62,63)           108.0391         estimate D2E/DX2                !
 ! A216  A(61,62,63)           119.8633         estimate D2E/DX2                !
 ! A217  A(8,63,62)            118.6014         estimate D2E/DX2                !
 ! A218  A(8,63,64)            120.0858         estimate D2E/DX2                !
 ! A219  A(62,63,64)           107.9861         estimate D2E/DX2                !
 ! A220  A(52,64,63)           107.5088         estimate D2E/DX2                !
 ! A221  A(52,64,65)           119.6683         estimate D2E/DX2                !
 ! A222  A(63,64,65)           120.1452         estimate D2E/DX2                !
 ! A223  A(1,65,64)            119.8358         estimate D2E/DX2                !
 ! A224  A(1,65,66)            107.8882         estimate D2E/DX2                !
 ! A225  A(64,65,66)           119.8473         estimate D2E/DX2                !
 ! A226  A(42,66,49)           119.1555         estimate D2E/DX2                !
 ! A227  A(42,66,65)           108.0699         estimate D2E/DX2                !
 ! A228  A(49,66,65)           119.7076         estimate D2E/DX2                !
 ! D1    D(41,1,2,3)            -3.0142         estimate D2E/DX2                !
 ! D2    D(41,1,2,8)          -141.1725         estimate D2E/DX2                !
 ! D3    D(65,1,2,3)           134.3486         estimate D2E/DX2                !
 ! D4    D(65,1,2,8)            -3.8097         estimate D2E/DX2                !
 ! D5    D(2,1,41,39)            3.9829         estimate D2E/DX2                !
 ! D6    D(2,1,41,42)          144.8668         estimate D2E/DX2                !
 ! D7    D(65,1,41,39)        -137.8862         estimate D2E/DX2                !
 ! D8    D(65,1,41,42)           2.9978         estimate D2E/DX2                !
 ! D9    D(2,1,65,64)            0.6298         estimate D2E/DX2                !
 ! D10   D(2,1,65,66)         -141.369          estimate D2E/DX2                !
 ! D11   D(41,1,65,64)         142.4875         estimate D2E/DX2                !
 ! D12   D(41,1,65,66)           0.4886         estimate D2E/DX2                !
 ! D13   D(1,2,3,4)             -2.6272         estimate D2E/DX2                !
 ! D14   D(1,2,3,5)           -145.5621         estimate D2E/DX2                !
 ! D15   D(8,2,3,4)            140.3154         estimate D2E/DX2                !
 ! D16   D(8,2,3,5)             -2.6195         estimate D2E/DX2                !
 ! D17   D(1,2,8,6)            146.3783         estimate D2E/DX2                !
 ! D18   D(1,2,8,63)             3.0868         estimate D2E/DX2                !
 ! D19   D(3,2,8,6)              3.644          estimate D2E/DX2                !
 ! D20   D(3,2,8,63)          -139.6475         estimate D2E/DX2                !
 ! D21   D(2,3,4,26)          -134.7029         estimate D2E/DX2                !
 ! D22   D(2,3,4,39)             7.1712         estimate D2E/DX2                !
 ! D23   D(5,3,4,26)             4.3606         estimate D2E/DX2                !
 ! D24   D(5,3,4,39)           146.2347         estimate D2E/DX2                !
 ! D25   D(2,3,5,6)              0.6114         estimate D2E/DX2                !
 ! D26   D(2,3,5,13)           141.6596         estimate D2E/DX2                !
 ! D27   D(4,3,5,6)           -142.6946         estimate D2E/DX2                !
 ! D28   D(4,3,5,13)            -1.6463         estimate D2E/DX2                !
 ! D29   D(3,4,26,25)           -1.6455         estimate D2E/DX2                !
 ! D30   D(3,4,26,27)          149.5675         estimate D2E/DX2                !
 ! D31   D(39,4,26,25)        -146.8142         estimate D2E/DX2                !
 ! D32   D(39,4,26,27)           4.3987         estimate D2E/DX2                !
 ! D33   D(3,4,39,38)         -150.3266         estimate D2E/DX2                !
 ! D34   D(3,4,39,41)           -6.2062         estimate D2E/DX2                !
 ! D35   D(26,4,39,38)          -4.0786         estimate D2E/DX2                !
 ! D36   D(26,4,39,41)         140.0418         estimate D2E/DX2                !
 ! D37   D(3,5,6,8)              1.6312         estimate D2E/DX2                !
 ! D38   D(3,5,6,9)            143.747          estimate D2E/DX2                !
 ! D39   D(13,5,6,8)          -139.3289         estimate D2E/DX2                !
 ! D40   D(13,5,6,9)             2.7869         estimate D2E/DX2                !
 ! D41   D(3,5,13,12)         -157.1507         estimate D2E/DX2                !
 ! D42   D(3,5,13,25)           -3.6793         estimate D2E/DX2                !
 ! D43   D(6,5,13,12)          -20.5559         estimate D2E/DX2                !
 ! D44   D(6,5,13,25)          132.9155         estimate D2E/DX2                !
 ! D45   D(5,6,8,2)             -3.2558         estimate D2E/DX2                !
 ! D46   D(5,6,8,63)           139.5916         estimate D2E/DX2                !
 ! D47   D(9,6,8,2)           -144.7505         estimate D2E/DX2                !
 ! D48   D(9,6,8,63)            -1.9031         estimate D2E/DX2                !
 ! D49   D(5,6,9,11)            19.2292         estimate D2E/DX2                !
 ! D50   D(5,6,9,61)          -132.5146         estimate D2E/DX2                !
 ! D51   D(8,6,9,11)           156.1157         estimate D2E/DX2                !
 ! D52   D(8,6,9,61)             4.372          estimate D2E/DX2                !
 ! D53   D(23,7,10,21)          -9.3371         estimate D2E/DX2                !
 ! D54   D(23,7,10,30)         109.7904         estimate D2E/DX2                !
 ! D55   D(23,7,10,68)        -131.3246         estimate D2E/DX2                !
 ! D56   D(28,7,10,21)        -128.2069         estimate D2E/DX2                !
 ! D57   D(28,7,10,30)          -9.0793         estimate D2E/DX2                !
 ! D58   D(28,7,10,68)         109.8057         estimate D2E/DX2                !
 ! D59   D(67,7,10,21)         110.582          estimate D2E/DX2                !
 ! D60   D(67,7,10,30)        -130.2905         estimate D2E/DX2                !
 ! D61   D(67,7,10,68)         -11.4055         estimate D2E/DX2                !
 ! D62   D(10,7,23,22)           8.1525         estimate D2E/DX2                !
 ! D63   D(10,7,23,24)        -158.1039         estimate D2E/DX2                !
 ! D64   D(28,7,23,22)         122.0474         estimate D2E/DX2                !
 ! D65   D(28,7,23,24)         -44.209          estimate D2E/DX2                !
 ! D66   D(67,7,23,22)        -112.6861         estimate D2E/DX2                !
 ! D67   D(67,7,23,24)          81.0575         estimate D2E/DX2                !
 ! D68   D(10,7,28,27)         155.963          estimate D2E/DX2                !
 ! D69   D(10,7,28,29)          -2.7911         estimate D2E/DX2                !
 ! D70   D(23,7,28,27)          43.2052         estimate D2E/DX2                !
 ! D71   D(23,7,28,29)        -115.5489         estimate D2E/DX2                !
 ! D72   D(67,7,28,27)         -82.0096         estimate D2E/DX2                !
 ! D73   D(67,7,28,29)         119.2363         estimate D2E/DX2                !
 ! D74   D(2,8,63,62)          137.0449         estimate D2E/DX2                !
 ! D75   D(2,8,63,64)            0.7955         estimate D2E/DX2                !
 ! D76   D(6,8,63,62)           -1.8573         estimate D2E/DX2                !
 ! D77   D(6,8,63,64)         -138.1067         estimate D2E/DX2                !
 ! D78   D(6,9,11,12)          -21.1386         estimate D2E/DX2                !
 ! D79   D(6,9,11,59)         -150.3619         estimate D2E/DX2                !
 ! D80   D(6,9,11,75)           95.5763         estimate D2E/DX2                !
 ! D81   D(61,9,11,12)         132.4384         estimate D2E/DX2                !
 ! D82   D(61,9,11,59)           3.2151         estimate D2E/DX2                !
 ! D83   D(61,9,11,75)        -110.8467         estimate D2E/DX2                !
 ! D84   D(6,9,61,60)          143.0666         estimate D2E/DX2                !
 ! D85   D(6,9,61,62)           -3.1667         estimate D2E/DX2                !
 ! D86   D(11,9,61,60)         -12.2011         estimate D2E/DX2                !
 ! D87   D(11,9,61,62)        -158.4344         estimate D2E/DX2                !
 ! D88   D(7,10,21,22)           6.9663         estimate D2E/DX2                !
 ! D89   D(7,10,21,50)         131.5469         estimate D2E/DX2                !
 ! D90   D(7,10,21,69)        -107.6602         estimate D2E/DX2                !
 ! D91   D(30,10,21,22)       -106.1413         estimate D2E/DX2                !
 ! D92   D(30,10,21,50)         18.4394         estimate D2E/DX2                !
 ! D93   D(30,10,21,69)        139.2323         estimate D2E/DX2                !
 ! D94   D(68,10,21,22)        129.2513         estimate D2E/DX2                !
 ! D95   D(68,10,21,50)       -106.1681         estimate D2E/DX2                !
 ! D96   D(68,10,21,69)         14.6249         estimate D2E/DX2                !
 ! D97   D(7,10,30,29)          18.28           estimate D2E/DX2                !
 ! D98   D(7,10,30,31)        -136.2218         estimate D2E/DX2                !
 ! D99   D(21,10,30,29)        134.8666         estimate D2E/DX2                !
 ! D100  D(21,10,30,31)        -19.6352         estimate D2E/DX2                !
 ! D101  D(68,10,30,29)       -100.7118         estimate D2E/DX2                !
 ! D102  D(68,10,30,31)        104.7863         estimate D2E/DX2                !
 ! D103  D(9,11,12,13)           3.2692         estimate D2E/DX2                !
 ! D104  D(9,11,12,15)        -113.2873         estimate D2E/DX2                !
 ! D105  D(9,11,12,76)         125.4797         estimate D2E/DX2                !
 ! D106  D(59,11,12,13)        124.1205         estimate D2E/DX2                !
 ! D107  D(59,11,12,15)          7.5639         estimate D2E/DX2                !
 ! D108  D(59,11,12,76)       -113.6691         estimate D2E/DX2                !
 ! D109  D(75,11,12,13)       -114.9479         estimate D2E/DX2                !
 ! D110  D(75,11,12,15)        128.4956         estimate D2E/DX2                !
 ! D111  D(75,11,12,76)          7.2626         estimate D2E/DX2                !
 ! D112  D(9,11,59,58)         132.7594         estimate D2E/DX2                !
 ! D113  D(9,11,59,60)           6.2515         estimate D2E/DX2                !
 ! D114  D(9,11,59,74)        -106.9453         estimate D2E/DX2                !
 ! D115  D(12,11,59,58)          7.7457         estimate D2E/DX2                !
 ! D116  D(12,11,59,60)       -118.7622         estimate D2E/DX2                !
 ! D117  D(12,11,59,74)        128.041          estimate D2E/DX2                !
 ! D118  D(75,11,59,58)       -112.4353         estimate D2E/DX2                !
 ! D119  D(75,11,59,60)        121.0568         estimate D2E/DX2                !
 ! D120  D(75,11,59,74)          7.86           estimate D2E/DX2                !
 ! D121  D(11,12,13,5)          16.6936         estimate D2E/DX2                !
 ! D122  D(11,12,13,25)       -139.0976         estimate D2E/DX2                !
 ! D123  D(15,12,13,5)         141.6219         estimate D2E/DX2                !
 ! D124  D(15,12,13,25)        -14.1693         estimate D2E/DX2                !
 ! D125  D(76,12,13,5)        -104.512          estimate D2E/DX2                !
 ! D126  D(76,12,13,25)         99.6968         estimate D2E/DX2                !
 ! D127  D(11,12,15,24)        141.6937         estimate D2E/DX2                !
 ! D128  D(11,12,15,57)        -18.7345         estimate D2E/DX2                !
 ! D129  D(13,12,15,24)         15.9258         estimate D2E/DX2                !
 ! D130  D(13,12,15,57)       -144.5024         estimate D2E/DX2                !
 ! D131  D(76,12,15,24)        -98.0415         estimate D2E/DX2                !
 ! D132  D(76,12,15,57)        101.5303         estimate D2E/DX2                !
 ! D133  D(5,13,25,24)        -148.1067         estimate D2E/DX2                !
 ! D134  D(5,13,25,26)           6.4387         estimate D2E/DX2                !
 ! D135  D(12,13,25,24)          7.8978         estimate D2E/DX2                !
 ! D136  D(12,13,25,26)        162.4432         estimate D2E/DX2                !
 ! D137  D(45,14,16,17)         -2.9758         estimate D2E/DX2                !
 ! D138  D(45,14,16,58)        143.4153         estimate D2E/DX2                !
 ! D139  D(55,14,16,17)       -146.8896         estimate D2E/DX2                !
 ! D140  D(55,14,16,58)         -0.4985         estimate D2E/DX2                !
 ! D141  D(16,14,45,20)       -148.0108         estimate D2E/DX2                !
 ! D142  D(16,14,45,46)          8.7674         estimate D2E/DX2                !
 ! D143  D(55,14,45,20)         -1.0795         estimate D2E/DX2                !
 ! D144  D(55,14,45,46)        155.6987         estimate D2E/DX2                !
 ! D145  D(16,14,55,54)        151.6582         estimate D2E/DX2                !
 ! D146  D(16,14,55,60)          6.8758         estimate D2E/DX2                !
 ! D147  D(45,14,55,54)          3.3794         estimate D2E/DX2                !
 ! D148  D(45,14,55,60)       -141.403          estimate D2E/DX2                !
 ! D149  D(12,15,24,23)       -171.0774         estimate D2E/DX2                !
 ! D150  D(12,15,24,25)        -12.2678         estimate D2E/DX2                !
 ! D151  D(57,15,24,23)        -10.1349         estimate D2E/DX2                !
 ! D152  D(57,15,24,25)        148.6746         estimate D2E/DX2                !
 ! D153  D(12,15,57,56)        163.1775         estimate D2E/DX2                !
 ! D154  D(12,15,57,58)         13.7278         estimate D2E/DX2                !
 ! D155  D(24,15,57,56)          4.4586         estimate D2E/DX2                !
 ! D156  D(24,15,57,58)       -144.9911         estimate D2E/DX2                !
 ! D157  D(14,16,17,48)         -5.3788         estimate D2E/DX2                !
 ! D158  D(14,16,17,56)        134.0981         estimate D2E/DX2                !
 ! D159  D(58,16,17,48)       -156.4607         estimate D2E/DX2                !
 ! D160  D(58,16,17,56)        -16.9838         estimate D2E/DX2                !
 ! D161  D(14,16,58,57)       -123.0071         estimate D2E/DX2                !
 ! D162  D(14,16,58,59)         -0.5254         estimate D2E/DX2                !
 ! D163  D(14,16,58,73)        122.673          estimate D2E/DX2                !
 ! D164  D(17,16,58,57)         25.2708         estimate D2E/DX2                !
 ! D165  D(17,16,58,59)        147.7525         estimate D2E/DX2                !
 ! D166  D(17,16,58,73)        -89.0491         estimate D2E/DX2                !
 ! D167  D(16,17,48,46)          7.9041         estimate D2E/DX2                !
 ! D168  D(16,17,48,50)        168.0697         estimate D2E/DX2                !
 ! D169  D(56,17,48,46)       -127.5303         estimate D2E/DX2                !
 ! D170  D(56,17,48,50)         32.6353         estimate D2E/DX2                !
 ! D171  D(16,17,56,22)       -142.4121         estimate D2E/DX2                !
 ! D172  D(16,17,56,57)         -0.1044         estimate D2E/DX2                !
 ! D173  D(48,17,56,22)         -1.2093         estimate D2E/DX2                !
 ! D174  D(48,17,56,57)        141.0984         estimate D2E/DX2                !
 ! D175  D(40,18,19,20)          6.8124         estimate D2E/DX2                !
 ! D176  D(40,18,19,51)        155.3033         estimate D2E/DX2                !
 ! D177  D(47,18,19,20)       -145.6405         estimate D2E/DX2                !
 ! D178  D(47,18,19,51)          2.8503         estimate D2E/DX2                !
 ! D179  D(19,18,40,32)       -140.9824         estimate D2E/DX2                !
 ! D180  D(19,18,40,37)         16.6571         estimate D2E/DX2                !
 ! D181  D(47,18,40,32)          8.5697         estimate D2E/DX2                !
 ! D182  D(47,18,40,37)        166.2092         estimate D2E/DX2                !
 ! D183  D(19,18,47,44)        146.3107         estimate D2E/DX2                !
 ! D184  D(19,18,47,49)         -0.478          estimate D2E/DX2                !
 ! D185  D(40,18,47,44)         -9.4446         estimate D2E/DX2                !
 ! D186  D(40,18,47,49)       -156.2333         estimate D2E/DX2                !
 ! D187  D(18,19,20,45)         -0.2658         estimate D2E/DX2                !
 ! D188  D(18,19,20,54)        146.3024         estimate D2E/DX2                !
 ! D189  D(51,19,20,45)       -145.6384         estimate D2E/DX2                !
 ! D190  D(51,19,20,54)          0.9298         estimate D2E/DX2                !
 ! D191  D(18,19,51,49)         -4.2239         estimate D2E/DX2                !
 ! D192  D(18,19,51,52)       -149.9378         estimate D2E/DX2                !
 ! D193  D(20,19,51,49)        147.3188         estimate D2E/DX2                !
 ! D194  D(20,19,51,52)          1.6048         estimate D2E/DX2                !
 ! D195  D(19,20,45,14)        147.998          estimate D2E/DX2                !
 ! D196  D(19,20,45,46)         -5.3264         estimate D2E/DX2                !
 ! D197  D(54,20,45,14)         -1.6018         estimate D2E/DX2                !
 ! D198  D(54,20,45,46)       -154.9262         estimate D2E/DX2                !
 ! D199  D(19,20,54,53)         -2.9226         estimate D2E/DX2                !
 ! D200  D(19,20,54,55)       -149.2025         estimate D2E/DX2                !
 ! D201  D(45,20,54,53)        150.0184         estimate D2E/DX2                !
 ! D202  D(45,20,54,55)          3.7385         estimate D2E/DX2                !
 ! D203  D(10,21,22,23)         -1.94           estimate D2E/DX2                !
 ! D204  D(10,21,22,56)        159.6478         estimate D2E/DX2                !
 ! D205  D(50,21,22,23)       -130.9292         estimate D2E/DX2                !
 ! D206  D(50,21,22,56)         30.6586         estimate D2E/DX2                !
 ! D207  D(69,21,22,23)        112.495          estimate D2E/DX2                !
 ! D208  D(69,21,22,56)        -85.9172         estimate D2E/DX2                !
 ! D209  D(10,21,50,33)         -0.1923         estimate D2E/DX2                !
 ! D210  D(10,21,50,48)       -120.0542         estimate D2E/DX2                !
 ! D211  D(10,21,50,70)        121.64           estimate D2E/DX2                !
 ! D212  D(22,21,50,33)        119.2187         estimate D2E/DX2                !
 ! D213  D(22,21,50,48)         -0.6432         estimate D2E/DX2                !
 ! D214  D(22,21,50,70)       -118.9491         estimate D2E/DX2                !
 ! D215  D(69,21,50,33)       -122.3869         estimate D2E/DX2                !
 ! D216  D(69,21,50,48)        117.7512         estimate D2E/DX2                !
 ! D217  D(69,21,50,70)         -0.5547         estimate D2E/DX2                !
 ! D218  D(21,22,23,7)          -4.1489         estimate D2E/DX2                !
 ! D219  D(21,22,23,24)        163.8397         estimate D2E/DX2                !
 ! D220  D(56,22,23,7)        -166.1071         estimate D2E/DX2                !
 ! D221  D(56,22,23,24)          1.8814         estimate D2E/DX2                !
 ! D222  D(21,22,56,17)        -31.3132         estimate D2E/DX2                !
 ! D223  D(21,22,56,57)       -168.3443         estimate D2E/DX2                !
 ! D224  D(23,22,56,17)        129.3165         estimate D2E/DX2                !
 ! D225  D(23,22,56,57)         -7.7146         estimate D2E/DX2                !
 ! D226  D(7,23,24,15)         171.962          estimate D2E/DX2                !
 ! D227  D(7,23,24,25)          18.5769         estimate D2E/DX2                !
 ! D228  D(22,23,24,15)          6.7758         estimate D2E/DX2                !
 ! D229  D(22,23,24,25)       -146.6094         estimate D2E/DX2                !
 ! D230  D(15,24,25,13)          2.5349         estimate D2E/DX2                !
 ! D231  D(15,24,25,26)       -149.7251         estimate D2E/DX2                !
 ! D232  D(23,24,25,13)        158.4019         estimate D2E/DX2                !
 ! D233  D(23,24,25,26)          6.1419         estimate D2E/DX2                !
 ! D234  D(13,25,26,4)          -3.6508         estimate D2E/DX2                !
 ! D235  D(13,25,26,27)       -148.5137         estimate D2E/DX2                !
 ! D236  D(24,25,26,4)         145.398          estimate D2E/DX2                !
 ! D237  D(24,25,26,27)          0.5351         estimate D2E/DX2                !
 ! D238  D(4,26,27,28)        -155.5015         estimate D2E/DX2                !
 ! D239  D(4,26,27,38)          -2.9915         estimate D2E/DX2                !
 ! D240  D(25,26,27,28)         -7.7899         estimate D2E/DX2                !
 ! D241  D(25,26,27,38)        144.7202         estimate D2E/DX2                !
 ! D242  D(26,27,28,7)         -16.3116         estimate D2E/DX2                !
 ! D243  D(26,27,28,29)        140.6178         estimate D2E/DX2                !
 ! D244  D(38,27,28,7)        -165.9274         estimate D2E/DX2                !
 ! D245  D(38,27,28,29)         -8.998          estimate D2E/DX2                !
 ! D246  D(26,27,38,36)       -145.8989         estimate D2E/DX2                !
 ! D247  D(26,27,38,39)          0.5233         estimate D2E/DX2                !
 ! D248  D(28,27,38,36)          9.9939         estimate D2E/DX2                !
 ! D249  D(28,27,38,39)        156.4161         estimate D2E/DX2                !
 ! D250  D(7,28,29,30)          14.5622         estimate D2E/DX2                !
 ! D251  D(7,28,29,35)         163.4426         estimate D2E/DX2                !
 ! D252  D(27,28,29,30)       -147.1667         estimate D2E/DX2                !
 ! D253  D(27,28,29,35)          1.7137         estimate D2E/DX2                !
 ! D254  D(28,29,30,10)        -21.3364         estimate D2E/DX2                !
 ! D255  D(28,29,30,31)        134.9515         estimate D2E/DX2                !
 ! D256  D(35,29,30,10)       -170.9309         estimate D2E/DX2                !
 ! D257  D(35,29,30,31)        -14.643          estimate D2E/DX2                !
 ! D258  D(28,29,35,34)       -131.0763         estimate D2E/DX2                !
 ! D259  D(28,29,35,36)          5.2231         estimate D2E/DX2                !
 ! D260  D(30,29,35,34)         14.6107         estimate D2E/DX2                !
 ! D261  D(30,29,35,36)        150.9101         estimate D2E/DX2                !
 ! D262  D(10,30,31,32)        152.2174         estimate D2E/DX2                !
 ! D263  D(10,30,31,33)         -0.2457         estimate D2E/DX2                !
 ! D264  D(29,30,31,32)         -0.0707         estimate D2E/DX2                !
 ! D265  D(29,30,31,33)       -152.5338         estimate D2E/DX2                !
 ! D266  D(30,31,32,34)         14.6812         estimate D2E/DX2                !
 ! D267  D(30,31,32,40)       -135.0301         estimate D2E/DX2                !
 ! D268  D(33,31,32,34)        171.1564         estimate D2E/DX2                !
 ! D269  D(33,31,32,40)         21.4452         estimate D2E/DX2                !
 ! D270  D(30,31,33,37)        136.6374         estimate D2E/DX2                !
 ! D271  D(30,31,33,50)         19.9145         estimate D2E/DX2                !
 ! D272  D(30,31,33,71)       -104.3592         estimate D2E/DX2                !
 ! D273  D(32,31,33,37)        -18.0145         estimate D2E/DX2                !
 ! D274  D(32,31,33,50)       -134.7374         estimate D2E/DX2                !
 ! D275  D(32,31,33,71)        100.9889         estimate D2E/DX2                !
 ! D276  D(31,32,34,35)        -14.4915         estimate D2E/DX2                !
 ! D277  D(31,32,34,44)       -150.8727         estimate D2E/DX2                !
 ! D278  D(40,32,34,35)        131.2654         estimate D2E/DX2                !
 ! D279  D(40,32,34,44)         -5.1157         estimate D2E/DX2                !
 ! D280  D(31,32,40,18)        147.3278         estimate D2E/DX2                !
 ! D281  D(31,32,40,37)        -15.0533         estimate D2E/DX2                !
 ! D282  D(34,32,40,18)         -1.6081         estimate D2E/DX2                !
 ! D283  D(34,32,40,37)       -163.9891         estimate D2E/DX2                !
 ! D284  D(31,33,37,40)          8.5312         estimate D2E/DX2                !
 ! D285  D(31,33,37,46)       -110.8202         estimate D2E/DX2                !
 ! D286  D(31,33,37,72)        129.3339         estimate D2E/DX2                !
 ! D287  D(50,33,37,40)        127.8179         estimate D2E/DX2                !
 ! D288  D(50,33,37,46)          8.4665         estimate D2E/DX2                !
 ! D289  D(50,33,37,72)       -111.3794         estimate D2E/DX2                !
 ! D290  D(71,33,37,40)       -110.3137         estimate D2E/DX2                !
 ! D291  D(71,33,37,46)        130.3349         estimate D2E/DX2                !
 ! D292  D(71,33,37,72)         10.489          estimate D2E/DX2                !
 ! D293  D(31,33,50,21)        -18.25           estimate D2E/DX2                !
 ! D294  D(31,33,50,48)        106.8671         estimate D2E/DX2                !
 ! D295  D(31,33,50,70)       -138.6756         estimate D2E/DX2                !
 ! D296  D(37,33,50,21)       -131.5894         estimate D2E/DX2                !
 ! D297  D(37,33,50,48)         -6.4722         estimate D2E/DX2                !
 ! D298  D(37,33,50,70)        107.985          estimate D2E/DX2                !
 ! D299  D(71,33,50,21)        106.2046         estimate D2E/DX2                !
 ! D300  D(71,33,50,48)       -128.6783         estimate D2E/DX2                !
 ! D301  D(71,33,50,70)        -14.221          estimate D2E/DX2                !
 ! D302  D(32,34,35,29)         -0.0994         estimate D2E/DX2                !
 ! D303  D(32,34,35,36)       -140.9893         estimate D2E/DX2                !
 ! D304  D(44,34,35,29)        140.8948         estimate D2E/DX2                !
 ! D305  D(44,34,35,36)          0.0049         estimate D2E/DX2                !
 ! D306  D(32,34,44,43)        144.3438         estimate D2E/DX2                !
 ! D307  D(32,34,44,47)          4.3811         estimate D2E/DX2                !
 ! D308  D(35,34,44,43)          3.8463         estimate D2E/DX2                !
 ! D309  D(35,34,44,47)       -136.1163         estimate D2E/DX2                !
 ! D310  D(29,35,36,38)         -4.3695         estimate D2E/DX2                !
 ! D311  D(29,35,36,43)       -144.1804         estimate D2E/DX2                !
 ! D312  D(34,35,36,38)        135.9586         estimate D2E/DX2                !
 ! D313  D(34,35,36,43)         -3.8523         estimate D2E/DX2                !
 ! D314  D(35,36,38,27)         -3.1083         estimate D2E/DX2                !
 ! D315  D(35,36,38,39)       -146.3764         estimate D2E/DX2                !
 ! D316  D(43,36,38,27)        132.0308         estimate D2E/DX2                !
 ! D317  D(43,36,38,39)        -11.2373         estimate D2E/DX2                !
 ! D318  D(35,36,43,42)        147.0046         estimate D2E/DX2                !
 ! D319  D(35,36,43,44)          6.1378         estimate D2E/DX2                !
 ! D320  D(38,36,43,42)          8.0614         estimate D2E/DX2                !
 ! D321  D(38,36,43,44)       -132.8053         estimate D2E/DX2                !
 ! D322  D(33,37,40,18)       -155.9353         estimate D2E/DX2                !
 ! D323  D(33,37,40,32)          3.4367         estimate D2E/DX2                !
 ! D324  D(46,37,40,18)        -42.9364         estimate D2E/DX2                !
 ! D325  D(46,37,40,32)        116.4356         estimate D2E/DX2                !
 ! D326  D(72,37,40,18)         82.305          estimate D2E/DX2                !
 ! D327  D(72,37,40,32)       -118.323          estimate D2E/DX2                !
 ! D328  D(33,37,46,45)        157.8062         estimate D2E/DX2                !
 ! D329  D(33,37,46,48)         -7.2393         estimate D2E/DX2                !
 ! D330  D(40,37,46,45)         43.7902         estimate D2E/DX2                !
 ! D331  D(40,37,46,48)       -121.2553         estimate D2E/DX2                !
 ! D332  D(72,37,46,45)        -81.407          estimate D2E/DX2                !
 ! D333  D(72,37,46,48)        113.5475         estimate D2E/DX2                !
 ! D334  D(27,38,39,4)           2.1526         estimate D2E/DX2                !
 ! D335  D(27,38,39,41)       -141.9263         estimate D2E/DX2                !
 ! D336  D(36,38,39,4)         149.6094         estimate D2E/DX2                !
 ! D337  D(36,38,39,41)          5.5305         estimate D2E/DX2                !
 ! D338  D(4,39,41,1)            0.6338         estimate D2E/DX2                !
 ! D339  D(4,39,41,42)        -135.955          estimate D2E/DX2                !
 ! D340  D(38,39,41,1)         140.0569         estimate D2E/DX2                !
 ! D341  D(38,39,41,42)          3.4681         estimate D2E/DX2                !
 ! D342  D(1,41,42,43)        -147.8106         estimate D2E/DX2                !
 ! D343  D(1,41,42,66)          -5.335          estimate D2E/DX2                !
 ! D344  D(39,41,42,43)         -6.6964         estimate D2E/DX2                !
 ! D345  D(39,41,42,66)        135.7792         estimate D2E/DX2                !
 ! D346  D(41,42,43,36)          1.0058         estimate D2E/DX2                !
 ! D347  D(41,42,43,44)        136.771          estimate D2E/DX2                !
 ! D348  D(66,42,43,36)       -136.9649         estimate D2E/DX2                !
 ! D349  D(66,42,43,44)         -1.1997         estimate D2E/DX2                !
 ! D350  D(41,42,66,49)       -135.5195         estimate D2E/DX2                !
 ! D351  D(41,42,66,65)          5.6427         estimate D2E/DX2                !
 ! D352  D(43,42,66,49)          6.9763         estimate D2E/DX2                !
 ! D353  D(43,42,66,65)        148.1386         estimate D2E/DX2                !
 ! D354  D(36,43,44,34)         -6.1391         estimate D2E/DX2                !
 ! D355  D(36,43,44,47)        132.8465         estimate D2E/DX2                !
 ! D356  D(42,43,44,34)       -147.0123         estimate D2E/DX2                !
 ! D357  D(42,43,44,47)         -8.0268         estimate D2E/DX2                !
 ! D358  D(34,44,47,18)          2.7643         estimate D2E/DX2                !
 ! D359  D(34,44,47,49)        146.5194         estimate D2E/DX2                !
 ! D360  D(43,44,47,18)       -132.5026         estimate D2E/DX2                !
 ! D361  D(43,44,47,49)         11.2525         estimate D2E/DX2                !
 ! D362  D(14,45,46,37)       -170.0203         estimate D2E/DX2                !
 ! D363  D(14,45,46,48)         -6.1501         estimate D2E/DX2                !
 ! D364  D(20,45,46,37)        -19.1371         estimate D2E/DX2                !
 ! D365  D(20,45,46,48)        144.7331         estimate D2E/DX2                !
 ! D366  D(37,46,48,17)        164.9902         estimate D2E/DX2                !
 ! D367  D(37,46,48,50)          3.4754         estimate D2E/DX2                !
 ! D368  D(45,46,48,17)         -1.8205         estimate D2E/DX2                !
 ! D369  D(45,46,48,50)       -163.3353         estimate D2E/DX2                !
 ! D370  D(18,47,49,51)         -2.1205         estimate D2E/DX2                !
 ! D371  D(18,47,49,66)        142.4514         estimate D2E/DX2                !
 ! D372  D(44,47,49,51)       -150.0084         estimate D2E/DX2                !
 ! D373  D(44,47,49,66)         -5.4365         estimate D2E/DX2                !
 ! D374  D(17,48,50,21)        -30.1661         estimate D2E/DX2                !
 ! D375  D(17,48,50,33)       -159.2587         estimate D2E/DX2                !
 ! D376  D(17,48,50,70)         86.4012         estimate D2E/DX2                !
 ! D377  D(46,48,50,21)        131.1224         estimate D2E/DX2                !
 ! D378  D(46,48,50,33)          2.0298         estimate D2E/DX2                !
 ! D379  D(46,48,50,70)       -112.3103         estimate D2E/DX2                !
 ! D380  D(47,49,51,19)          3.9428         estimate D2E/DX2                !
 ! D381  D(47,49,51,52)        151.2088         estimate D2E/DX2                !
 ! D382  D(66,49,51,19)       -140.6319         estimate D2E/DX2                !
 ! D383  D(66,49,51,52)          6.6341         estimate D2E/DX2                !
 ! D384  D(47,49,66,42)         -3.6978         estimate D2E/DX2                !
 ! D385  D(47,49,66,65)       -140.3516         estimate D2E/DX2                !
 ! D386  D(51,49,66,42)        136.304          estimate D2E/DX2                !
 ! D387  D(51,49,66,65)         -0.3499         estimate D2E/DX2                !
 ! D388  D(19,51,52,53)         -2.2163         estimate D2E/DX2                !
 ! D389  D(19,51,52,64)        134.8009         estimate D2E/DX2                !
 ! D390  D(49,51,52,53)       -144.7824         estimate D2E/DX2                !
 ! D391  D(49,51,52,64)         -7.7652         estimate D2E/DX2                !
 ! D392  D(51,52,53,54)          0.2409         estimate D2E/DX2                !
 ! D393  D(51,52,53,62)        141.6788         estimate D2E/DX2                !
 ! D394  D(64,52,53,54)       -141.6929         estimate D2E/DX2                !
 ! D395  D(64,52,53,62)         -0.255          estimate D2E/DX2                !
 ! D396  D(51,52,64,63)       -139.143          estimate D2E/DX2                !
 ! D397  D(51,52,64,65)          2.6467         estimate D2E/DX2                !
 ! D398  D(53,52,64,63)          1.833          estimate D2E/DX2                !
 ! D399  D(53,52,64,65)        143.6227         estimate D2E/DX2                !
 ! D400  D(52,53,54,20)          2.3286         estimate D2E/DX2                !
 ! D401  D(52,53,54,55)        145.5177         estimate D2E/DX2                !
 ! D402  D(62,53,54,20)       -134.8153         estimate D2E/DX2                !
 ! D403  D(62,53,54,55)          8.3738         estimate D2E/DX2                !
 ! D404  D(52,53,62,61)       -143.1292         estimate D2E/DX2                !
 ! D405  D(52,53,62,63)         -1.4368         estimate D2E/DX2                !
 ! D406  D(54,53,62,61)         -1.8651         estimate D2E/DX2                !
 ! D407  D(54,53,62,63)        139.8272         estimate D2E/DX2                !
 ! D408  D(20,54,55,14)         -4.3957         estimate D2E/DX2                !
 ! D409  D(20,54,55,60)        139.7574         estimate D2E/DX2                !
 ! D410  D(53,54,55,14)       -152.0456         estimate D2E/DX2                !
 ! D411  D(53,54,55,60)         -7.8925         estimate D2E/DX2                !
 ! D412  D(14,55,60,59)        -12.8303         estimate D2E/DX2                !
 ! D413  D(14,55,60,61)        140.2288         estimate D2E/DX2                !
 ! D414  D(54,55,60,59)       -152.4545         estimate D2E/DX2                !
 ! D415  D(54,55,60,61)          0.6046         estimate D2E/DX2                !
 ! D416  D(17,56,57,15)       -136.5558         estimate D2E/DX2                !
 ! D417  D(17,56,57,58)         17.2902         estimate D2E/DX2                !
[...]
 Alpha virt. eigenvalues --    1.05936   1.06178   1.06762   1.07359   1.07869
 Alpha virt. eigenvalues --    1.08393   1.08695   1.09086   1.09639   1.09793
 Alpha virt. eigenvalues --    1.10320   1.10466   1.10941   1.11579   1.11795
 Alpha virt. eigenvalues --    1.12084   1.12664   1.12995   1.13622   1.14114
 Alpha virt. eigenvalues --    1.15215   1.15524   1.16156   1.16552   1.16608
 Alpha virt. eigenvalues --    1.16966   1.17626   1.18450   1.18912   1.19345
 Alpha virt. eigenvalues --    1.19732   1.20510   1.21050   1.21284   1.21655
 Alpha virt. eigenvalues --    1.22161   1.22482   1.22929   1.23331   1.23978
 Alpha virt. eigenvalues --    1.24067   1.24168   1.24476   1.25157   1.25306
 Alpha virt. eigenvalues --    1.26149   1.26746   1.26901   1.27256   1.27888
 Alpha virt. eigenvalues --    1.28647   1.28781   1.29516   1.30050   1.30262
 Alpha virt. eigenvalues --    1.31244   1.31725   1.32178   1.32247   1.32645
 Alpha virt. eigenvalues --    1.33195   1.33616   1.34072   1.34198   1.34928
 Alpha virt. eigenvalues --    1.35217   1.35511   1.35642   1.36201   1.36533
 Alpha virt. eigenvalues --    1.36658   1.37101   1.37459   1.38019   1.38210
 Alpha virt. eigenvalues --    1.39127   1.39282   1.39479   1.39976   1.40243
 Alpha virt. eigenvalues --    1.40658   1.40862   1.41273   1.41673   1.42014
 Alpha virt. eigenvalues --    1.42331   1.42457   1.43051   1.43148   1.43602
 Alpha virt. eigenvalues --    1.43666   1.43885   1.44170   1.44809   1.44911
 Alpha virt. eigenvalues --    1.45062   1.45415   1.45965   1.46097   1.46242
 Alpha virt. eigenvalues --    1.46562   1.46904   1.47238   1.47396   1.47531
 Alpha virt. eigenvalues --    1.47829   1.47883   1.48232   1.48570   1.48803
 Alpha virt. eigenvalues --    1.49205   1.49368   1.49570   1.50236   1.50525
 Alpha virt. eigenvalues --    1.50669   1.50841   1.51236   1.51491   1.51742
 Alpha virt. eigenvalues --    1.51968   1.52346   1.52521   1.52624   1.52920
 Alpha virt. eigenvalues --    1.52948   1.53201   1.53720   1.53988   1.54269
 Alpha virt. eigenvalues --    1.54580   1.54838   1.54957   1.55430   1.55859
 Alpha virt. eigenvalues --    1.55974   1.56307   1.56629   1.57018   1.57842
 Alpha virt. eigenvalues --    1.57884   1.58158   1.58347   1.58526   1.58806
 Alpha virt. eigenvalues --    1.59394   1.59839   1.60446   1.60522   1.60982
 Alpha virt. eigenvalues --    1.61299   1.61801   1.62073   1.62340   1.62606
 Alpha virt. eigenvalues --    1.62853   1.63345   1.63819   1.64118   1.64217
 Alpha virt. eigenvalues --    1.64700   1.65142   1.65477   1.66001   1.66134
 Alpha virt. eigenvalues --    1.66423   1.66957   1.67107   1.67454   1.68296
 Alpha virt. eigenvalues --    1.68604   1.69123   1.69674   1.69992   1.70115
 Alpha virt. eigenvalues --    1.70497   1.70829   1.71040   1.71551   1.72223
 Alpha virt. eigenvalues --    1.72321   1.72797   1.73146   1.73709   1.73837
 Alpha virt. eigenvalues --    1.74579   1.74786   1.75066   1.75909   1.76045
 Alpha virt. eigenvalues --    1.76359   1.76530   1.76905   1.77483   1.77770
 Alpha virt. eigenvalues --    1.78053   1.78618   1.78936   1.79284   1.79695
 Alpha virt. eigenvalues --    1.79901   1.80285   1.80597   1.80849   1.81073
 Alpha virt. eigenvalues --    1.81458   1.82197   1.82315   1.82619   1.83030
 Alpha virt. eigenvalues --    1.83698   1.83896   1.84081   1.85058   1.85388
 Alpha virt. eigenvalues --    1.85683   1.86124   1.86275   1.87082   1.87400
 Alpha virt. eigenvalues --    1.87962   1.88758   1.89225   1.89673   1.89767
 Alpha virt. eigenvalues --    1.90147   1.90398   1.90606   1.90695   1.90988
 Alpha virt. eigenvalues --    1.91367   1.91784   1.92419   1.92904   1.93192
 Alpha virt. eigenvalues --    1.93577   1.93931   1.94213   1.95132   1.95379
 Alpha virt. eigenvalues --    1.95601   1.95929   1.96497   1.96825   1.97542
 Alpha virt. eigenvalues --    1.98565   1.98790   1.99096   1.99480   1.99899
 Alpha virt. eigenvalues --    2.00629   2.00811   2.01875   2.01998   2.02155
 Alpha virt. eigenvalues --    2.02914   2.03671   2.04049   2.04363   2.04571
 Alpha virt. eigenvalues --    2.04812   2.05130   2.05350   2.05585   2.06704
 Alpha virt. eigenvalues --    2.06920   2.07051   2.07588   2.08582   2.09191
 Alpha virt. eigenvalues --    2.09221   2.09629   2.09899   2.10038   2.10341
 Alpha virt. eigenvalues --    2.10987   2.11425   2.11832   2.12202   2.12328
 Alpha virt. eigenvalues --    2.12813   2.13180   2.13608   2.14232   2.14960
 Alpha virt. eigenvalues --    2.15133   2.15730   2.16189   2.16529   2.17010
 Alpha virt. eigenvalues --    2.17463   2.17540   2.17653   2.18077   2.18352
 Alpha virt. eigenvalues --    2.18882   2.19084   2.19754   2.21489   2.22418
 Alpha virt. eigenvalues --    2.22529   2.23074   2.23356   2.23919   2.24530
 Alpha virt. eigenvalues --    2.24865   2.25144   2.25670   2.26097   2.26394
 Alpha virt. eigenvalues --    2.26792   2.27454   2.27777   2.28218   2.28580
 Alpha virt. eigenvalues --    2.29947   2.30230   2.31069   2.31636   2.32345
 Alpha virt. eigenvalues --    2.32581   2.33234   2.33756   2.33940   2.34204
 Alpha virt. eigenvalues --    2.34779   2.35083   2.36064   2.36482   2.36837
 Alpha virt. eigenvalues --    2.37799   2.38294   2.38590   2.39165   2.39730
 Alpha virt. eigenvalues --    2.39974   2.40237   2.41116   2.41560   2.41690
 Alpha virt. eigenvalues --    2.42228   2.43117   2.43378   2.44029   2.44105
 Alpha virt. eigenvalues --    2.44465   2.44902   2.45271   2.45494   2.46611
 Alpha virt. eigenvalues --    2.46704   2.47078   2.47378   2.48178   2.48387
 Alpha virt. eigenvalues --    2.48825   2.49182   2.49995   2.50242   2.51706
 Alpha virt. eigenvalues --    2.52083   2.52578   2.52932   2.53772   2.54309
 Alpha virt. eigenvalues --    2.54554   2.55698   2.56166   2.56491   2.56923
 Alpha virt. eigenvalues --    2.57296   2.57483   2.58505   2.58744   2.59179
 Alpha virt. eigenvalues --    2.59501   2.59839   2.60229   2.60386   2.60731
 Alpha virt. eigenvalues --    2.61103   2.61645   2.62416   2.62678   2.63779
 Alpha virt. eigenvalues --    2.64328   2.64532   2.65449   2.65898   2.66210
 Alpha virt. eigenvalues --    2.66490   2.67419   2.67864   2.68116   2.68661
 Alpha virt. eigenvalues --    2.69608   2.70787   2.71383   2.71780   2.72237
 Alpha virt. eigenvalues --    2.73183   2.73529   2.74184   2.75214   2.75783
 Alpha virt. eigenvalues --    2.76094   2.76731   2.77388   2.77944   2.78966
 Alpha virt. eigenvalues --    2.79925   2.81025   2.81423   2.81751   2.82345
 Alpha virt. eigenvalues --    2.82923   2.83726   2.84344   2.84708   2.85313
 Alpha virt. eigenvalues --    2.85718   2.86478   2.87120   2.87341   2.87980
 Alpha virt. eigenvalues --    2.88938   2.89265   2.90334   2.90444   2.91265
 Alpha virt. eigenvalues --    2.92061   2.92398   2.93250   2.93658   2.94281
 Alpha virt. eigenvalues --    2.94813   2.95585   2.95645   2.96052   2.97188
 Alpha virt. eigenvalues --    2.97751   2.98038   2.98808   2.99374   2.99601
 Alpha virt. eigenvalues --    3.00134   3.00469   3.00551   3.00843   3.01713
 Alpha virt. eigenvalues --    3.01910   3.02483   3.02877   3.03124   3.03403
 Alpha virt. eigenvalues --    3.03584   3.04429   3.04913   3.05017   3.05612
 Alpha virt. eigenvalues --    3.05844   3.06567   3.06880   3.07157   3.07486
 Alpha virt. eigenvalues --    3.07631   3.07826   3.08473   3.08807   3.09109
 Alpha virt. eigenvalues --    3.09608   3.10260   3.10742   3.10875   3.11290
 Alpha virt. eigenvalues --    3.11350   3.11759   3.12158   3.12748   3.13233
 Alpha virt. eigenvalues --    3.13653   3.13716   3.13894   3.14819   3.14872
 Alpha virt. eigenvalues --    3.15009   3.15309   3.15455   3.15695   3.15861
 Alpha virt. eigenvalues --    3.16096   3.16488   3.16955   3.17531   3.17749
 Alpha virt. eigenvalues --    3.17824   3.19031   3.19199   3.19314   3.19733
 Alpha virt. eigenvalues --    3.21150   3.21283   3.21659   3.22264   3.22584
 Alpha virt. eigenvalues --    3.23327   3.24315   3.25624   3.25849   3.27396
 Alpha virt. eigenvalues --    3.29405   3.30441   3.30813   3.32156   3.33517
 Alpha virt. eigenvalues --    3.34366   3.35050   3.36616   3.38129   3.38974
 Alpha virt. eigenvalues --    3.41432   3.43062   3.43537   3.45135   3.46077
 Alpha virt. eigenvalues --    3.47480   3.48013   3.50243   3.52332   3.52693
 Alpha virt. eigenvalues --    3.53239   3.54336   3.55273   3.56056   3.56982
 Alpha virt. eigenvalues --    3.57548   3.58145   3.59507   3.59999   3.62480
 Alpha virt. eigenvalues --    3.62931   3.64241   3.65089   3.65293   3.66953
 Alpha virt. eigenvalues --    3.68578   3.69551   3.70601   3.70899   3.72048
 Alpha virt. eigenvalues --    3.72795   3.74658   3.75948   3.76600   3.78098
 Alpha virt. eigenvalues --    3.78848   3.80271   3.81428   3.82404   3.83706
 Alpha virt. eigenvalues --    3.85087   3.85450   3.86258   3.86842   3.87476
 Alpha virt. eigenvalues --    3.88819   3.89377   3.90197   3.90683   3.91857
 Alpha virt. eigenvalues --    3.92638   3.92951   3.94090   3.94631   3.95078
 Alpha virt. eigenvalues --    3.97506   3.98333   3.99515   4.01135   4.04486
 Alpha virt. eigenvalues --    4.05680   4.08960   4.10250   4.13778   4.18028
 Alpha virt. eigenvalues --    4.23970   4.25467   4.25665   4.30815   4.33532
 Alpha virt. eigenvalues --    4.36444   4.36889   4.37191   4.39784   4.40286
 Alpha virt. eigenvalues --    4.40991   4.42547   4.44507   4.52479   4.55106
 Alpha virt. eigenvalues --    4.55951   4.58194   4.58968   4.62166   4.64203
 Alpha virt. eigenvalues --    4.66447   4.68056   4.70169   4.70530   4.77047
 Alpha virt. eigenvalues --    4.82289   4.84604   4.90444   4.95694   4.97044
 Alpha virt. eigenvalues --    5.00092   5.03037   5.04733   5.06296  23.06649
 Alpha virt. eigenvalues --   23.25330  23.28397  23.29761  23.44928  23.48974
 Alpha virt. eigenvalues --   23.52222  23.53990  23.59029  23.66976  23.68990
 Alpha virt. eigenvalues --   23.71891  23.76437  23.78396  23.79504  23.80708
 Alpha virt. eigenvalues --   23.81369  23.82933  23.83552  23.84887  23.85140
 Alpha virt. eigenvalues --   23.86382  23.86887  23.87256  23.88799  23.89435
 Alpha virt. eigenvalues --   23.90981  23.91755  23.92611  23.94217  23.95455
 Alpha virt. eigenvalues --   23.95821  23.96717  23.97554  23.98432  23.98986
 Alpha virt. eigenvalues --   23.99278  24.00073  24.00342  24.01071  24.01937
 Alpha virt. eigenvalues --   24.02251  24.02894  24.03444  24.03933  24.05268
 Alpha virt. eigenvalues --   24.05927  24.06788  24.07901  24.08346  24.09039
 Alpha virt. eigenvalues --   24.11008  24.11557  24.11740  24.11771  24.12345
 Alpha virt. eigenvalues --   24.13205  24.13777  24.14235  24.14378  24.14786
 Alpha virt. eigenvalues --   24.15543  24.17138  24.17501  24.18212  24.19536
          Condensed to atoms (all electrons):
 Mulliken charges:
               1
     1  C   -0.005963
     2  C   -0.002319
     3  C   -0.005541
     4  C   -0.007401
     5  C    0.006685
     6  C   -0.000101
     7  C   -0.129576
     8  C   -0.002596
     9  C   -0.020750
    10  C   -0.145069
    11  C   -0.135231
    12  C   -0.113203
    13  C   -0.052744
    14  C    0.004611
    15  C   -0.033965
    16  C   -0.015789
    17  C    0.018446
    18  C    0.016014
    19  C   -0.003439
    20  C   -0.002518
    21  C   -0.133117
    22  C   -0.013089
    23  C   -0.012711
    24  C    0.038552
    25  C    0.021079
    26  C   -0.004366
    27  C    0.013618
    28  C   -0.034227
    29  C    0.022585
    30  C    0.005608
    31  C    0.004978
    32  C    0.020829
    33  C   -0.145263
    34  C   -0.009471
    35  C   -0.008955
    36  C   -0.008253
    37  C   -0.132682
    38  C   -0.001460
    39  C   -0.005850
    40  C   -0.032842
    41  C    0.001091
    42  C   -0.004843
    43  C   -0.012699
    44  C   -0.006973
    45  C    0.011235
    46  C   -0.006206
    47  C   -0.002104
    48  C   -0.010598
    49  C   -0.003181
    50  C   -0.132117
    51  C   -0.005962
    52  C   -0.009367
    53  C   -0.002434
    54  C   -0.010166
    55  C    0.009925
    56  C    0.023549
    57  C   -0.002048
    58  C   -0.162344
    59  C   -0.130602
    60  C   -0.028274
    61  C    0.036259
    62  C   -0.013053
    63  C   -0.001421
    64  C   -0.005861
    65  C   -0.004521
    66  C   -0.000104
    67  H    0.155945
    68  H    0.143640
    69  H    0.144220
    70  H    0.144668
    71  H    0.144485
    72  H    0.157222
    73  H    0.158077
    74  H    0.154668
    75  H    0.150702
    76  H    0.164675
 Sum of Mulliken charges =  -0.00000
 Mulliken charges with hydrogens summed into heavy atoms:
               1
     1  C   -0.005963
     2  C   -0.002319
     3  C   -0.005541
     4  C   -0.007401
     5  C    0.006685
     6  C   -0.000101
     7  C    0.026369
     8  C   -0.002596
     9  C   -0.020750
    10  C   -0.001430
    11  C    0.015471
    12  C    0.051473
    13  C   -0.052744
    14  C    0.004611
    15  C   -0.033965
    16  C   -0.015789
    17  C    0.018446
    18  C    0.016014
    19  C   -0.003439
    20  C   -0.002518
    21  C    0.011103
    22  C   -0.013089
    23  C   -0.012711
    24  C    0.038552
    25  C    0.021079
    26  C   -0.004366
    27  C    0.013618
    28  C   -0.034227
    29  C    0.022585
    30  C    0.005608
    31  C    0.004978
    32  C    0.020829
    33  C   -0.000778
    34  C   -0.009471
    35  C   -0.008955
    36  C   -0.008253
    37  C    0.024540
    38  C   -0.001460
    39  C   -0.005850
    40  C   -0.032842
    41  C    0.001091
    42  C   -0.004843
    43  C   -0.012699
    44  C   -0.006973
    45  C    0.011235
    46  C   -0.006206
    47  C   -0.002104
    48  C   -0.010598
    49  C   -0.003181
    50  C    0.012550
    51  C   -0.005962
    52  C   -0.009367
    53  C   -0.002434
    54  C   -0.010166
    55  C    0.009925
    56  C    0.023549
    57  C   -0.002048
    58  C   -0.004266
    59  C    0.024067
    60  C   -0.028274
    61  C    0.036259
    62  C   -0.013053
    63  C   -0.001421
    64  C   -0.005861
    65  C   -0.004521
    66  C   -0.000104
 Electronic spatial extent (au):  <R**2>=          21846.7747
 Charge=             -0.0000 electrons
 Dipole moment (field-independent basis, Debye):
    X=              4.1385    Y=              5.0081    Z=             -1.0232  Tot=              6.5769
 Quadrupole moment (field-independent basis, Debye-Ang):
   XX=           -352.9943   YY=           -362.5316   ZZ=           -371.1131
   XY=             -3.5495   XZ=              2.6890   YZ=             -5.9086
 Traceless Quadrupole moment (field-independent basis, Debye-Ang):
   XX=              9.2187   YY=             -0.3186   ZZ=             -8.9001
   XY=             -3.5495   XZ=              2.6890   YZ=             -5.9086
 Octapole moment (field-independent basis, Debye-Ang**2):
  XXX=            174.5808  YYY=            147.1011  ZZZ=            -15.9371  XYY=            -33.4313
  XXY=             48.3618  XXZ=             -6.4403  XZZ=             50.6533  YZZ=             18.0601
  YYZ=            -18.2588  XYZ=              8.1916
 Hexadecapole moment (field-independent basis, Debye-Ang**3):
 XXXX=         -12474.6133 YYYY=         -11125.6969 ZZZZ=          -8828.2111 XXXY=             88.3450
 XXXZ=             29.0338 YYYX=           -166.6934 YYYZ=            -75.2525 ZZZX=             15.5358
 ZZZY=            -79.9623 XXYY=          -4041.0045 XXZZ=          -3507.3077 YYZZ=          -3411.9309
 XXYZ=            -40.9916 YYXZ=             48.5453 ZZXY=            -35.2838
 N-N= 1.001459398440D+04 E-N=-2.587905640536D+04  KE= 2.511045584138D+03
 No NMR shielding tensors so no spin-rotation constants.
 Leave Link  601 at Wed Jul 20 17:14:58 2022, MaxMem=  1342177280 cpu:              62.4 elap:               1.5
 (Enter /home/mkliu/g16/l9999.exe)
 1\1\GINC-NODE02\FOpt\RB3LYP\6-311G(d,p)\C66H10\MKLIU\20-Jul-2022\0\\#P
  opt b3lyp/6-311G(d, p) empiricaldispersion=GD3\\force\\0,1\C,12.76816
 34195,12.0659697364,21.8810421763\C,12.7886061073,13.0193101088,22.890
 835111\C,12.6621483014,14.4282907661,22.5681694812\C,12.5771489584,14.
 8353726143,21.2339634764\C,13.4523942306,15.1815378463,23.486411899\C,
 14.106260644,14.229689041,24.4131213882\C,15.6147342876,17.3288859579,
 18.737352533\C,13.7205199095,12.9011366702,23.9962083333\C,15.38120127
 5,14.478858104,24.8603178601\C,16.908769537,16.9964298835,17.865478407
 6\C,16.0437696499,15.8450364518,24.8166686357\C,15.368417843,16.814946
 252,23.7554871835\C,14.141001956,16.282753795,23.0370838951\C,19.19058
 93086,14.0310415841,22.5754644729\C,16.2275961317,17.2011533862,22.582
 1493287\C,19.1993790275,15.4107160985,22.5633740819\C,19.2581210003,16
 .0492189325,21.3155511877\C,17.4410699792,11.5515944664,19.3038350695\
 C,17.6925415195,11.2534133606,20.7442588318\C,18.4589209962,12.0005344
 397,21.6354858463\C,18.1644367938,17.1384017805,18.7824957804\C,17.554
 5734111,17.361283063,20.1440559331\C,16.1521712678,17.4125104271,20.15
 35194877\C,15.4729218292,17.2608704902,21.3698823318\C,14.1571839577,1
 6.6425253134,21.6388478682\C,13.340710322,15.9558566592,20.7311818363\
 C,13.6254263085,15.6818397989,19.291799137\C,14.6632746788,16.15416404
 28,18.503809701\C,15.2755679039,15.2576349744,17.5617195583\C,16.66247
 49909,15.5841798952,17.4238581628\C,17.5902807988,14.5790026884,17.426
 4879941\C,17.1532501023,13.2236872497,17.5683423671\C,19.0182507889,14
 .7118686715,17.86621808\C,15.8139569628,12.8912017109,17.4016978703\C,
 14.8361035415,13.9488075393,17.3961050767\C,13.6826950522,13.494061646
 ,18.1009584069\C,19.2523696817,13.3969515293,18.7368477459\C,13.075969
 9457,14.362816358,19.0086451698\C,12.4654087225,13.8376330398,20.19869
 42285\C,17.9978919422,12.5454145763,18.5149645096\C,12.5633129317,12.4
 768647433,20.5073394515\C,13.3566957087,11.6147533783,19.6558897927\C,
 13.8977306383,12.1079214821,18.4787739342\C,15.2642629462,11.781887295
 9,18.1106956127\C,19.2086962603,13.2558918958,21.3678491728\C,19.40339
 99346,13.9271832919,20.151226935\C,16.0792122597,11.1137069441,19.0239
 177961\C,19.4548818744,15.3306953211,20.1427593582\C,15.5017838909,10.
 5506749666,20.2121206218\C,19.2630522686,15.9531109054,18.7806250622\C
 ,16.4966373477,10.5779874745,21.2510450725\C,16.0873663505,10.67528185
 52,22.5789782688\C,16.8868110349,11.4300682104,23.4944088333\C,18.0446
 503836,12.0523266797,23.0356435832\C,18.4335306744,13.3155450703,23.59
 28113143\C,18.2472287257,17.1060468778,21.3129104255\C,17.5922523041,1
 7.0831686443,22.5607471929\C,18.4167932366,16.2830809887,23.5686809281
 \C,17.5972763122,15.5045657544,24.651112401\C,17.6128815552,13.9959500
 422,24.4605465949\C,16.3519266703,13.43135059,24.8108314738\C,16.00590
 4346,12.1406667574,24.3899837603\C,14.6505242805,11.855234118,24.00487
 34583\C,14.6883605157,10.9121036684,22.9024761637\C,13.7488476069,10.9
 9033364,21.8830491315\C,14.1481565351,10.7554721852,20.5139450405\H,15
 .1523733826,18.2736612721,18.4355252264\H,16.9802238111,17.6705597315,
 17.0088712543\H,18.7098212796,18.0377258542,18.4877548886\H,20.1979748
 98,16.4282049649,18.474913134\H,19.6932889062,14.7303977983,17.0076184
 012\H,20.1497353558,12.8551833569,18.4227344757\H,19.1122994328,16.947
 9340859,24.0911066783\H,18.0652404062,15.724687704,25.6136047459\H,15.
 9161031177,16.3297505443,25.7860657744\H,15.091268572,17.7241569766,24
 .3015516344\\Version=ES64L-G16RevA.03\State=1-A\HF=-2521.4916855\RMSD=
 9.837e-09\RMSF=8.693e-05\Dipole=1.5559431,2.0667009,-0.0561764\Quadrup
 ole=-4.9871423,-1.1532262,6.1403685,3.0996404,-5.6449714,1.4969286\PG=
 C01 [X(C66H10)]\\@


 REALITY IS FOR PEOPLE WHO CAN'T FACE SCIENCE FICTION.
 Job cpu time:       1 days  3 hours 22 minutes 59.9 seconds.
 Elapsed time:       0 days  0 hours 34 minutes 18.4 seconds.
 File lengths (MBytes):  RWF=    957 Int=      0 D2E=      0 Chk=    120 Scr=      1
 Normal termination of Gaussian 16 at Wed Jul 20 17:14:59 2022.
