 Entering Gaussian System, Link 0=g16
 Input=dihept_10_addons_6.gjf
 Output=dihept_10_addons_6.log
 Initial command:
 /home/mkliu/g16/l1.exe "/data/scratch/Gau-40942.inp" -scrdir="/data/scratch/"
 Entering Link 1 = /home/mkliu/g16/l1.exe PID=     40943.
  
 Copyright (c) 1988,1990,1992,1993,1995,1998,2003,2009,2016,
            Gaussian, Inc.  All Rights Reserved.
  
 This is part of the Gaussian(R) 16 program.  It is based on
 the Gaussian(R) 09 system (copyright 2009, Gaussian, Inc.),
 the Gaussian(R) 03 system (copyright 2003, Gaussian, Inc.),
 the Gaussian(R) 98 system (copyright 1998, Gaussian, Inc.),
 the Gaussian(R) 94 system (copyright 1995, Gaussian, Inc.),
 the Gaussian 92(TM) system (copyright 1992, Gaussian, Inc.),
 the Gaussian 90(TM) system (copyright 1990, Gaussian, Inc.),
 the Gaussian 88(TM) system (copyright 1988, Gaussian, Inc.),
 the Gaussian 86(TM) system (copyright 1986, Carnegie Mellon
 University), and the Gaussian 82(TM) system (copyright 1983,
 Carnegie Mellon University). Gaussian is a federally registered
 trademark of Gaussian, Inc.
  
 This software contains proprietary and confidential information,
 including trade secrets, belonging to Gaussian, Inc.
  
 This software is provided under written license and may be
 used, copied, transmitted, or stored only in accord with that
 written license.
  
 The following legend is applicable only to US Government
 contracts under FAR:
  
                    RESTRICTED RIGHTS LEGEND
  
 Use, reproduction and disclosure by the US Government is
 subject to restrictions as set forth in subparagraphs (a)
 and (c) of the Commercial Computer Software - Restricted
 Rights clause in FAR 52.227-19.
  
 Gaussian, Inc.
 340 Quinnipiac St., Bldg. 40, Wallingford CT 06492
  
  
 ---------------------------------------------------------------
 Warning -- This program may not be used in any manner that
 competes with the business of Gaussian, Inc. or will provide
 assistance to any competitor of Gaussian, Inc.  The licensee
 of this program is prohibited from giving any competitor of
 Gaussian, Inc. access to this program.  By using this program,
 the user acknowledges that Gaussian, Inc. is engaged in the
 business of creating and licensing software in the field of
 computational chemistry and represents and warrants to the
 licensee that it is not a competitor of Gaussian, Inc. and that
 it will not use this program in any manner prohibited above.
 ---------------------------------------------------------------
  

 Cite this work as:
 Gaussian 16, Revision A.03,
 M. J. Frisch, G. W. Trucks, H. B. Schlegel, G. E. Scuseria, 
 M. A. Robb, J. R. Cheeseman, G. Scalmani, V. Barone, 
 G. A. Petersson, H. Nakatsuji, X. Li, M. Caricato, A. V. Marenich, 
 J. Bloino, B. G. Janesko, R. Gomperts, B. Mennucci, H. P. Hratchian, 
 J. V. Ortiz, A. F. Izmaylov, J. L. Sonnenberg, D. Williams-Young, 
 F. Ding, F. Lipparini, F. Egidi, J. Goings, B. Peng, A. Petrone, 
 T. Henderson, D. Ranasinghe, V. G. Zakrzewski, J. Gao, N. Rega, 
 G. Zheng, W. Liang, M. Hada, M. Ehara, K. Toyota, R. Fukuda, 
 J. Hasegawa, M. Ishida, T. Nakajima, Y. Honda, O. Kitao, H. Nakai, 
 T. Vreven, K. Throssell, J. A. Montgomery, Jr., J. E. Peralta, 
 F. Ogliaro, M. J. Bearpark, J. J. Heyd, E. N. Brothers, K. N. Kudin, 
 V. N. Staroverov, T. A. Keith, R. Kobayashi, J. Normand, 
 K. Raghavachari, A. P. Rendell, J. C. Burant, S. S. Iyengar, 
 J. Tomasi, M. Cossi, J. M. Millam, M. Klene, C. Adamo, R. Cammi, 
 J. W. Ochterski, R. L. Martin, K. Morokuma, O. Farkas, 
 J. B. Foresman, and D. J. Fox, Gaussian, Inc., Wallingford CT, 2016.
 
 ******************************************
 Gaussian 16:  ES64L-G16RevA.03 25-Dec-2016
                20-Jul-2022 
 ******************************************
 %mem=10GB
 %chk=dihept_10_addons_6.chk
 %nprocshared=48
 Will use up to   48 processors via shared memory.
 -------------------------------------------------
 #P opt b3lyp/6-311G(d, p) empiricaldispersion=GD3
 -------------------------------------------------
 1/18=20,19=15,26=3,38=1/1,3;
 2/9=110,12=2,17=6,18=5,40=1/2;
 3/5=4,6=6,7=101,11=2,25=1,30=1,71=1,74=-5,124=31/1,2,3;
 4//1;
 5/5=2,38=5/2;
 6/7=2,8=2,9=2,10=2,28=1/1;
 7//1,2,3,16;
 1/18=20,19=15,26=3/3(2);
 2/9=110/2;
 99//99;
 2/9=110/2;
 3/5=4,6=6,7=101,11=2,25=1,30=1,71=1,74=-5,124=31/1,2,3;
 4/5=5,16=3,69=1/1;
 5/5=2,38=5/2;
 7//1,2,3,16;
 1/18=20,19=15,26=3/3(-5);
 2/9=110/2;
 6/7=2,8=2,9=2,10=2,19=2,28=1/1;
 99/9=1/99;
 Leave Link    1 at Wed Jul 20 09:23:52 2022, MaxMem=  1342177280 cpu:               3.0 elap:               0.1
 (Enter /home/mkliu/g16/l101.exe)
 -----
 force
 -----
 Symbolic Z-matrix:
 Charge =  0 Multiplicity = 1
 C                     12.53247   11.8955   21.94416 
 C                     12.57285   12.98952   23.05873 
 C                     12.75226   14.41038   22.5754 
 C                     12.75501   14.79068   21.26492 
 C                     13.5406   15.15681   23.48155 
 C                     14.15456   14.23764   24.39998 
 C                     15.64717   17.34518   18.77826 
 C                     13.75098   12.91706   24.02286 
 C                     15.43531   14.50175   24.87648 
 C                     16.92021   16.9806   17.94441 
 C                     16.10222   15.72651   24.51466 
 C                     15.49508   16.60573   23.6234 
 C                     14.2223   16.29153   23.04528 
 C                     19.23819   14.05221   22.61263 
 C                     16.26178   17.28936   22.62726 
 C                     19.20624   15.4405   22.60571 
 C                     19.26324   16.09809   21.34531 
 C                     17.47581   11.66154   19.36329 
 C                     17.74217   11.32551   20.76914 
 C                     18.5185   12.04188   21.66545 
 C                     18.0072   16.84146   18.95902 
 C                     17.57307   17.39561   20.19498 
 C                     16.15166   17.5163   20.20022 
 C                     15.49166   17.37551   21.40237 
 C                     14.22005   16.69736   21.66652 
 C                     13.48798   15.92968   20.77299 
 C                     13.76899   15.64251   19.37159 
 C                     14.74488   16.14844   18.56826 
 C                     15.343    15.28226   17.58649 
 C                     16.64197   15.61103   17.3973 
 C                     17.71507   14.59485   17.09277 
 C                     17.17496   13.28142   17.594 
 C                     19.03067   14.76431   17.90346 
 C                     15.84663   12.973    17.46371 
 C                     14.77486   13.97586   17.11859 
 C                     13.52229   13.4833   17.89463 
 C                     19.25954   13.4605   18.75369 
 C                     13.19772   14.33328   19.08837 
 C                     12.61079   13.83019   20.20661 
 C                     17.99584   12.66509   18.56306 
 C                     12.32346   12.37741   20.45885 
 C                     13.40877   11.66647   19.67087 
 C                     13.94211   12.164    18.51879 
 C                     15.31125   11.92457   18.21845 
 C                     19.26614   13.2765   21.3882 
 C                     19.45684   13.93048   20.18696 
 C                     16.14113   11.22871   19.09098 
 C                     19.44402   15.35641   20.1849 
 C                     15.56686   10.65019   20.25017 
 C                     18.92132   15.83014   18.9477 
 C                     16.55726   10.65938   21.26936 
 C                     16.1251   10.77096   22.58393 
 C                     16.92747   11.50166   23.5049 
 C                     18.10356   12.08917   23.05246 
 C                     18.50649   13.34339   23.61558 
 C                     18.29941   17.15262   21.35304 
 C                     17.64284   17.14496   22.61484 
 C                     18.26362   16.14     23.44319 
 C                     17.50614   15.4409   24.36663 
 C                     17.68177   14.01899   24.5122 
 C                     16.41145   13.4515   24.88104 
 C                     16.05085   12.19613   24.41181 
 C                     14.6946   11.92247   24.01676 
 C                     14.73852   11.00223   22.8861 
 C                     13.81039   11.09334   21.88362 
 C                     14.22279   10.89141   20.54387 
 H                     15.15434   18.25812   18.42905 
 H                     17.14859   17.7042   17.15651 
 H                     19.87339   14.95232   17.23409 
 H                     20.13164   12.89252   18.41165 
 H                     11.63949   12.92084   23.63059 
 H                     11.70838   11.21736   22.19139 
 H                     11.31724   12.11711   20.11497 
 H                     12.65268   13.38635   17.23759 
 H                     14.57411   14.03276   16.04368 
 H                     17.92523   14.55796   16.01769 
 
 ITRead=  0  0  0  0  0  0  0  0  0  0  0  0  0  0  0  0  0  0  0  0
 ITRead=  0  0  0  0  0  0  0  0  0  0  0  0  0  0  0  0  0  0  0  0
 ITRead=  0  0  0  0  0  0  0  0  0  0  0  0  0  0  0  0  0  0  0  0
 ITRead=  0  0  0  0  0  0  0  0  0  0  0  0  0  0  0  0
 MicOpt= -1 -1 -1 -1 -1 -1 -1 -1 -1 -1 -1 -1 -1 -1 -1 -1 -1 -1 -1 -1
 MicOpt= -1 -1 -1 -1 -1 -1 -1 -1 -1 -1 -1 -1 -1 -1 -1 -1 -1 -1 -1 -1
 MicOpt= -1 -1 -1 -1 -1 -1 -1 -1 -1 -1 -1 -1 -1 -1 -1 -1 -1 -1 -1 -1
 MicOpt= -1 -1 -1 -1 -1 -1 -1 -1 -1 -1 -1 -1 -1 -1 -1 -1
 NAtoms=     76 NQM=       76 NQMF=       0 NMMI=      0 NMMIF=      0
                NMic=       0 NMicF=      0.
                    Isotopes and Nuclear Properties:
 (Nuclear quadrupole moments (NQMom) in fm**2, nuclear magnetic moments (NMagM)
  in nuclear magnetons)

  Atom         1           2           3           4           5           6           7           8           9          10
 IAtWgt=          12          12          12          12          12          12          12          12          12          12
 AtmWgt=  12.0000000  12.0000000  12.0000000  12.0000000  12.0000000  12.0000000  12.0000000  12.0000000  12.0000000  12.0000000
 NucSpn=           0           0           0           0           0           0           0           0           0           0
 AtZEff=  -0.0000000  -0.0000000  -0.0000000  -0.0000000  -0.0000000  -0.0000000  -0.0000000  -0.0000000  -0.0000000  -0.0000000
 NQMom=    0.0000000   0.0000000   0.0000000   0.0000000   0.0000000   0.0000000   0.0000000   0.0000000   0.0000000   0.0000000
 NMagM=    0.0000000   0.0000000   0.0000000   0.0000000   0.0000000   0.0000000   0.0000000   0.0000000   0.0000000   0.0000000
 AtZNuc=   6.0000000   6.0000000   6.0000000   6.0000000   6.0000000   6.0000000   6.0000000   6.0000000   6.0000000   6.0000000

  Atom        11          12          13          14          15          16          17          18          19          20
 IAtWgt=          12          12          12          12          12          12          12          12          12          12
 AtmWgt=  12.0000000  12.0000000  12.0000000  12.0000000  12.0000000  12.0000000  12.0000000  12.0000000  12.0000000  12.0000000
 NucSpn=           0           0           0           0           0           0           0           0           0           0
 AtZEff=  -0.0000000  -0.0000000  -0.0000000  -0.0000000  -0.0000000  -0.0000000  -0.0000000  -0.0000000  -0.0000000  -0.0000000
 NQMom=    0.0000000   0.0000000   0.0000000   0.0000000   0.0000000   0.0000000   0.0000000   0.0000000   0.0000000   0.0000000
 NMagM=    0.0000000   0.0000000   0.0000000   0.0000000   0.0000000   0.0000000   0.0000000   0.0000000   0.0000000   0.0000000
 AtZNuc=   6.0000000   6.0000000   6.0000000   6.0000000   6.0000000   6.0000000   6.0000000   6.0000000   6.0000000   6.0000000

  Atom        21          22          23          24          25          26          27          28          29          30
 IAtWgt=          12          12          12          12          12          12          12          12          12          12
 AtmWgt=  12.0000000  12.0000000  12.0000000  12.0000000  12.0000000  12.0000000  12.0000000  12.0000000  12.0000000  12.0000000
 NucSpn=           0           0           0           0           0           0           0           0           0           0
 AtZEff=  -0.0000000  -0.0000000  -0.0000000  -0.0000000  -0.0000000  -0.0000000  -0.0000000  -0.0000000  -0.0000000  -0.0000000
 NQMom=    0.0000000   0.0000000   0.0000000   0.0000000   0.0000000   0.0000000   0.0000000   0.0000000   0.0000000   0.0000000
 NMagM=    0.0000000   0.0000000   0.0000000   0.0000000   0.0000000   0.0000000   0.0000000   0.0000000   0.0000000   0.0000000
 AtZNuc=   6.0000000   6.0000000   6.0000000   6.0000000   6.0000000   6.0000000   6.0000000   6.0000000   6.0000000   6.0000000

  Atom        31          32          33          34          35          36          37          38          39          40
 IAtWgt=          12          12          12          12          12          12          12          12          12          12
 AtmWgt=  12.0000000  12.0000000  12.0000000  12.0000000  12.0000000  12.0000000  12.0000000  12.0000000  12.0000000  12.0000000
 NucSpn=           0           0           0           0           0           0           0           0           0           0
 AtZEff=  -0.0000000  -0.0000000  -0.0000000  -0.0000000  -0.0000000  -0.0000000  -0.0000000  -0.0000000  -0.0000000  -0.0000000
 NQMom=    0.0000000   0.0000000   0.0000000   0.0000000   0.0000000   0.0000000   0.0000000   0.0000000   0.0000000   0.0000000
 NMagM=    0.0000000   0.0000000   0.0000000   0.0000000   0.0000000   0.0000000   0.0000000   0.0000000   0.0000000   0.0000000
 AtZNuc=   6.0000000   6.0000000   6.0000000   6.0000000   6.0000000   6.0000000   6.0000000   6.0000000   6.0000000   6.0000000

  Atom        41          42          43          44          45          46          47          48          49          50
 IAtWgt=          12          12          12          12          12          12          12          12          12          12
 AtmWgt=  12.0000000  12.0000000  12.0000000  12.0000000  12.0000000  12.0000000  12.0000000  12.0000000  12.0000000  12.0000000
 NucSpn=           0           0           0           0           0           0           0           0           0           0
 AtZEff=  -0.0000000  -0.0000000  -0.0000000  -0.0000000  -0.0000000  -0.0000000  -0.0000000  -0.0000000  -0.0000000  -0.0000000
 NQMom=    0.0000000   0.0000000   0.0000000   0.0000000   0.0000000   0.0000000   0.0000000   0.0000000   0.0000000   0.0000000
 NMagM=    0.0000000   0.0000000   0.0000000   0.0000000   0.0000000   0.0000000   0.0000000   0.0000000   0.0000000   0.0000000
 AtZNuc=   6.0000000   6.0000000   6.0000000   6.0000000   6.0000000   6.0000000   6.0000000   6.0000000   6.0000000   6.0000000

  Atom        51          52          53          54          55          56          57          58          59          60
 IAtWgt=          12          12          12          12          12          12          12          12          12          12
 AtmWgt=  12.0000000  12.0000000  12.0000000  12.0000000  12.0000000  12.0000000  12.0000000  12.0000000  12.0000000  12.0000000
 NucSpn=           0           0           0           0           0           0           0           0           0           0
 AtZEff=  -0.0000000  -0.0000000  -0.0000000  -0.0000000  -0.0000000  -0.0000000  -0.0000000  -0.0000000  -0.0000000  -0.0000000
 NQMom=    0.0000000   0.0000000   0.0000000   0.0000000   0.0000000   0.0000000   0.0000000   0.0000000   0.0000000   0.0000000
 NMagM=    0.0000000   0.0000000   0.0000000   0.0000000   0.0000000   0.0000000   0.0000000   0.0000000   0.0000000   0.0000000
 AtZNuc=   6.0000000   6.0000000   6.0000000   6.0000000   6.0000000   6.0000000   6.0000000   6.0000000   6.0000000   6.0000000

  Atom        61          62          63          64          65          66          67          68          69          70
 IAtWgt=          12          12          12          12          12          12           1           1           1           1
 AtmWgt=  12.0000000  12.0000000  12.0000000  12.0000000  12.0000000  12.0000000   1.0078250   1.0078250   1.0078250   1.0078250
 NucSpn=           0           0           0           0           0           0           1           1           1           1
 AtZEff=  -0.0000000  -0.0000000  -0.0000000  -0.0000000  -0.0000000  -0.0000000  -0.0000000  -0.0000000  -0.0000000  -0.0000000
 NQMom=    0.0000000   0.0000000   0.0000000   0.0000000   0.0000000   0.0000000   0.0000000   0.0000000   0.0000000   0.0000000
 NMagM=    0.0000000   0.0000000   0.0000000   0.0000000   0.0000000   0.0000000   2.7928460   2.7928460   2.7928460   2.7928460
 AtZNuc=   6.0000000   6.0000000   6.0000000   6.0000000   6.0000000   6.0000000   1.0000000   1.0000000   1.0000000   1.0000000

  Atom        71          72          73          74          75          76
 IAtWgt=           1           1           1           1           1           1
 AtmWgt=   1.0078250   1.0078250   1.0078250   1.0078250   1.0078250   1.0078250
 NucSpn=           1           1           1           1           1           1
 AtZEff=  -0.0000000  -0.0000000  -0.0000000  -0.0000000  -0.0000000  -0.0000000
 NQMom=    0.0000000   0.0000000   0.0000000   0.0000000   0.0000000   0.0000000
 NMagM=    2.7928460   2.7928460   2.7928460   2.7928460   2.7928460   2.7928460
 AtZNuc=   1.0000000   1.0000000   1.0000000   1.0000000   1.0000000   1.0000000
 Leave Link  101 at Wed Jul 20 09:23:53 2022, MaxMem=  1342177280 cpu:              28.4 elap:               0.6
 (Enter /home/mkliu/g16/l103.exe)

 GradGradGradGradGradGradGradGradGradGradGradGradGradGradGradGradGradGrad
 Berny optimization.
 Initialization pass.
                           ----------------------------
                           !    Initial Parameters    !
                           ! (Angstroms and Degrees)  !
 --------------------------                            --------------------------
 ! Name  Definition              Value          Derivative Info.                !
 --------------------------------------------------------------------------------
 ! R1    R(1,2)                  1.5623         estimate D2E/DX2                !
 ! R2    R(1,41)                 1.5755         estimate D2E/DX2                !
 ! R3    R(1,65)                 1.51           estimate D2E/DX2                !
 ! R4    R(1,72)                 1.0955         estimate D2E/DX2                !
 ! R5    R(2,3)                  1.5115         estimate D2E/DX2                !
 ! R6    R(2,8)                  1.5241         estimate D2E/DX2                !
 ! R7    R(2,71)                 1.0968         estimate D2E/DX2                !
 ! R8    R(3,4)                  1.3645         estimate D2E/DX2                !
 ! R9    R(3,5)                  1.4141         estimate D2E/DX2                !
 ! R10   R(4,26)                 1.441          estimate D2E/DX2                !
 ! R11   R(4,39)                 1.4364         estimate D2E/DX2                !
 ! R12   R(5,6)                  1.4371         estimate D2E/DX2                !
 ! R13   R(5,13)                 1.3938         estimate D2E/DX2                !
 ! R14   R(6,8)                  1.4314         estimate D2E/DX2                !
 ! R15   R(6,9)                  1.3918         estimate D2E/DX2                !
 ! R16   R(7,10)                 1.5649         estimate D2E/DX2                !
 ! R17   R(7,23)                 1.5185         estimate D2E/DX2                !
 ! R18   R(7,28)                 1.5134         estimate D2E/DX2                !
 ! R19   R(7,67)                 1.0947         estimate D2E/DX2                !
 ! R20   R(8,63)                 1.371          estimate D2E/DX2                !
 ! R21   R(9,11)                 1.4407         estimate D2E/DX2                !
 ! R22   R(9,61)                 1.4338         estimate D2E/DX2                !
 ! R23   R(10,21)                1.4934         estimate D2E/DX2                !
 ! R24   R(10,30)                1.5008         estimate D2E/DX2                !
 ! R25   R(10,68)                1.0939         estimate D2E/DX2                !
 ! R26   R(11,12)                1.3914         estimate D2E/DX2                !
 ! R27   R(11,59)                1.4403         estimate D2E/DX2                !
 ! R28   R(12,13)                1.4328         estimate D2E/DX2                !
 ! R29   R(12,15)                1.4309         estimate D2E/DX2                !
 ! R30   R(13,25)                1.4372         estimate D2E/DX2                !
 ! R31   R(14,16)                1.3887         estimate D2E/DX2                !
 ! R32   R(14,45)                1.4497         estimate D2E/DX2                !
 ! R33   R(14,55)                1.4296         estimate D2E/DX2                !
 ! R34   R(15,24)                1.4494         estimate D2E/DX2                !
 ! R35   R(15,57)                1.3887         estimate D2E/DX2                !
 ! R36   R(16,17)                1.4228         estimate D2E/DX2                !
 ! R37   R(16,58)                1.4419         estimate D2E/DX2                !
 ! R38   R(17,48)                1.389          estimate D2E/DX2                !
 ! R39   R(17,56)                1.4287         estimate D2E/DX2                !
 ! R40   R(18,19)                1.4698         estimate D2E/DX2                !
 ! R41   R(18,40)                1.3849         estimate D2E/DX2                !
 ! R42   R(18,47)                1.4293         estimate D2E/DX2                !
 ! R43   R(19,20)                1.3854         estimate D2E/DX2                !
 ! R44   R(19,51)                1.4484         estimate D2E/DX2                !
 ! R45   R(20,45)                1.4697         estimate D2E/DX2                !
 ! R46   R(20,54)                1.4485         estimate D2E/DX2                !
 ! R47   R(21,22)                1.4224         estimate D2E/DX2                !
 ! R48   R(21,50)                1.3633         estimate D2E/DX2                !
 ! R49   R(22,23)                1.4265         estimate D2E/DX2                !
 ! R50   R(22,56)                1.3884         estimate D2E/DX2                !
 ! R51   R(23,24)                1.3786         estimate D2E/DX2                !
 ! R52   R(24,25)                1.4652         estimate D2E/DX2                !
 ! R53   R(25,26)                1.387          estimate D2E/DX2                !
 ! R54   R(26,27)                1.4579         estimate D2E/DX2                !
 ! R55   R(27,28)                1.3615         estimate D2E/DX2                !
 ! R56   R(27,38)                1.4563         estimate D2E/DX2                !
 ! R57   R(28,29)                1.4394         estimate D2E/DX2                !
 ! R58   R(29,30)                1.3532         estimate D2E/DX2                !
 ! R59   R(29,35)                1.4995         estimate D2E/DX2                !
 ! R60   R(30,31)                1.5089         estimate D2E/DX2                !
 ! R61   R(31,32)                1.506          estimate D2E/DX2                !
 ! R62   R(31,33)                1.5546         estimate D2E/DX2                !
 ! R63   R(31,76)                1.0961         estimate D2E/DX2                !
 ! R64   R(32,34)                1.3699         estimate D2E/DX2                !
 ! R65   R(32,40)                1.4117         estimate D2E/DX2                !
 ! R66   R(33,37)                1.5733         estimate D2E/DX2                !
 ! R67   R(33,50)                1.4961         estimate D2E/DX2                !
 ! R68   R(33,69)                1.0925         estimate D2E/DX2                !
 ! R69   R(34,35)                1.5078         estimate D2E/DX2                !
 ! R70   R(34,44)                1.3984         estimate D2E/DX2                !
 ! R71   R(35,36)                1.5536         estimate D2E/DX2                !
 ! R72   R(35,75)                1.095          estimate D2E/DX2                !
 ! R73   R(36,38)                1.5009         estimate D2E/DX2                !
 ! R74   R(36,43)                1.5187         estimate D2E/DX2                !
 ! R75   R(36,74)                1.0942         estimate D2E/DX2                !
 ! R76   R(37,40)                1.5053         estimate D2E/DX2                !
 ! R77   R(37,46)                1.5212         estimate D2E/DX2                !
 ! R78   R(37,70)                1.0955         estimate D2E/DX2                !
 ! R79   R(38,39)                1.3594         estimate D2E/DX2                !
 ! R80   R(39,41)                1.5023         estimate D2E/DX2                !
 ! R81   R(41,42)                1.518          estimate D2E/DX2                !
 ! R82   R(41,73)                1.0948         estimate D2E/DX2                !
 ! R83   R(42,43)                1.3636         estimate D2E/DX2                !
 ! R84   R(42,66)                1.4232         estimate D2E/DX2                !
 ! R85   R(43,44)                1.422          estimate D2E/DX2                !
 ! R86   R(44,47)                1.3908         estimate D2E/DX2                !
 ! R87   R(45,46)                1.381          estimate D2E/DX2                !
 ! R88   R(46,48)                1.426          estimate D2E/DX2                !
 ! R89   R(47,49)                1.4171         estimate D2E/DX2                !
 ! R90   R(48,50)                1.4242         estimate D2E/DX2                !
 ! R91   R(49,51)                1.4212         estimate D2E/DX2                !
 ! R92   R(49,66)                1.3968         estimate D2E/DX2                !
 ! R93   R(51,52)                1.3883         estimate D2E/DX2                !
 ! R94   R(52,53)                1.4233         estimate D2E/DX2                !
 ! R95   R(52,64)                1.4378         estimate D2E/DX2                !
 ! R96   R(53,54)                1.3903         estimate D2E/DX2                !
 ! R97   R(53,62)                1.4399         estimate D2E/DX2                !
 ! R98   R(54,55)                1.4327         estimate D2E/DX2                !
 ! R99   R(55,60)                1.393          estimate D2E/DX2                !
 ! R100  R(56,57)                1.4224         estimate D2E/DX2                !
 ! R101  R(57,58)                1.4427         estimate D2E/DX2                !
 ! R102  R(58,59)                1.3839         estimate D2E/DX2                !
 ! R103  R(59,60)                1.4401         estimate D2E/DX2                !
 ! R104  R(60,61)                1.4394         estimate D2E/DX2                !
 ! R105  R(61,62)                1.3879         estimate D2E/DX2                !
 ! R106  R(62,63)                1.4389         estimate D2E/DX2                !
 ! R107  R(63,64)                1.4585         estimate D2E/DX2                !
 ! R108  R(64,65)                1.3692         estimate D2E/DX2                !
 ! R109  R(65,66)                1.4162         estimate D2E/DX2                !
 ! A1    A(2,1,41)             117.5047         estimate D2E/DX2                !
 ! A2    A(2,1,65)             112.2551         estimate D2E/DX2                !
 ! A3    A(2,1,72)             106.9725         estimate D2E/DX2                !
 ! A4    A(41,1,65)            103.7077         estimate D2E/DX2                !
 ! A5    A(41,1,72)            107.5967         estimate D2E/DX2                !
 ! A6    A(65,1,72)            108.4714         estimate D2E/DX2                !
 ! A7    A(1,2,3)              115.6716         estimate D2E/DX2                !
 ! A8    A(1,2,8)              115.9756         estimate D2E/DX2                !
 ! A9    A(1,2,71)             107.8265         estimate D2E/DX2                !
 ! A10   A(3,2,8)               98.9299         estimate D2E/DX2                !
 ! A11   A(3,2,71)             109.0629         estimate D2E/DX2                !
 ! A12   A(8,2,71)             108.9669         estimate D2E/DX2                !
 ! A13   A(2,3,4)              124.7028         estimate D2E/DX2                !
 ! A14   A(2,3,5)              110.944          estimate D2E/DX2                !
 ! A15   A(4,3,5)              117.8503         estimate D2E/DX2                !
 ! A16   A(3,4,26)             123.3094         estimate D2E/DX2                !
 ! A17   A(3,4,39)             121.4001         estimate D2E/DX2                !
 ! A18   A(26,4,39)            109.1515         estimate D2E/DX2                !
 ! A19   A(3,5,6)              108.0639         estimate D2E/DX2                !
 ! A20   A(3,5,13)             120.1204         estimate D2E/DX2                !
 ! A21   A(6,5,13)             120.7836         estimate D2E/DX2                !
 ! A22   A(5,6,8)              107.5316         estimate D2E/DX2                !
 ! A23   A(5,6,9)              119.3769         estimate D2E/DX2                !
 ! A24   A(8,6,9)              121.648          estimate D2E/DX2                !
 ! A25   A(10,7,23)            104.7713         estimate D2E/DX2                !
 ! A26   A(10,7,28)            103.1113         estimate D2E/DX2                !
 ! A27   A(10,7,67)            112.9896         estimate D2E/DX2                !
 ! A28   A(23,7,28)            114.6533         estimate D2E/DX2                !
 ! A29   A(23,7,67)            110.7523         estimate D2E/DX2                !
 ! A30   A(28,7,67)            110.2921         estimate D2E/DX2                !
 ! A31   A(2,8,6)              109.9221         estimate D2E/DX2                !
 ! A32   A(2,8,63)             124.3136         estimate D2E/DX2                !
 ! A33   A(6,8,63)             118.4493         estimate D2E/DX2                !
 ! A34   A(6,9,11)             120.0853         estimate D2E/DX2                !
 ! A35   A(6,9,61)             119.2461         estimate D2E/DX2                !
 ! A36   A(11,9,61)            107.9592         estimate D2E/DX2                !
 ! A37   A(7,10,21)            104.5846         estimate D2E/DX2                !
 ! A38   A(7,10,30)            104.8347         estimate D2E/DX2                !
 ! A39   A(7,10,68)            113.5495         estimate D2E/DX2                !
 ! A40   A(21,10,30)           107.3121         estimate D2E/DX2                !
 ! A41   A(21,10,68)           113.5165         estimate D2E/DX2                !
 ! A42   A(30,10,68)           112.3206         estimate D2E/DX2                !
 ! A43   A(9,11,12)            119.7393         estimate D2E/DX2                !
 ! A44   A(9,11,59)            107.9647         estimate D2E/DX2                !
 ! A45   A(12,11,59)           118.9991         estimate D2E/DX2                !
 ! A46   A(11,12,13)           120.4981         estimate D2E/DX2                !
 ! A47   A(11,12,15)           120.9323         estimate D2E/DX2                !
 ! A48   A(13,12,15)           107.4484         estimate D2E/DX2                !
 ! A49   A(5,13,12)            119.1241         estimate D2E/DX2                !
 ! A50   A(5,13,25)            121.9641         estimate D2E/DX2                !
 ! A51   A(12,13,25)           109.059          estimate D2E/DX2                !
 ! A52   A(16,14,45)           122.0831         estimate D2E/DX2                !
 ! A53   A(16,14,55)           119.1704         estimate D2E/DX2                !
 ! A54   A(45,14,55)           109.7007         estimate D2E/DX2                !
 ! A55   A(12,15,24)           109.3915         estimate D2E/DX2                !
 ! A56   A(12,15,57)           119.3034         estimate D2E/DX2                !
 ! A57   A(24,15,57)           121.8059         estimate D2E/DX2                !
 ! A58   A(14,16,17)           117.7465         estimate D2E/DX2                !
 ! A59   A(14,16,58)           119.8091         estimate D2E/DX2                !
 ! A60   A(17,16,58)           108.451          estimate D2E/DX2                !
 ! A61   A(16,17,48)           119.901          estimate D2E/DX2                !
 ! A62   A(16,17,56)           108.0194         estimate D2E/DX2                !
 ! A63   A(48,17,56)           119.1082         estimate D2E/DX2                !
 ! A64   A(19,18,40)           130.5655         estimate D2E/DX2                !
 ! A65   A(19,18,47)           106.3928         estimate D2E/DX2                !
 ! A66   A(40,18,47)           117.3873         estimate D2E/DX2                !
 ! A67   A(18,19,20)           127.0256         estimate D2E/DX2                !
 ! A68   A(18,19,51)           106.692          estimate D2E/DX2                !
 ! A69   A(20,19,51)           118.216          estimate D2E/DX2                !
 ! A70   A(19,20,45)           126.6829         estimate D2E/DX2                !
 ! A71   A(19,20,54)           118.4157         estimate D2E/DX2                !
 ! A72   A(45,20,54)           107.393          estimate D2E/DX2                !
 ! A73   A(10,21,22)           109.3836         estimate D2E/DX2                !
 ! A74   A(10,21,50)           123.4714         estimate D2E/DX2                !
 ! A75   A(22,21,50)           120.0586         estimate D2E/DX2                !
 ! A76   A(21,22,23)           109.8934         estimate D2E/DX2                !
 ! A77   A(21,22,56)           119.7961         estimate D2E/DX2                !
 ! A78   A(23,22,56)           122.2085         estimate D2E/DX2                !
 ! A79   A(7,23,22)            108.5461         estimate D2E/DX2                !
 ! A80   A(7,23,24)            130.241          estimate D2E/DX2                !
 ! A81   A(22,23,24)           118.1376         estimate D2E/DX2                !
 ! A82   A(15,24,23)           119.2491         estimate D2E/DX2                !
 ! A83   A(15,24,25)           106.336          estimate D2E/DX2                !
 ! A84   A(23,24,25)           128.3151         estimate D2E/DX2                !
 ! A85   A(13,25,24)           107.595          estimate D2E/DX2                !
 ! A86   A(13,25,26)           117.5521         estimate D2E/DX2                !
 ! A87   A(24,25,26)           126.737          estimate D2E/DX2                !
 ! A88   A(4,26,25)            119.0806         estimate D2E/DX2                !
 ! A89   A(4,26,27)            105.6946         estimate D2E/DX2                !
 ! A90   A(25,26,27)           128.7975         estimate D2E/DX2                !
 ! A91   A(26,27,28)           129.2093         estimate D2E/DX2                !
 ! A92   A(26,27,38)           106.7637         estimate D2E/DX2                !
 ! A93   A(28,27,38)           120.034          estimate D2E/DX2                !
 ! A94   A(7,28,27)            129.7404         estimate D2E/DX2                !
 ! A95   A(7,28,29)            108.8295         estimate D2E/DX2                !
 ! A96   A(27,28,29)           118.4687         estimate D2E/DX2                !
 ! A97   A(28,29,30)           110.3669         estimate D2E/DX2                !
 ! A98   A(28,29,35)           125.4276         estimate D2E/DX2                !
 ! A99   A(30,29,35)           122.124          estimate D2E/DX2                !
 ! A100  A(10,30,29)           110.4077         estimate D2E/DX2                !
 ! A101  A(10,30,31)           123.7986         estimate D2E/DX2                !
 ! A102  A(29,30,31)           123.1785         estimate D2E/DX2                !
 ! A103  A(30,31,32)           105.3735         estimate D2E/DX2                !
 ! A104  A(30,31,33)           115.0355         estimate D2E/DX2                !
 ! A105  A(30,31,76)           110.9153         estimate D2E/DX2                !
 ! A106  A(32,31,33)           103.0035         estimate D2E/DX2                !
 ! A107  A(32,31,76)           111.4606         estimate D2E/DX2                !
 ! A108  A(33,31,76)           110.6653         estimate D2E/DX2                !
 ! A109  A(31,32,34)           120.8279         estimate D2E/DX2                !
 ! A110  A(31,32,40)           113.6217         estimate D2E/DX2                !
 ! A111  A(34,32,40)           122.0633         estimate D2E/DX2                !
 ! A112  A(31,33,37)           108.3363         estimate D2E/DX2                !
 ! A113  A(31,33,50)           112.3199         estimate D2E/DX2                !
 ! A114  A(31,33,69)           110.6116         estimate D2E/DX2                !
 ! A115  A(37,33,50)           102.9335         estimate D2E/DX2                !
 ! A116  A(37,33,69)           111.1928         estimate D2E/DX2                !
 ! A117  A(50,33,69)           111.1874         estimate D2E/DX2                !
 ! A118  A(32,34,35)           124.144          estimate D2E/DX2                !
 ! A119  A(32,34,44)           119.2562         estimate D2E/DX2                !
 ! A120  A(35,34,44)           110.4904         estimate D2E/DX2                !
 ! A121  A(29,35,34)           103.811          estimate D2E/DX2                !
 ! A122  A(29,35,36)           115.2027         estimate D2E/DX2                !
 ! A123  A(29,35,75)           109.3003         estimate D2E/DX2                !
 ! A124  A(34,35,36)           104.3516         estimate D2E/DX2                !
 ! A125  A(34,35,75)           112.9277         estimate D2E/DX2                !
 ! A126  A(36,35,75)           111.04           estimate D2E/DX2                !
 ! A127  A(35,36,38)           113.0831         estimate D2E/DX2                !
 ! A128  A(35,36,43)           104.9417         estimate D2E/DX2                !
 ! A129  A(35,36,74)           111.6464         estimate D2E/DX2                !
 ! A130  A(38,36,43)           102.9945         estimate D2E/DX2                !
 ! A131  A(38,36,74)           110.8477         estimate D2E/DX2                !
 ! A132  A(43,36,74)           112.9244         estimate D2E/DX2                !
 ! A133  A(33,37,40)           104.3201         estimate D2E/DX2                !
 ! A134  A(33,37,46)           105.7838         estimate D2E/DX2                !
 ! A135  A(33,37,70)           112.132          estimate D2E/DX2                !
 ! A136  A(40,37,46)           113.0449         estimate D2E/DX2                !
 ! A137  A(40,37,70)           110.7809         estimate D2E/DX2                !
 ! A138  A(46,37,70)           110.5546         estimate D2E/DX2                !
 ! A139  A(27,38,36)           125.3787         estimate D2E/DX2                !
 ! A140  A(27,38,39)           110.0051         estimate D2E/DX2                !
 ! A141  A(36,38,39)           122.5484         estimate D2E/DX2                !
 ! A142  A(4,39,38)            108.3757         estimate D2E/DX2                !
 ! A143  A(4,39,41)            122.8291         estimate D2E/DX2                !
 ! A144  A(38,39,41)           125.351          estimate D2E/DX2                !
 ! A145  A(18,40,32)           119.6493         estimate D2E/DX2                !
 ! A146  A(18,40,37)           128.6793         estimate D2E/DX2                !
 ! A147  A(32,40,37)           110.145          estimate D2E/DX2                !
 ! A148  A(1,41,39)            115.3874         estimate D2E/DX2                !
 ! A149  A(1,41,42)            104.5535         estimate D2E/DX2                !
 ! A150  A(1,41,73)            110.2034         estimate D2E/DX2                !
 ! A151  A(39,41,42)           103.2386         estimate D2E/DX2                !
 ! A152  A(39,41,73)           110.6707         estimate D2E/DX2                !
 ! A153  A(42,41,73)           112.5033         estimate D2E/DX2                !
 ! A154  A(41,42,43)           123.1866         estimate D2E/DX2                !
 ! A155  A(41,42,66)           110.2171         estimate D2E/DX2                !
 ! A156  A(43,42,66)           119.5549         estimate D2E/DX2                !
 ! A157  A(36,43,42)           123.7859         estimate D2E/DX2                !
 ! A158  A(36,43,44)           109.0036         estimate D2E/DX2                !
 ! A159  A(42,43,44)           119.5792         estimate D2E/DX2                !
 ! A160  A(34,44,43)           110.8788         estimate D2E/DX2                !
 ! A161  A(34,44,47)           119.0308         estimate D2E/DX2                !
 ! A162  A(43,44,47)           121.7535         estimate D2E/DX2                !
 ! A163  A(14,45,20)           106.2805         estimate D2E/DX2                !
 ! A164  A(14,45,46)           118.9432         estimate D2E/DX2                !
 ! A165  A(20,45,46)           129.2094         estimate D2E/DX2                !
 ! A166  A(37,46,45)           130.9463         estimate D2E/DX2                !
 ! A167  A(37,46,48)           107.8432         estimate D2E/DX2                !
 ! A168  A(45,46,48)           118.2664         estimate D2E/DX2                !
 ! A169  A(18,47,44)           121.6829         estimate D2E/DX2                !
 ! A170  A(18,47,49)           110.2554         estimate D2E/DX2                !
 ! A171  A(44,47,49)           118.4005         estimate D2E/DX2                !
 ! A172  A(17,48,46)           122.2699         estimate D2E/DX2                !
 ! A173  A(17,48,50)           120.0235         estimate D2E/DX2                !
 ! A174  A(46,48,50)           109.705          estimate D2E/DX2                !
 ! A175  A(47,49,51)           107.5521         estimate D2E/DX2                !
 ! A176  A(47,49,66)           119.4364         estimate D2E/DX2                !
 ! A177  A(51,49,66)           121.2438         estimate D2E/DX2                !
 ! A178  A(21,50,33)           125.6818         estimate D2E/DX2                !
 ! A179  A(21,50,48)           119.0547         estimate D2E/DX2                !
 ! A180  A(33,50,48)           110.0312         estimate D2E/DX2                !
 ! A181  A(19,51,49)           108.9898         estimate D2E/DX2                !
 ! A182  A(19,51,52)           123.0052         estimate D2E/DX2                !
 ! A183  A(49,51,52)           117.5585         estimate D2E/DX2                !
 ! A184  A(51,52,53)           118.5855         estimate D2E/DX2                !
 ! A185  A(51,52,64)           120.8054         estimate D2E/DX2                !
 ! A186  A(53,52,64)           108.9697         estimate D2E/DX2                !
 ! A187  A(52,53,54)           118.8965         estimate D2E/DX2                !
 ! A188  A(52,53,62)           108.1764         estimate D2E/DX2                !
 ! A189  A(54,53,62)           121.0746         estimate D2E/DX2                !
 ! A190  A(20,54,53)           122.6914         estimate D2E/DX2                !
 ! A191  A(20,54,55)           108.9279         estimate D2E/DX2                !
 ! A192  A(53,54,55)           118.6814         estimate D2E/DX2                !
 ! A193  A(14,55,54)           107.5934         estimate D2E/DX2                !
 ! A194  A(14,55,60)           120.9386         estimate D2E/DX2                !
 ! A195  A(54,55,60)           120.7341         estimate D2E/DX2                !
 ! A196  A(17,56,22)           118.5292         estimate D2E/DX2                !
 ! A197  A(17,56,57)           108.1936         estimate D2E/DX2                !
 ! A198  A(22,56,57)           119.9583         estimate D2E/DX2                !
 ! A199  A(15,57,56)           117.8032         estimate D2E/DX2                !
 ! A200  A(15,57,58)           119.6846         estimate D2E/DX2                !
 ! A201  A(56,57,58)           108.3283         estimate D2E/DX2                !
 ! A202  A(16,58,57)           106.6018         estimate D2E/DX2                !
 ! A203  A(16,58,59)           120.0196         estimate D2E/DX2                !
 ! A204  A(57,58,59)           119.9653         estimate D2E/DX2                !
 ! A205  A(11,59,58)           120.1272         estimate D2E/DX2                !
 ! A206  A(11,59,60)           107.7155         estimate D2E/DX2                !
 ! A207  A(58,59,60)           119.9652         estimate D2E/DX2                !
 ! A208  A(55,60,59)           119.078          estimate D2E/DX2                !
 ! A209  A(55,60,61)           119.7508         estimate D2E/DX2                !
 ! A210  A(59,60,61)           107.9113         estimate D2E/DX2                !
 ! A211  A(9,61,60)            108.1337         estimate D2E/DX2                !
 ! A212  A(9,61,62)            118.9854         estimate D2E/DX2                !
 ! A213  A(60,61,62)           119.9535         estimate D2E/DX2                !
 ! A214  A(53,62,61)           119.408          estimate D2E/DX2                !
 ! A215  A(53,62,63)           108.0106         estimate D2E/DX2                !
 ! A216  A(61,62,63)           120.6482         estimate D2E/DX2                !
 ! A217  A(8,63,62)            120.6339         estimate D2E/DX2                !
 ! A218  A(8,63,64)            118.8094         estimate D2E/DX2                !
 ! A219  A(62,63,64)           107.726          estimate D2E/DX2                !
 ! A220  A(52,64,63)           107.0644         estimate D2E/DX2                !
 ! A221  A(52,64,65)           120.699          estimate D2E/DX2                !
 ! A222  A(63,64,65)           120.3451         estimate D2E/DX2                !
 ! A223  A(1,65,64)            125.4263         estimate D2E/DX2                !
 ! A224  A(1,65,66)            111.1066         estimate D2E/DX2                !
 ! A225  A(64,65,66)           119.0608         estimate D2E/DX2                !
 ! A226  A(42,66,49)           121.028          estimate D2E/DX2                !
 ! A227  A(42,66,65)           109.6375         estimate D2E/DX2                !
 ! A228  A(49,66,65)           120.2483         estimate D2E/DX2                !
 ! D1    D(41,1,2,3)           -14.6786         estimate D2E/DX2                !
 ! D2    D(41,1,2,8)          -129.8773         estimate D2E/DX2                !
 ! D3    D(41,1,2,71)          107.6802         estimate D2E/DX2                !
 ! D4    D(65,1,2,3)           105.4363         estimate D2E/DX2                !
 ! D5    D(65,1,2,8)            -9.7624         estimate D2E/DX2                !
 ! D6    D(65,1,2,71)         -132.2049         estimate D2E/DX2                !
 ! D7    D(72,1,2,3)          -135.6943         estimate D2E/DX2                !
 ! D8    D(72,1,2,8)           109.1071         estimate D2E/DX2                !
 ! D9    D(72,1,2,71)          -13.3354         estimate D2E/DX2                !
 ! D10   D(2,1,41,39)           18.3983         estimate D2E/DX2                !
 ! D11   D(2,1,41,42)          131.0478         estimate D2E/DX2                !
 ! D12   D(2,1,41,73)         -107.8286         estimate D2E/DX2                !
 ! D13   D(65,1,41,39)        -106.109          estimate D2E/DX2                !
 ! D14   D(65,1,41,42)           6.5405         estimate D2E/DX2                !
 ! D15   D(65,1,41,73)         127.6641         estimate D2E/DX2                !
 ! D16   D(72,1,41,39)         139.0887         estimate D2E/DX2                !
 ! D17   D(72,1,41,42)        -108.2617         estimate D2E/DX2                !
 ! D18   D(72,1,41,73)          12.8618         estimate D2E/DX2                !
 ! D19   D(2,1,65,64)           19.064          estimate D2E/DX2                !
 ! D20   D(2,1,65,66)         -136.9364         estimate D2E/DX2                !
 ! D21   D(41,1,65,64)         146.9023         estimate D2E/DX2                !
 ! D22   D(41,1,65,66)          -9.0981         estimate D2E/DX2                !
 ! D23   D(72,1,65,64)         -98.9206         estimate D2E/DX2                !
 ! D24   D(72,1,65,66)         105.079          estimate D2E/DX2                !
 ! D25   D(1,2,3,4)              6.2444         estimate D2E/DX2                !
 ! D26   D(1,2,3,5)           -144.6229         estimate D2E/DX2                !
 ! D27   D(8,2,3,4)            130.8167         estimate D2E/DX2                !
 ! D28   D(8,2,3,5)            -20.0506         estimate D2E/DX2                !
 ! D29   D(71,2,3,4)          -115.4552         estimate D2E/DX2                !
 ! D30   D(71,2,3,5)            93.6775         estimate D2E/DX2                !
 ! D31   D(1,2,8,6)            144.9641         estimate D2E/DX2                !
 ! D32   D(1,2,8,63)            -4.4455         estimate D2E/DX2                !
 ! D33   D(3,2,8,6)             20.6062         estimate D2E/DX2                !
 ! D34   D(3,2,8,63)          -128.8034         estimate D2E/DX2                !
 ! D35   D(71,2,8,6)           -93.1971         estimate D2E/DX2                !
 ! D36   D(71,2,8,63)          117.3933         estimate D2E/DX2                !
 ! D37   D(2,3,4,26)          -150.8255         estimate D2E/DX2                !
 ! D38   D(2,3,4,39)            -1.3945         estimate D2E/DX2                !
 ! D39   D(5,3,4,26)            -1.7716         estimate D2E/DX2                !
 ! D40   D(5,3,4,39)           147.6594         estimate D2E/DX2                !
 ! D41   D(2,3,5,6)             12.8344         estimate D2E/DX2                !
 ! D42   D(2,3,5,13)           157.0856         estimate D2E/DX2                !
 ! D43   D(4,3,5,6)           -140.2507         estimate D2E/DX2                !
 ! D44   D(4,3,5,13)             4.0005         estimate D2E/DX2                !
 ! D45   D(3,4,26,25)           -0.7728         estimate D2E/DX2                !
 ! D46   D(3,4,26,27)          153.5153         estimate D2E/DX2                !
 ! D47   D(39,4,26,25)        -153.4162         estimate D2E/DX2                !
 ! D48   D(39,4,26,27)           0.8719         estimate D2E/DX2                !
 ! D49   D(3,4,39,38)         -154.2761         estimate D2E/DX2                !
 ! D50   D(3,4,39,41)            5.7526         estimate D2E/DX2                !
 ! D51   D(26,4,39,38)          -1.0151         estimate D2E/DX2                !
 ! D52   D(26,4,39,41)         159.0137         estimate D2E/DX2                !
 ! D53   D(3,5,6,8)              1.1898         estimate D2E/DX2                !
 ! D54   D(3,5,6,9)            145.2167         estimate D2E/DX2                !
 ! D55   D(13,5,6,8)          -142.7793         estimate D2E/DX2                !
 ! D56   D(13,5,6,9)             1.2477         estimate D2E/DX2                !
 ! D57   D(3,5,13,12)         -145.8442         estimate D2E/DX2                !
 ! D58   D(3,5,13,25)           -3.8205         estimate D2E/DX2                !
 ! D59   D(6,5,13,12)           -6.1246         estimate D2E/DX2                !
 ! D60   D(6,5,13,25)          135.8991         estimate D2E/DX2                !
 ! D61   D(5,6,8,2)            -14.5903         estimate D2E/DX2                !
 ! D62   D(5,6,8,63)           136.8507         estimate D2E/DX2                !
 ! D63   D(9,6,8,2)           -157.6279         estimate D2E/DX2                !
 ! D64   D(9,6,8,63)            -6.1869         estimate D2E/DX2                !
 ! D65   D(5,6,9,11)             3.7973         estimate D2E/DX2                !
 ! D66   D(5,6,9,61)          -133.3242         estimate D2E/DX2                !
 ! D67   D(8,6,9,11)           142.6522         estimate D2E/DX2                !
 ! D68   D(8,6,9,61)             5.5307         estimate D2E/DX2                !
 ! D69   D(23,7,10,21)           5.3498         estimate D2E/DX2                !
 ! D70   D(23,7,10,30)         118.1179         estimate D2E/DX2                !
 ! D71   D(23,7,10,68)        -118.9248         estimate D2E/DX2                !
 ! D72   D(28,7,10,21)        -114.9379         estimate D2E/DX2                !
 ! D73   D(28,7,10,30)          -2.1699         estimate D2E/DX2                !
 ! D74   D(28,7,10,68)         120.7875         estimate D2E/DX2                !
 ! D75   D(67,7,10,21)         126.0085         estimate D2E/DX2                !
 ! D76   D(67,7,10,30)        -121.2235         estimate D2E/DX2                !
 ! D77   D(67,7,10,68)           1.7339         estimate D2E/DX2                !
 ! D78   D(10,7,23,22)           4.9276         estimate D2E/DX2                !
 ! D79   D(10,7,23,24)        -154.3926         estimate D2E/DX2                !
 ! D80   D(28,7,23,22)         117.2081         estimate D2E/DX2                !
 ! D81   D(28,7,23,24)         -42.1121         estimate D2E/DX2                !
 ! D82   D(67,7,23,22)        -117.2027         estimate D2E/DX2                !
 ! D83   D(67,7,23,24)          83.4771         estimate D2E/DX2                !
 ! D84   D(10,7,28,27)         152.7707         estimate D2E/DX2                !
 ! D85   D(10,7,28,29)          -7.026          estimate D2E/DX2                !
 ! D86   D(23,7,28,27)          39.5085         estimate D2E/DX2                !
 ! D87   D(23,7,28,29)        -120.2882         estimate D2E/DX2                !
 ! D88   D(67,7,28,27)         -86.3204         estimate D2E/DX2                !
 ! D89   D(67,7,28,29)         113.8829         estimate D2E/DX2                !
 ! D90   D(2,8,63,62)          148.5087         estimate D2E/DX2                !
 ! D91   D(2,8,63,64)           11.6626         estimate D2E/DX2                !
 ! D92   D(6,8,63,62)            1.4758         estimate D2E/DX2                !
 ! D93   D(6,8,63,64)         -135.3704         estimate D2E/DX2                !
 ! D94   D(6,9,11,12)           -3.8818         estimate D2E/DX2                !
 ! D95   D(6,9,11,59)         -144.4324         estimate D2E/DX2                !
 ! D96   D(61,9,11,12)         137.5007         estimate D2E/DX2                !
 ! D97   D(61,9,11,59)          -3.0499         estimate D2E/DX2                !
 ! D98   D(6,9,61,60)          141.3035         estimate D2E/DX2                !
 ! D99   D(6,9,61,62)           -0.1455         estimate D2E/DX2                !
 ! D100  D(11,9,61,60)          -0.4583         estimate D2E/DX2                !
 ! D101  D(11,9,61,62)        -141.9072         estimate D2E/DX2                !
 ! D102  D(7,10,21,22)         -14.0397         estimate D2E/DX2                !
 ! D103  D(7,10,21,50)         136.3224         estimate D2E/DX2                !
 ! D104  D(30,10,21,22)       -125.0301         estimate D2E/DX2                !
 ! D105  D(30,10,21,50)         25.332          estimate D2E/DX2                !
 ! D106  D(68,10,21,22)        110.256          estimate D2E/DX2                !
 ! D107  D(68,10,21,50)        -99.3819         estimate D2E/DX2                !
 ! D108  D(7,10,30,29)          11.418          estimate D2E/DX2                !
 ! D109  D(7,10,30,31)        -150.7013         estimate D2E/DX2                !
 ! D110  D(21,10,30,29)        122.2365         estimate D2E/DX2                !
 ! D111  D(21,10,30,31)        -39.8828         estimate D2E/DX2                !
 ! D112  D(68,10,30,29)       -112.3295         estimate D2E/DX2                !
 ! D113  D(68,10,30,31)         85.5513         estimate D2E/DX2                !
 ! D114  D(9,11,12,13)          -1.0713         estimate D2E/DX2                !
 ! D115  D(9,11,12,15)        -140.4168         estimate D2E/DX2                !
 ! D116  D(59,11,12,13)        135.2147         estimate D2E/DX2                !
 ! D117  D(59,11,12,15)         -4.1308         estimate D2E/DX2                !
 ! D118  D(9,11,59,58)         147.7156         estimate D2E/DX2                !
 ! D119  D(9,11,59,60)           5.3796         estimate D2E/DX2                !
 ! D120  D(12,11,59,58)          6.8243         estimate D2E/DX2                !
 ! D121  D(12,11,59,60)       -135.5117         estimate D2E/DX2                !
 ! D122  D(11,12,13,5)           6.0348         estimate D2E/DX2                !
 ! D123  D(11,12,13,25)       -140.4393         estimate D2E/DX2                !
 ! D124  D(15,12,13,5)         150.1759         estimate D2E/DX2                !
 ! D125  D(15,12,13,25)          3.7019         estimate D2E/DX2                !
 ! D126  D(11,12,15,24)        142.2842         estimate D2E/DX2                !
 ! D127  D(11,12,15,57)         -4.6749         estimate D2E/DX2                !
 ! D128  D(13,12,15,24)         -1.6698         estimate D2E/DX2                !
 ! D129  D(13,12,15,57)       -148.6289         estimate D2E/DX2                !
 ! D130  D(5,13,25,24)        -149.6297         estimate D2E/DX2                !
 ! D131  D(5,13,25,26)           1.205          estimate D2E/DX2                !
 ! D132  D(12,13,25,24)         -4.2902         estimate D2E/DX2                !
 ! D133  D(12,13,25,26)        146.5446         estimate D2E/DX2                !
 ! D134  D(45,14,16,17)         -2.8119         estimate D2E/DX2                !
 ! D135  D(45,14,16,58)        132.7107         estimate D2E/DX2                !
 ! D136  D(55,14,16,17)       -146.4792         estimate D2E/DX2                !
 ! D137  D(55,14,16,58)        -10.9567         estimate D2E/DX2                !
 ! D138  D(16,14,45,20)       -146.7473         estimate D2E/DX2                !
 ! D139  D(16,14,45,46)          9.3262         estimate D2E/DX2                !
 ! D140  D(55,14,45,20)         -0.0797         estimate D2E/DX2                !
 ! D141  D(55,14,45,46)        155.9938         estimate D2E/DX2                !
 ! D142  D(16,14,55,54)        149.8117         estimate D2E/DX2                !
 ! D143  D(16,14,55,60)          5.211          estimate D2E/DX2                !
 ! D144  D(45,14,55,54)          2.0335         estimate D2E/DX2                !
 ! D145  D(45,14,55,60)       -142.5672         estimate D2E/DX2                !
 ! D146  D(12,15,24,23)       -155.7067         estimate D2E/DX2                !
 ! D147  D(12,15,24,25)         -0.9352         estimate D2E/DX2                !
 ! D148  D(57,15,24,23)         -9.7267         estimate D2E/DX2                !
 ! D149  D(57,15,24,25)        145.0448         estimate D2E/DX2                !
 ! D150  D(12,15,57,56)        145.9555         estimate D2E/DX2                !
 ! D151  D(12,15,57,58)         10.7377         estimate D2E/DX2                !
 ! D152  D(24,15,57,56)          3.1974         estimate D2E/DX2                !
 ! D153  D(24,15,57,58)       -132.0204         estimate D2E/DX2                !
 ! D154  D(14,16,17,48)         -4.6082         estimate D2E/DX2                !
 ! D155  D(14,16,17,56)        136.393          estimate D2E/DX2                !
 ! D156  D(58,16,17,48)       -144.7515         estimate D2E/DX2                !
 ! D157  D(58,16,17,56)         -3.7503         estimate D2E/DX2                !
 ! D158  D(14,16,58,57)       -133.0012         estimate D2E/DX2                !
 ! D159  D(14,16,58,59)          7.7336         estimate D2E/DX2                !
 ! D160  D(17,16,58,57)          6.18           estimate D2E/DX2                !
 ! D161  D(17,16,58,59)        146.9147         estimate D2E/DX2                !
 ! D162  D(16,17,48,46)          5.7933         estimate D2E/DX2                !
 ! D163  D(16,17,48,50)        151.4303         estimate D2E/DX2                !
 ! D164  D(56,17,48,46)       -130.9754         estimate D2E/DX2                !
 ! D165  D(56,17,48,50)         14.6615         estimate D2E/DX2                !
 ! D166  D(16,17,56,22)       -141.1961         estimate D2E/DX2                !
 ! D167  D(16,17,56,57)         -0.213          estimate D2E/DX2                !
 ! D168  D(48,17,56,22)          0.166          estimate D2E/DX2                !
 ! D169  D(48,17,56,57)        141.1492         estimate D2E/DX2                !
 ! D170  D(40,18,19,20)          6.2468         estimate D2E/DX2                !
 ! D171  D(40,18,19,51)        153.8574         estimate D2E/DX2                !
 ! D172  D(47,18,19,20)       -145.7632         estimate D2E/DX2                !
 ! D173  D(47,18,19,51)          1.8475         estimate D2E/DX2                !
 ! D174  D(19,18,40,32)       -144.8932         estimate D2E/DX2                !
 ! D175  D(19,18,40,37)         19.5404         estimate D2E/DX2                !
 ! D176  D(47,18,40,32)          4.6377         estimate D2E/DX2                !
 ! D177  D(47,18,40,37)        169.0712         estimate D2E/DX2                !
 ! D178  D(19,18,47,44)        145.6964         estimate D2E/DX2                !
 ! D179  D(19,18,47,49)          0.256          estimate D2E/DX2                !
 ! D180  D(40,18,47,44)        -10.6299         estimate D2E/DX2                !
 ! D181  D(40,18,47,49)       -156.0703         estimate D2E/DX2                !
 ! D182  D(18,19,20,45)         -1.5142         estimate D2E/DX2                !
 ! D183  D(18,19,20,54)        144.2616         estimate D2E/DX2                !
 ! D184  D(51,19,20,45)       -145.9025         estimate D2E/DX2                !
 ! D185  D(51,19,20,54)         -0.1266         estimate D2E/DX2                !
 ! D186  D(18,19,51,49)         -3.3024         estimate D2E/DX2                !
 ! D187  D(18,19,51,52)       -147.1024         estimate D2E/DX2                !
 ! D188  D(20,19,51,49)        147.6634         estimate D2E/DX2                !
 ! D189  D(20,19,51,52)          3.8634         estimate D2E/DX2                !
 ! D190  D(19,20,45,14)        146.8957         estimate D2E/DX2                !
 ! D191  D(19,20,45,46)         -5.8436         estimate D2E/DX2                !
 ! D192  D(54,20,45,14)         -1.8813         estimate D2E/DX2                !
 ! D193  D(54,20,45,46)       -154.6206         estimate D2E/DX2                !
 ! D194  D(19,20,54,53)         -3.2337         estimate D2E/DX2                !
 ! D195  D(19,20,54,55)       -148.6151         estimate D2E/DX2                !
 ! D196  D(45,20,54,53)        148.5594         estimate D2E/DX2                !
 ! D197  D(45,20,54,55)          3.178          estimate D2E/DX2                !
 ! D198  D(10,21,22,23)         18.0121         estimate D2E/DX2                !
 ! D199  D(10,21,22,56)        167.372          estimate D2E/DX2                !
 ! D200  D(50,21,22,23)       -133.5241         estimate D2E/DX2                !
 ! D201  D(50,21,22,56)         15.8358         estimate D2E/DX2                !
 ! D202  D(10,21,50,33)          3.496          estimate D2E/DX2                !
 ! D203  D(10,21,50,48)       -148.3091         estimate D2E/DX2                !
 ! D204  D(22,21,50,33)        150.8825         estimate D2E/DX2                !
 ! D205  D(22,21,50,48)         -0.9227         estimate D2E/DX2                !
 ! D206  D(21,22,23,7)         -14.1507         estimate D2E/DX2                !
 ! D207  D(21,22,23,24)        148.0493         estimate D2E/DX2                !
 ! D208  D(56,22,23,7)        -162.6368         estimate D2E/DX2                !
 ! D209  D(56,22,23,24)         -0.4368         estimate D2E/DX2                !
 ! D210  D(21,22,56,17)        -15.2703         estimate D2E/DX2                !
 ! D211  D(21,22,56,57)       -151.6157         estimate D2E/DX2                !
 ! D212  D(23,22,56,17)        130.2308         estimate D2E/DX2                !
 ! D213  D(23,22,56,57)         -6.1147         estimate D2E/DX2                !
 ! D214  D(7,23,24,15)         165.7617         estimate D2E/DX2                !
 ! D215  D(7,23,24,25)          17.1815         estimate D2E/DX2                !
 ! D216  D(22,23,24,15)          8.0753         estimate D2E/DX2                !
 ! D217  D(22,23,24,25)       -140.5049         estimate D2E/DX2                !
 ! D218  D(15,24,25,13)          3.1748         estimate D2E/DX2                !
 ! D219  D(15,24,25,26)       -144.1999         estimate D2E/DX2                !
 ! D220  D(23,24,25,13)        154.8822         estimate D2E/DX2                !
 ! D221  D(23,24,25,26)          7.5075         estimate D2E/DX2                !
 ! D222  D(13,25,26,4)           1.0619         estimate D2E/DX2                !
 ! D223  D(13,25,26,27)       -146.5323         estimate D2E/DX2                !
 ! D224  D(24,25,26,4)         145.6354         estimate D2E/DX2                !
 ! D225  D(24,25,26,27)         -1.9588         estimate D2E/DX2                !
 ! D226  D(4,26,27,28)        -157.4091         estimate D2E/DX2                !
 ! D227  D(4,26,27,38)          -0.4271         estimate D2E/DX2                !
 ! D228  D(25,26,27,28)         -6.5193         estimate D2E/DX2                !
 ! D229  D(25,26,27,38)        150.4626         estimate D2E/DX2                !
 ! D230  D(26,27,28,7)         -13.9001         estimate D2E/DX2                !
 ! D231  D(26,27,28,29)        144.2712         estimate D2E/DX2                !
 ! D232  D(38,27,28,7)        -168.2755         estimate D2E/DX2                !
 ! D233  D(38,27,28,29)        -10.1042         estimate D2E/DX2                !
 ! D234  D(26,27,38,36)       -164.0838         estimate D2E/DX2                !
 ! D235  D(26,27,38,39)         -0.1879         estimate D2E/DX2                !
 ! D236  D(28,27,38,36)         -4.5693         estimate D2E/DX2                !
 ! D237  D(28,27,38,39)        159.3267         estimate D2E/DX2                !
 ! D238  D(7,28,29,30)          14.9347         estimate D2E/DX2                !
 ! D239  D(7,28,29,35)         178.7138         estimate D2E/DX2                !
 ! D240  D(27,28,29,30)       -147.4823         estimate D2E/DX2                !
 ! D241  D(27,28,29,35)         16.2968         estimate D2E/DX2                !
 ! D242  D(28,29,30,10)        -16.5824         estimate D2E/DX2                !
 ! D243  D(28,29,30,31)        145.6687         estimate D2E/DX2                !
 ! D244  D(35,29,30,10)        179.0087         estimate D2E/DX2                !
 ! D245  D(35,29,30,31)        -18.7402         estimate D2E/DX2                !
 ! D246  D(28,29,35,34)       -120.4571         estimate D2E/DX2                !
 ! D247  D(28,29,35,36)         -7.0166         estimate D2E/DX2                !
 ! D248  D(28,29,35,75)        118.8028         estimate D2E/DX2                !
 ! D249  D(30,29,35,34)         41.5307         estimate D2E/DX2                !
 ! D250  D(30,29,35,36)        154.9712         estimate D2E/DX2                !
 ! D251  D(30,29,35,75)        -79.2094         estimate D2E/DX2                !
 ! D252  D(10,30,31,32)        137.7962         estimate D2E/DX2                !
 ! D253  D(10,30,31,33)         25.0918         estimate D2E/DX2                !
 ! D254  D(10,30,31,76)       -101.4547         estimate D2E/DX2                !
 ! D255  D(29,30,31,32)        -22.0941         estimate D2E/DX2                !
 ! D256  D(29,30,31,33)       -134.7985         estimate D2E/DX2                !
 ! D257  D(29,30,31,76)         98.655          estimate D2E/DX2                !
 ! D258  D(30,31,32,34)         37.7553         estimate D2E/DX2                !
 ! D259  D(30,31,32,40)       -121.5917         estimate D2E/DX2                !
 ! D260  D(33,31,32,34)        158.6812         estimate D2E/DX2                !
 ! D261  D(33,31,32,40)         -0.6658         estimate D2E/DX2                !
 ! D262  D(76,31,32,34)        -82.636          estimate D2E/DX2                !
 ! D263  D(76,31,32,40)        118.017          estimate D2E/DX2                !
 ! D264  D(30,31,33,37)        119.1829         estimate D2E/DX2                !
 ! D265  D(30,31,33,50)          6.1693         estimate D2E/DX2                !
 ! D266  D(30,31,33,69)       -118.7076         estimate D2E/DX2                !
 ! D267  D(32,31,33,37)          5.0935         estimate D2E/DX2                !
 ! D268  D(32,31,33,50)       -107.9201         estimate D2E/DX2                !
 ! D269  D(32,31,33,69)        127.203          estimate D2E/DX2                !
 ! D270  D(76,31,33,37)       -114.1428         estimate D2E/DX2                !
 ! D271  D(76,31,33,50)        132.8436         estimate D2E/DX2                !
 ! D272  D(76,31,33,69)          7.9667         estimate D2E/DX2                !
 ! D273  D(31,32,34,35)        -14.2114         estimate D2E/DX2                !
 ! D274  D(31,32,34,44)       -164.0584         estimate D2E/DX2                !
 ! D275  D(40,32,34,35)        143.373          estimate D2E/DX2                !
 ! D276  D(40,32,34,44)         -6.474          estimate D2E/DX2                !
 ! D277  D(31,32,40,18)        162.8257         estimate D2E/DX2                !
 ! D278  D(31,32,40,37)         -4.2805         estimate D2E/DX2                !
 ! D279  D(34,32,40,18)          3.7657         estimate D2E/DX2                !
 ! D280  D(34,32,40,37)       -163.3406         estimate D2E/DX2                !
 ! D281  D(31,33,37,40)         -7.4879         estimate D2E/DX2                !
 ! D282  D(31,33,37,46)       -126.9595         estimate D2E/DX2                !
 ! D283  D(31,33,37,70)        112.4539         estimate D2E/DX2                !
 ! D284  D(50,33,37,40)        111.6304         estimate D2E/DX2                !
 ! D285  D(50,33,37,46)         -7.8412         estimate D2E/DX2                !
 ! D286  D(50,33,37,70)       -128.4278         estimate D2E/DX2                !
 ! D287  D(69,33,37,40)       -129.2413         estimate D2E/DX2                !
 ! D288  D(69,33,37,46)        111.2872         estimate D2E/DX2                !
 ! D289  D(69,33,37,70)         -9.2995         estimate D2E/DX2                !
 ! D290  D(31,33,50,21)        -20.5114         estimate D2E/DX2                !
 ! D291  D(31,33,50,48)        133.4097         estimate D2E/DX2                !
 ! D292  D(37,33,50,21)       -136.8198         estimate D2E/DX2                !
 ! D293  D(37,33,50,48)         17.1014         estimate D2E/DX2                !
 ! D294  D(69,33,50,21)        104.0481         estimate D2E/DX2                !
 ! D295  D(69,33,50,48)       -102.0307         estimate D2E/DX2                !
 ! D296  D(32,34,35,29)        -25.1969         estimate D2E/DX2                !
 ! D297  D(32,34,35,36)       -146.2292         estimate D2E/DX2                !
 ! D298  D(32,34,35,75)         93.0673         estimate D2E/DX2                !
 ! D299  D(44,34,35,29)        126.9091         estimate D2E/DX2                !
 ! D300  D(44,34,35,36)          5.8768         estimate D2E/DX2                !
 ! D301  D(44,34,35,75)       -114.8267         estimate D2E/DX2                !
 ! D302  D(32,34,44,43)        149.375          estimate D2E/DX2                !
 ! D303  D(32,34,44,47)          0.5167         estimate D2E/DX2                !
 ! D304  D(35,34,44,43)         -4.278          estimate D2E/DX2                !
 ! D305  D(35,34,44,47)       -153.1363         estimate D2E/DX2                !
 ! D306  D(29,35,36,38)         -6.759          estimate D2E/DX2                !
 ! D307  D(29,35,36,43)       -118.272          estimate D2E/DX2                !
 ! D308  D(29,35,36,74)        119.0687         estimate D2E/DX2                !
 ! D309  D(34,35,36,38)        106.3664         estimate D2E/DX2                !
 ! D310  D(34,35,36,43)         -5.1466         estimate D2E/DX2                !
 ! D311  D(34,35,36,74)       -127.8059         estimate D2E/DX2                !
 ! D312  D(75,35,36,38)       -131.6781         estimate D2E/DX2                !
 ! D313  D(75,35,36,43)        116.8089         estimate D2E/DX2                !
 ! D314  D(75,35,36,74)         -5.8504         estimate D2E/DX2                !
 ! D315  D(35,36,38,27)         12.8928         estimate D2E/DX2                !
 ! D316  D(35,36,38,39)       -149.0955         estimate D2E/DX2                !
 ! D317  D(43,36,38,27)        125.5981         estimate D2E/DX2                !
 ! D318  D(43,36,38,39)        -36.3901         estimate D2E/DX2                !
 ! D319  D(74,36,38,27)       -113.3617         estimate D2E/DX2                !
 ! D320  D(74,36,38,39)         84.65           estimate D2E/DX2                !
 ! D321  D(35,36,43,42)        152.0998         estimate D2E/DX2                !
 ! D322  D(35,36,43,44)          2.9405         estimate D2E/DX2                !
 ! D323  D(38,36,43,42)         33.5428         estimate D2E/DX2                !
 ! D324  D(38,36,43,44)       -115.6165         estimate D2E/DX2                !
 ! D325  D(74,36,43,42)        -86.0712         estimate D2E/DX2                !
 ! D326  D(74,36,43,44)        124.7695         estimate D2E/DX2                !
 ! D327  D(33,37,40,18)       -158.4652         estimate D2E/DX2                !
 ! D328  D(33,37,40,32)          7.1509         estimate D2E/DX2                !
 ! D329  D(46,37,40,18)        -44.0297         estimate D2E/DX2                !
 ! D330  D(46,37,40,32)        121.5864         estimate D2E/DX2                !
 ! D331  D(70,37,40,18)         80.6876         estimate D2E/DX2                !
 ! D332  D(70,37,40,32)       -113.6962         estimate D2E/DX2                !
 ! D333  D(33,37,46,45)        156.0383         estimate D2E/DX2                !
 ! D334  D(33,37,46,48)         -3.6722         estimate D2E/DX2                !
 ! D335  D(40,37,46,45)         42.4871         estimate D2E/DX2                !
 ! D336  D(40,37,46,48)       -117.2234         estimate D2E/DX2                !
 ! D337  D(70,37,46,45)        -82.3532         estimate D2E/DX2                !
 ! D338  D(70,37,46,48)        117.9364         estimate D2E/DX2                !
 ! D339  D(27,38,39,4)           0.7336         estimate D2E/DX2                !
 ! D340  D(27,38,39,41)       -158.6641         estimate D2E/DX2                !
 ! D341  D(36,38,39,4)         165.1703         estimate D2E/DX2                !
 ! D342  D(36,38,39,41)          5.7726         estimate D2E/DX2                !
 ! D343  D(4,39,41,1)          -14.239          estimate D2E/DX2                !
 ! D344  D(4,39,41,42)        -127.6537         estimate D2E/DX2                !
 ! D345  D(4,39,41,73)         111.7492         estimate D2E/DX2                !
 ! D346  D(38,39,41,1)         142.345          estimate D2E/DX2                !
 ! D347  D(38,39,41,42)         28.9302         estimate D2E/DX2                !
 ! D348  D(38,39,41,73)        -91.6668         estimate D2E/DX2                !
 ! D349  D(1,41,42,43)        -152.534          estimate D2E/DX2                !
 ! D350  D(1,41,42,66)          -2.1969         estimate D2E/DX2                !
 ! D351  D(39,41,42,43)        -31.4618         estimate D2E/DX2                !
 ! D352  D(39,41,42,66)        118.8754         estimate D2E/DX2                !
 ! D353  D(73,41,42,43)         87.8778         estimate D2E/DX2                !
 ! D354  D(73,41,42,66)       -121.785          estimate D2E/DX2                !
 ! D355  D(41,42,43,36)          0.3409         estimate D2E/DX2                !
 ! D356  D(41,42,43,44)        146.4681         estimate D2E/DX2                !
 ! D357  D(66,42,43,36)       -147.3918         estimate D2E/DX2                !
 ! D358  D(66,42,43,44)         -1.2646         estimate D2E/DX2                !
 ! D359  D(41,42,66,49)       -150.5045         estimate D2E/DX2                !
 ! D360  D(41,42,66,65)         -3.4905         estimate D2E/DX2                !
 ! D361  D(43,42,66,49)          1.0629         estimate D2E/DX2                !
 ! D362  D(43,42,66,65)        148.0769         estimate D2E/DX2                !
 ! D363  D(36,43,44,34)          0.7057         estimate D2E/DX2                !
 ! D364  D(36,43,44,47)        148.5801         estimate D2E/DX2                !
 ! D365  D(42,43,44,34)       -149.9585         estimate D2E/DX2                !
 ! D366  D(42,43,44,47)         -2.0841         estimate D2E/DX2                !
 ! D367  D(34,44,47,18)          8.1081         estimate D2E/DX2                !
 ! D368  D(34,44,47,49)        150.8794         estimate D2E/DX2                !
 ! D369  D(43,44,47,18)       -137.2633         estimate D2E/DX2                !
 ! D370  D(43,44,47,49)          5.5081         estimate D2E/DX2                !
 ! D371  D(14,45,46,37)       -166.0264         estimate D2E/DX2                !
 ! D372  D(14,45,46,48)         -8.0368         estimate D2E/DX2                !
 ! D373  D(20,45,46,37)        -16.187          estimate D2E/DX2                !
 ! D374  D(20,45,46,48)        141.8026         estimate D2E/DX2                !
 ! D375  D(37,46,48,17)        163.4752         estimate D2E/DX2                !
 ! D376  D(37,46,48,50)         14.7469         estimate D2E/DX2                !
 ! D377  D(45,46,48,17)          0.7756         estimate D2E/DX2                !
 ! D378  D(45,46,48,50)       -147.9528         estimate D2E/DX2                !
 ! D379  D(18,47,49,51)         -2.3077         estimate D2E/DX2                !
 ! D380  D(18,47,49,66)        141.1233         estimate D2E/DX2                !
 ! D381  D(44,47,49,51)       -149.025          estimate D2E/DX2                !
 ! D382  D(44,47,49,66)         -5.5941         estimate D2E/DX2                !
 ! D383  D(17,48,50,21)        -14.3281         estimate D2E/DX2                !
 ! D384  D(17,48,50,33)       -170.2185         estimate D2E/DX2                !
 ! D385  D(46,48,50,21)        135.2117         estimate D2E/DX2                !
 ! D386  D(46,48,50,33)        -20.6786         estimate D2E/DX2                !
 ! D387  D(47,49,51,19)          3.4753         estimate D2E/DX2                !
 ! D388  D(47,49,51,52)        149.5104         estimate D2E/DX2                !
 ! D389  D(66,49,51,19)       -139.1594         estimate D2E/DX2                !
 ! D390  D(66,49,51,52)          6.8758         estimate D2E/DX2                !
 ! D391  D(47,49,66,42)          2.4222         estimate D2E/DX2                !
 ! D392  D(47,49,66,65)       -141.1659         estimate D2E/DX2                !
 ! D393  D(51,49,66,42)        140.7848         estimate D2E/DX2                !
 ! D394  D(51,49,66,65)         -2.8034         estimate D2E/DX2                !
 ! D395  D(19,51,52,53)         -4.1925         estimate D2E/DX2                !
 ! D396  D(19,51,52,64)        134.9108         estimate D2E/DX2                !
 ! D397  D(49,51,52,53)       -145.1471         estimate D2E/DX2                !
 ! D398  D(49,51,52,64)         -6.0438         estimate D2E/DX2                !
 ! D399  D(51,52,53,54)          0.7612         estimate D2E/DX2                !
 ! D400  D(51,52,53,62)        144.0579         estimate D2E/DX2                !
 ! D401  D(64,52,53,54)       -142.7533         estimate D2E/DX2                !
 ! D402  D(64,52,53,62)          0.5434         estimate D2E/DX2                !
 ! D403  D(51,52,64,63)       -141.6438         estimate D2E/DX2                !
 ! D404  D(51,52,64,65)          1.1869         estimate D2E/DX2                !
 ! D405  D(53,52,64,63)          0.9178         estimate D2E/DX2                !
 ! D406  D(53,52,64,65)        143.7486         estimate D2E/DX2                !
 ! D407  D(52,53,54,20)          2.9319         estimate D2E/DX2                !
 ! D408  D(52,53,54,55)        145.1578         estimate D2E/DX2                !
 ! D409  D(62,53,54,20)       -135.5399         estimate D2E/DX2                !
 ! D410  D(62,53,54,55)          6.686          estimate D2E/DX2                !
 ! D411  D(52,53,62,61)       -144.8106         estimate D2E/DX2                !
 ! D412  D(52,53,62,63)         -1.8162         estimate D2E/DX2                !
 ! D413  D(54,53,62,61)         -2.4672         estimate D2E/DX2                !
 ! D414  D(54,53,62,63)        140.5272         estimate D2E/DX2                !
 ! D415  D(20,54,55,14)         -3.2261         estimate D2E/DX2                !
 ! D416  D(20,54,55,60)        141.4612         estimate D2E/DX2                !
 ! D417  D(53,54,55,14)       -150.2025         estimate D2E/DX2                !
[...]
 Alpha virt. eigenvalues --    1.10336   1.10525   1.10763   1.11611   1.11769
 Alpha virt. eigenvalues --    1.12102   1.12917   1.13624   1.13888   1.13998
 Alpha virt. eigenvalues --    1.14694   1.15588   1.15953   1.16348   1.17211
 Alpha virt. eigenvalues --    1.17442   1.17858   1.18245   1.18504   1.18979
 Alpha virt. eigenvalues --    1.19310   1.19418   1.19663   1.20656   1.21212
 Alpha virt. eigenvalues --    1.21748   1.22260   1.22764   1.23068   1.23199
 Alpha virt. eigenvalues --    1.23620   1.24220   1.24401   1.25326   1.25466
 Alpha virt. eigenvalues --    1.26191   1.26960   1.27203   1.27701   1.28461
 Alpha virt. eigenvalues --    1.28721   1.29074   1.29959   1.30270   1.30586
 Alpha virt. eigenvalues --    1.30770   1.31510   1.32658   1.32929   1.33345
 Alpha virt. eigenvalues --    1.33625   1.33867   1.34470   1.34658   1.35151
 Alpha virt. eigenvalues --    1.35204   1.35731   1.35870   1.35886   1.36798
 Alpha virt. eigenvalues --    1.36987   1.37664   1.38029   1.38258   1.38504
 Alpha virt. eigenvalues --    1.38676   1.39398   1.39474   1.39783   1.40491
 Alpha virt. eigenvalues --    1.40628   1.41017   1.41636   1.41911   1.42285
 Alpha virt. eigenvalues --    1.42513   1.42877   1.43075   1.43357   1.43469
 Alpha virt. eigenvalues --    1.43781   1.44189   1.44517   1.44932   1.45385
 Alpha virt. eigenvalues --    1.45697   1.45743   1.46201   1.46491   1.46765
 Alpha virt. eigenvalues --    1.47121   1.47319   1.47491   1.47633   1.48117
 Alpha virt. eigenvalues --    1.48600   1.48647   1.48991   1.49024   1.49433
 Alpha virt. eigenvalues --    1.49631   1.50229   1.50345   1.50399   1.50490
 Alpha virt. eigenvalues --    1.50549   1.50671   1.51190   1.51457   1.51543
 Alpha virt. eigenvalues --    1.52094   1.52411   1.52684   1.52916   1.53133
 Alpha virt. eigenvalues --    1.53329   1.53708   1.53751   1.54104   1.54288
 Alpha virt. eigenvalues --    1.54575   1.55005   1.55195   1.55370   1.55842
 Alpha virt. eigenvalues --    1.56303   1.56498   1.57088   1.57218   1.57372
 Alpha virt. eigenvalues --    1.57880   1.57988   1.58317   1.59008   1.59299
 Alpha virt. eigenvalues --    1.59475   1.59716   1.59906   1.60258   1.60547
 Alpha virt. eigenvalues --    1.60811   1.61498   1.61897   1.62356   1.62551
 Alpha virt. eigenvalues --    1.63089   1.63370   1.63857   1.64325   1.64550
 Alpha virt. eigenvalues --    1.64930   1.65257   1.65420   1.65811   1.66551
 Alpha virt. eigenvalues --    1.66628   1.67264   1.67549   1.68009   1.68158
 Alpha virt. eigenvalues --    1.68373   1.69037   1.69269   1.69768   1.69885
 Alpha virt. eigenvalues --    1.70266   1.70558   1.71165   1.71723   1.71830
 Alpha virt. eigenvalues --    1.72144   1.72513   1.72652   1.73193   1.73666
 Alpha virt. eigenvalues --    1.73876   1.74028   1.74540   1.75548   1.75941
 Alpha virt. eigenvalues --    1.76064   1.76290   1.76514   1.77216   1.77827
 Alpha virt. eigenvalues --    1.78297   1.78525   1.78896   1.79108   1.79332
 Alpha virt. eigenvalues --    1.79869   1.80123   1.80550   1.80784   1.81440
 Alpha virt. eigenvalues --    1.81655   1.82215   1.82457   1.82749   1.83249
 Alpha virt. eigenvalues --    1.83685   1.83959   1.84415   1.84481   1.85104
 Alpha virt. eigenvalues --    1.85535   1.85873   1.86109   1.86976   1.87351
 Alpha virt. eigenvalues --    1.88072   1.88354   1.88664   1.89285   1.89741
 Alpha virt. eigenvalues --    1.89871   1.90244   1.90516   1.91265   1.91516
 Alpha virt. eigenvalues --    1.91953   1.92310   1.92523   1.92704   1.93391
 Alpha virt. eigenvalues --    1.93637   1.94147   1.94672   1.94975   1.95116
 Alpha virt. eigenvalues --    1.95872   1.96149   1.96333   1.96896   1.97629
 Alpha virt. eigenvalues --    1.98149   1.98234   1.98592   1.98919   2.00017
 Alpha virt. eigenvalues --    2.00178   2.00453   2.00967   2.01455   2.02434
 Alpha virt. eigenvalues --    2.03152   2.03371   2.03924   2.04497   2.04868
 Alpha virt. eigenvalues --    2.05359   2.05578   2.05988   2.06014   2.06316
 Alpha virt. eigenvalues --    2.06842   2.07266   2.07667   2.08065   2.08571
 Alpha virt. eigenvalues --    2.08880   2.09593   2.10113   2.10354   2.10844
 Alpha virt. eigenvalues --    2.11037   2.11425   2.11859   2.12162   2.12518
 Alpha virt. eigenvalues --    2.13193   2.13243   2.13441   2.14218   2.14417
 Alpha virt. eigenvalues --    2.14974   2.15136   2.15436   2.16072   2.16217
 Alpha virt. eigenvalues --    2.17291   2.17619   2.17808   2.18312   2.19169
 Alpha virt. eigenvalues --    2.19474   2.19529   2.20113   2.20930   2.21125
 Alpha virt. eigenvalues --    2.21696   2.22794   2.23257   2.23435   2.23715
 Alpha virt. eigenvalues --    2.23848   2.24446   2.24938   2.25541   2.26203
 Alpha virt. eigenvalues --    2.26502   2.26785   2.27664   2.28424   2.28706
 Alpha virt. eigenvalues --    2.30076   2.30183   2.30640   2.31425   2.31745
 Alpha virt. eigenvalues --    2.32663   2.33175   2.33480   2.33851   2.34160
 Alpha virt. eigenvalues --    2.34450   2.34920   2.35842   2.36103   2.36936
 Alpha virt. eigenvalues --    2.37441   2.37986   2.38443   2.39162   2.39944
 Alpha virt. eigenvalues --    2.40521   2.40778   2.41155   2.41587   2.42028
 Alpha virt. eigenvalues --    2.42443   2.43072   2.43276   2.43638   2.43970
 Alpha virt. eigenvalues --    2.44427   2.44603   2.45360   2.45472   2.45688
 Alpha virt. eigenvalues --    2.46368   2.46800   2.47399   2.47554   2.47930
 Alpha virt. eigenvalues --    2.48311   2.48993   2.50254   2.51307   2.51600
 Alpha virt. eigenvalues --    2.51960   2.53125   2.53830   2.54000   2.54187
 Alpha virt. eigenvalues --    2.54976   2.55367   2.56343   2.56695   2.56860
 Alpha virt. eigenvalues --    2.57097   2.57396   2.57981   2.58654   2.59061
 Alpha virt. eigenvalues --    2.59549   2.60050   2.60404   2.60790   2.60988
 Alpha virt. eigenvalues --    2.61487   2.61649   2.62664   2.62956   2.63682
 Alpha virt. eigenvalues --    2.64165   2.64633   2.65753   2.66424   2.66605
 Alpha virt. eigenvalues --    2.67193   2.67702   2.67958   2.68532   2.68991
 Alpha virt. eigenvalues --    2.70073   2.70865   2.71169   2.71964   2.72525
 Alpha virt. eigenvalues --    2.73237   2.73712   2.74246   2.74483   2.74980
 Alpha virt. eigenvalues --    2.75632   2.76752   2.76994   2.77790   2.78677
 Alpha virt. eigenvalues --    2.79360   2.79786   2.81651   2.81812   2.82710
 Alpha virt. eigenvalues --    2.83164   2.83820   2.84407   2.84832   2.85008
 Alpha virt. eigenvalues --    2.85466   2.86271   2.86389   2.87527   2.88163
 Alpha virt. eigenvalues --    2.89184   2.89747   2.90381   2.90835   2.91380
 Alpha virt. eigenvalues --    2.92044   2.92252   2.93414   2.93896   2.94017
 Alpha virt. eigenvalues --    2.95340   2.95462   2.95737   2.95850   2.96633
 Alpha virt. eigenvalues --    2.97287   2.97506   2.98034   2.98682   2.99271
 Alpha virt. eigenvalues --    2.99607   3.00064   3.00474   3.00896   3.00968
 Alpha virt. eigenvalues --    3.01511   3.02253   3.02418   3.03208   3.03297
 Alpha virt. eigenvalues --    3.04196   3.04368   3.04623   3.04805   3.05163
 Alpha virt. eigenvalues --    3.05594   3.06206   3.06506   3.06845   3.07350
 Alpha virt. eigenvalues --    3.07930   3.08435   3.08545   3.09338   3.09524
 Alpha virt. eigenvalues --    3.09775   3.09975   3.10144   3.10929   3.11435
 Alpha virt. eigenvalues --    3.11647   3.12063   3.12258   3.12591   3.12984
 Alpha virt. eigenvalues --    3.13217   3.13533   3.14168   3.14637   3.15218
 Alpha virt. eigenvalues --    3.15486   3.15658   3.15772   3.16250   3.16565
 Alpha virt. eigenvalues --    3.16797   3.17066   3.17362   3.17559   3.17873
 Alpha virt. eigenvalues --    3.18744   3.18871   3.19349   3.19956   3.20891
 Alpha virt. eigenvalues --    3.21625   3.21938   3.22467   3.22657   3.23410
 Alpha virt. eigenvalues --    3.23587   3.23960   3.26095   3.27018   3.28133
 Alpha virt. eigenvalues --    3.29345   3.30418   3.31522   3.33118   3.33964
 Alpha virt. eigenvalues --    3.34696   3.35358   3.37359   3.37576   3.38921
 Alpha virt. eigenvalues --    3.41256   3.43462   3.44778   3.45924   3.46922
 Alpha virt. eigenvalues --    3.47517   3.49288   3.49615   3.50260   3.52121
 Alpha virt. eigenvalues --    3.54048   3.54663   3.55854   3.56593   3.56905
 Alpha virt. eigenvalues --    3.57850   3.58442   3.60058   3.60914   3.61547
 Alpha virt. eigenvalues --    3.62332   3.64082   3.65122   3.66031   3.67326
 Alpha virt. eigenvalues --    3.68524   3.69231   3.69665   3.70665   3.71047
 Alpha virt. eigenvalues --    3.72462   3.73695   3.75928   3.76335   3.77300
 Alpha virt. eigenvalues --    3.78082   3.79509   3.80359   3.82382   3.83297
 Alpha virt. eigenvalues --    3.83399   3.85345   3.85794   3.86773   3.87694
 Alpha virt. eigenvalues --    3.88032   3.89383   3.89475   3.91419   3.91581
 Alpha virt. eigenvalues --    3.92761   3.93570   3.94343   3.95103   3.96467
 Alpha virt. eigenvalues --    3.97774   3.99449   4.02367   4.02830   4.06694
 Alpha virt. eigenvalues --    4.08247   4.11400   4.12185   4.14793   4.15796
 Alpha virt. eigenvalues --    4.21916   4.25605   4.28012   4.29522   4.32554
 Alpha virt. eigenvalues --    4.35240   4.37138   4.39857   4.40036   4.41856
 Alpha virt. eigenvalues --    4.43228   4.44013   4.48110   4.49739   4.52294
 Alpha virt. eigenvalues --    4.54286   4.57193   4.61055   4.62812   4.64209
 Alpha virt. eigenvalues --    4.65344   4.69024   4.70355   4.70950   4.75186
 Alpha virt. eigenvalues --    4.76973   4.84599   4.86247   4.90899   4.94831
 Alpha virt. eigenvalues --    4.99639   5.01656   5.05293   5.06062  23.07793
 Alpha virt. eigenvalues --   23.23601  23.29442  23.32172  23.46251  23.49846
 Alpha virt. eigenvalues --   23.52691  23.55703  23.56075  23.65414  23.69179
 Alpha virt. eigenvalues --   23.70821  23.71387  23.76723  23.78110  23.80556
 Alpha virt. eigenvalues --   23.81887  23.82324  23.83315  23.83592  23.85131
 Alpha virt. eigenvalues --   23.86304  23.87032  23.87710  23.88636  23.89800
 Alpha virt. eigenvalues --   23.90665  23.92633  23.94051  23.94419  23.95428
 Alpha virt. eigenvalues --   23.96457  23.96705  23.97353  23.98403  23.98828
 Alpha virt. eigenvalues --   23.99722  24.00947  24.01064  24.01551  24.01931
 Alpha virt. eigenvalues --   24.02296  24.03037  24.04454  24.04919  24.05623
 Alpha virt. eigenvalues --   24.06300  24.06755  24.07992  24.09739  24.10707
 Alpha virt. eigenvalues --   24.11542  24.11789  24.12063  24.12758  24.12999
 Alpha virt. eigenvalues --   24.13584  24.14231  24.14767  24.15776  24.16412
 Alpha virt. eigenvalues --   24.17029  24.18588  24.18961  24.19351  24.20603
          Condensed to atoms (all electrons):
 Mulliken charges:
               1
     1  C   -0.134956
     2  C   -0.144725
     3  C   -0.039070
     4  C    0.022705
     5  C    0.014825
     6  C    0.019165
     7  C   -0.122759
     8  C   -0.026938
     9  C   -0.012538
    10  C   -0.149055
    11  C   -0.000422
    12  C   -0.003373
    13  C   -0.010221
    14  C   -0.004460
    15  C   -0.002314
    16  C   -0.007997
    17  C   -0.007381
    18  C    0.016478
    19  C   -0.007036
    20  C   -0.005379
    21  C   -0.023525
    22  C    0.035740
    23  C   -0.028998
    24  C    0.010347
    25  C   -0.000125
    26  C   -0.003317
    27  C   -0.000462
    28  C   -0.011774
    29  C    0.011458
    30  C   -0.024818
    31  C   -0.134274
    32  C    0.006321
    33  C   -0.146759
    34  C   -0.020286
    35  C   -0.135255
    36  C   -0.136083
    37  C   -0.136029
    38  C   -0.027923
    39  C   -0.017512
    40  C    0.001363
    41  C   -0.145705
    42  C   -0.018291
    43  C   -0.026026
    44  C    0.057311
    45  C    0.015676
    46  C   -0.029202
    47  C   -0.009532
    48  C    0.022437
    49  C   -0.017155
    50  C    0.015297
    51  C   -0.007678
    52  C   -0.009411
    53  C   -0.003327
    54  C   -0.006522
    55  C   -0.002722
    56  C   -0.011549
    57  C   -0.008377
    58  C   -0.011688
    59  C   -0.005353
    60  C   -0.002158
    61  C   -0.004866
    62  C   -0.006734
    63  C    0.003605
    64  C    0.006856
    65  C   -0.023173
    66  C    0.055995
    67  H    0.162345
    68  H    0.150229
    69  H    0.147809
    70  H    0.159837
    71  H    0.163320
    72  H    0.153146
    73  H    0.155789
    74  H    0.155275
    75  H    0.156951
    76  H    0.154954
 Sum of Mulliken charges =  -0.00000
 Mulliken charges with hydrogens summed into heavy atoms:
               1
     1  C    0.018190
     2  C    0.018595
     3  C   -0.039070
     4  C    0.022705
     5  C    0.014825
     6  C    0.019165
     7  C    0.039586
     8  C   -0.026938
     9  C   -0.012538
    10  C    0.001174
    11  C   -0.000422
    12  C   -0.003373
    13  C   -0.010221
    14  C   -0.004460
    15  C   -0.002314
    16  C   -0.007997
    17  C   -0.007381
    18  C    0.016478
    19  C   -0.007036
    20  C   -0.005379
    21  C   -0.023525
    22  C    0.035740
    23  C   -0.028998
    24  C    0.010347
    25  C   -0.000125
    26  C   -0.003317
    27  C   -0.000462
    28  C   -0.011774
    29  C    0.011458
    30  C   -0.024818
    31  C    0.020680
    32  C    0.006321
    33  C    0.001051
    34  C   -0.020286
    35  C    0.021696
    36  C    0.019191
    37  C    0.023809
    38  C   -0.027923
    39  C   -0.017512
    40  C    0.001363
    41  C    0.010084
    42  C   -0.018291
    43  C   -0.026026
    44  C    0.057311
    45  C    0.015676
    46  C   -0.029202
    47  C   -0.009532
    48  C    0.022437
    49  C   -0.017155
    50  C    0.015297
    51  C   -0.007678
    52  C   -0.009411
    53  C   -0.003327
    54  C   -0.006522
    55  C   -0.002722
    56  C   -0.011549
    57  C   -0.008377
    58  C   -0.011688
    59  C   -0.005353
    60  C   -0.002158
    61  C   -0.004866
    62  C   -0.006734
    63  C    0.003605
    64  C    0.006856
    65  C   -0.023173
    66  C    0.055995
 Electronic spatial extent (au):  <R**2>=          21828.7406
 Charge=             -0.0000 electrons
 Dipole moment (field-independent basis, Debye):
    X=             -3.9123    Y=              4.7145    Z=             -1.3859  Tot=              6.2812
 Quadrupole moment (field-independent basis, Debye-Ang):
   XX=           -341.0627   YY=           -368.0918   ZZ=           -374.0955
   XY=              1.5422   XZ=             -4.5264   YZ=             -8.0289
 Traceless Quadrupole moment (field-independent basis, Debye-Ang):
   XX=             20.0206   YY=             -7.0085   ZZ=            -13.0122
   XY=              1.5422   XZ=             -4.5264   YZ=             -8.0289
 Octapole moment (field-independent basis, Debye-Ang**2):
  XXX=           -105.8556  YYY=            119.1951  ZZZ=             -7.2155  XYY=              2.2941
  XXY=             79.1489  XXZ=            -21.5825  XZZ=            -52.2461  YZZ=              7.4252
  YYZ=            -30.9800  XYZ=             -5.6955
 Hexadecapole moment (field-independent basis, Debye-Ang**3):
 XXXX=         -12293.0514 YYYY=         -11319.3796 ZZZZ=          -8770.3843 XXXY=             79.3946
 XXXZ=           -164.1764 YYYX=             -9.2631 YYYZ=           -166.5238 ZZZX=             -0.7711
 ZZZY=            -38.9371 XXYY=          -3978.4120 XXZZ=          -3472.5378 YYZZ=          -3425.9527
 XXYZ=            -77.2111 YYXZ=            -21.1428 ZZXY=             11.1522
 N-N= 1.001917535995D+04 E-N=-2.588857244520D+04  KE= 2.511036705367D+03
 No NMR shielding tensors so no spin-rotation constants.
 Leave Link  601 at Wed Jul 20 09:59:32 2022, MaxMem=  1342177280 cpu:              61.6 elap:               1.5
 (Enter /home/mkliu/g16/l9999.exe)
 1\1\GINC-NODE02\FOpt\RB3LYP\6-311G(d,p)\C66H10\MKLIU\20-Jul-2022\0\\#P
  opt b3lyp/6-311G(d, p) empiricaldispersion=GD3\\force\\0,1\C,12.52158
 0473,11.881218426,21.9481768038\C,12.556245025,12.9912512562,23.071244
 0319\C,12.7336375461,14.4260938816,22.58439381\C,12.7260341058,14.8035
 347867,21.2696255583\C,13.5311597327,15.1692281951,23.493421341\C,14.1
 496365892,14.2454556007,24.4211996528\C,15.6405199563,17.3619891861,18
 .7789346741\C,13.7410219745,12.9147346545,24.0519700682\C,15.433135582
 9,14.5082166535,24.903816925\C,16.9295302462,16.9953337829,17.93349586
 89\C,16.1066744403,15.7389167356,24.5365667921\C,15.4973464424,16.6223
 919865,23.6414960048\C,14.2134207143,16.3112025317,23.0634146096\C,19.
 2601487927,14.054934575,22.6311304975\C,16.2720884943,17.3125420576,22
 .6475445881\C,19.2303888364,15.4492817061,22.6182128612\C,19.289520343
 4,16.1129850605,21.3559916005\C,17.4825877666,11.6289105181,19.3416166
 312\C,17.7541633928,11.3012257794,20.7682000424\C,18.5336663743,12.024
 5979297,21.6691449218\C,18.0227288857,16.8613035182,18.9557731992\C,17
 .5944204214,17.4197755776,20.2002838789\C,16.1631395548,17.544547693,2
 0.2086266971\C,15.4951943374,17.4066311396,21.4153329593\C,14.20715896
 59,16.7208936281,21.6753361237\C,13.4689702448,15.9516698493,20.774732
 031\C,13.7377051695,15.6628483334,19.3543766527\C,14.7288424646,16.157
 0095302,18.5551990101\C,15.3311569327,15.3018767744,17.5463546899\C,16
 .6317220995,15.6327418992,17.3605904558\C,17.7111991833,14.592417034,1
 7.0678749657\C,17.1798563405,13.2607323042,17.5608053104\C,19.03822142
 1,14.7735767478,17.8930649442\C,15.8475893987,12.9444963042,17.4386176
 696\C,14.7745861339,13.9694644228,17.1043159668\C,13.5064210266,13.471
 4382092,17.8905531336\C,19.2733454356,13.4498621442,18.7494011545\C,13
 .1511687946,14.3425158474,19.0743750708\C,12.5708831922,13.8417667074,
 20.1972566676\C,18.0045108027,12.6438057861,18.5394861256\C,12.3074116
 627,12.3684215135,20.4417994173\C,13.3955160534,11.6308127433,19.65155
 85339\C,13.9320894822,12.130086002,18.4992939316\C,15.3108472479,11.89
 4393869,18.1933515788\C,19.2955976963,13.2733509557,21.3981238576\C,19
 .4811904214,13.9360370971,20.1917653023\C,16.1413415166,11.1928633252,
 19.0740825493\C,19.4672173896,15.3723001273,20.1887875898\C,15.5694680
 595,10.6198814566,20.2431788219\C,18.9430071991,15.8468804916,18.94438
 91862\C,16.5575190356,10.6301641298,21.2714168913\C,16.1270199449,10.7
 529828189,22.5907848953\C,16.9292456551,11.4905047127,23.5142304973\C,
 18.1125450782,12.0782668366,23.0672343027\C,18.5193585414,13.340128952
 5,23.6312303275\C,18.3209616129,17.1769093619,21.3641682268\C,17.65894
 70664,17.1672311038,22.627653937\C,18.2795299863,16.151244351,23.46063
 62962\C,17.519304243,15.4513499589,24.3859204879\C,17.6907933776,14.02
 00228771,24.5318784458\C,16.412369696,13.4487851238,24.9046629438\C,16
 .0501575754,12.1917933744,24.4305730905\C,14.6844097597,11.9159482933,
 24.0357457719\C,14.7319227416,10.9847623532,22.8930599649\C,13.8042741
 066,11.0639441587,21.8849530675\C,14.2171443264,10.8618049347,20.53871
 56707\H,15.1532521818,18.2726978064,18.4205080364\H,17.1498410347,17.7
 376933021,17.1595777987\H,19.8790342409,14.9512748844,17.219687799\H,2
 0.1496646959,12.8948079654,18.4008257174\H,11.6210782167,12.9121216346
 ,23.636534957\H,11.691447394,11.2150779214,22.1942860464\H,11.29990956
 93,12.095868127,20.1129175383\H,12.6512124708,13.3747786374,17.2148700
 838\H,14.556359512,14.0193207675,16.032694181\H,17.9427215666,14.55557
 3509,15.9968649154\\Version=ES64L-G16RevA.03\State=1-A\HF=-2521.486484
 6\RMSD=6.637e-09\RMSF=7.934e-05\Dipole=-0.6950853,0.2024984,-2.3627916
 \Quadrupole=5.2974731,-10.5815088,5.2840357,5.3207163,-7.0214744,-7.60
 49265\PG=C01 [X(C66H10)]\\@


 IT IS A CAPITAL MISTAKE TO THEORIZE BEFORE ONE HAS
 DATA.  INSENSIBLY ONE BEGINS TO TWIST FACTS TO SUIT
 THEORIES RATHER THAN THEORIES TO SUIT FACTS.

                                         -- SHERLOCK HOLMES
 Job cpu time:       1 days  4 hours 16 minutes 26.7 seconds.
 Elapsed time:       0 days  0 hours 35 minutes 25.4 seconds.
 File lengths (MBytes):  RWF=    957 Int=      0 D2E=      0 Chk=    120 Scr=      1
 Normal termination of Gaussian 16 at Wed Jul 20 09:59:34 2022.
