 Entering Gaussian System, Link 0=g16
 Input=dihept_2_addons_7.gjf
 Output=dihept_2_addons_7.log
 Initial command:
 /home/mkliu/g16/l1.exe "/data/scratch/Gau-131614.inp" -scrdir="/data/scratch/"
 Entering Link 1 = /home/mkliu/g16/l1.exe PID=    131615.
  
 Copyright (c) 1988,1990,1992,1993,1995,1998,2003,2009,2016,
            Gaussian, Inc.  All Rights Reserved.
  
 This is part of the Gaussian(R) 16 program.  It is based on
 the Gaussian(R) 09 system (copyright 2009, Gaussian, Inc.),
 the Gaussian(R) 03 system (copyright 2003, Gaussian, Inc.),
 the Gaussian(R) 98 system (copyright 1998, Gaussian, Inc.),
 the Gaussian(R) 94 system (copyright 1995, Gaussian, Inc.),
 the Gaussian 92(TM) system (copyright 1992, Gaussian, Inc.),
 the Gaussian 90(TM) system (copyright 1990, Gaussian, Inc.),
 the Gaussian 88(TM) system (copyright 1988, Gaussian, Inc.),
 the Gaussian 86(TM) system (copyright 1986, Carnegie Mellon
 University), and the Gaussian 82(TM) system (copyright 1983,
 Carnegie Mellon University). Gaussian is a federally registered
 trademark of Gaussian, Inc.
  
 This software contains proprietary and confidential information,
 including trade secrets, belonging to Gaussian, Inc.
  
 This software is provided under written license and may be
 used, copied, transmitted, or stored only in accord with that
 written license.
  
 The following legend is applicable only to US Government
 contracts under FAR:
  
                    RESTRICTED RIGHTS LEGEND
  
 Use, reproduction and disclosure by the US Government is
 subject to restrictions as set forth in subparagraphs (a)
 and (c) of the Commercial Computer Software - Restricted
 Rights clause in FAR 52.227-19.
  
 Gaussian, Inc.
 340 Quinnipiac St., Bldg. 40, Wallingford CT 06492
  
  
 ---------------------------------------------------------------
 Warning -- This program may not be used in any manner that
 competes with the business of Gaussian, Inc. or will provide
 assistance to any competitor of Gaussian, Inc.  The licensee
 of this program is prohibited from giving any competitor of
 Gaussian, Inc. access to this program.  By using this program,
 the user acknowledges that Gaussian, Inc. is engaged in the
 business of creating and licensing software in the field of
 computational chemistry and represents and warrants to the
 licensee that it is not a competitor of Gaussian, Inc. and that
 it will not use this program in any manner prohibited above.
 ---------------------------------------------------------------
  

 Cite this work as:
 Gaussian 16, Revision A.03,
 M. J. Frisch, G. W. Trucks, H. B. Schlegel, G. E. Scuseria, 
 M. A. Robb, J. R. Cheeseman, G. Scalmani, V. Barone, 
 G. A. Petersson, H. Nakatsuji, X. Li, M. Caricato, A. V. Marenich, 
 J. Bloino, B. G. Janesko, R. Gomperts, B. Mennucci, H. P. Hratchian, 
 J. V. Ortiz, A. F. Izmaylov, J. L. Sonnenberg, D. Williams-Young, 
 F. Ding, F. Lipparini, F. Egidi, J. Goings, B. Peng, A. Petrone, 
 T. Henderson, D. Ranasinghe, V. G. Zakrzewski, J. Gao, N. Rega, 
 G. Zheng, W. Liang, M. Hada, M. Ehara, K. Toyota, R. Fukuda, 
 J. Hasegawa, M. Ishida, T. Nakajima, Y. Honda, O. Kitao, H. Nakai, 
 T. Vreven, K. Throssell, J. A. Montgomery, Jr., J. E. Peralta, 
 F. Ogliaro, M. J. Bearpark, J. J. Heyd, E. N. Brothers, K. N. Kudin, 
 V. N. Staroverov, T. A. Keith, R. Kobayashi, J. Normand, 
 K. Raghavachari, A. P. Rendell, J. C. Burant, S. S. Iyengar, 
 J. Tomasi, M. Cossi, J. M. Millam, M. Klene, C. Adamo, R. Cammi, 
 J. W. Ochterski, R. L. Martin, K. Morokuma, O. Farkas, 
 J. B. Foresman, and D. J. Fox, Gaussian, Inc., Wallingford CT, 2016.
 
 ******************************************
 Gaussian 16:  ES64L-G16RevA.03 25-Dec-2016
                21-Jul-2022 
 ******************************************
 %mem=10GB
 %chk=dihept_2_addons_7.chk
 %nprocshared=48
 Will use up to   48 processors via shared memory.
 -------------------------------------------------
 #P opt b3lyp/6-311G(d, p) empiricaldispersion=GD3
 -------------------------------------------------
 1/18=20,19=15,26=3,38=1/1,3;
 2/9=110,12=2,17=6,18=5,40=1/2;
 3/5=4,6=6,7=101,11=2,25=1,30=1,71=1,74=-5,124=31/1,2,3;
 4//1;
 5/5=2,38=5/2;
 6/7=2,8=2,9=2,10=2,28=1/1;
 7//1,2,3,16;
 1/18=20,19=15,26=3/3(2);
 2/9=110/2;
 99//99;
 2/9=110/2;
 3/5=4,6=6,7=101,11=2,25=1,30=1,71=1,74=-5,124=31/1,2,3;
 4/5=5,16=3,69=1/1;
 5/5=2,38=5/2;
 7//1,2,3,16;
 1/18=20,19=15,26=3/3(-5);
 2/9=110/2;
 6/7=2,8=2,9=2,10=2,19=2,28=1/1;
 99/9=1/99;
 Leave Link    1 at Thu Jul 21 01:58:25 2022, MaxMem=  1342177280 cpu:               2.9 elap:               0.1
 (Enter /home/mkliu/g16/l101.exe)
 -----
 force
 -----
 Symbolic Z-matrix:
 Charge =  0 Multiplicity = 1
 C                     12.808    12.08427   21.89943 
 C                     12.81486   13.02855   22.91478 
 C                     12.69819   14.42643   22.59453 
 C                     12.63133   14.8386   21.26232 
 C                     13.49915   15.16578   23.506 
 C                     14.1301   14.24262   24.4115 
 C                     15.70762   17.11298   18.87832 
 C                     13.74301   12.90983   24.01412 
 C                     15.41584   14.49151   24.86711 
 C                     16.90919   16.96578   17.94185 
 C                     16.0881   15.71406   24.49829 
 C                     15.47076   16.58971   23.60673 
 C                     14.19644   16.28332   23.0434 
 C                     19.22144   14.05446   22.59092 
 C                     16.23662   17.27366   22.60255 
 C                     19.1831   15.44603   22.58305 
 C                     19.26902   16.12165   21.31853 
 C                     17.43226   11.61769   19.3247 
 C                     17.68019   11.33971   20.73777 
 C                     18.4686   12.06747   21.63496 
 C                     18.03894   16.89652   18.92842 
 C                     17.59094   17.44657   20.16593 
 C                     16.13323   17.49969   20.1679 
 C                     15.46488   17.35215   21.39327 
 C                     14.19508   16.67657   21.65162 
 C                     13.40668   15.94881   20.75443 
 C                     13.66003   15.68613   19.33938 
 C                     14.70327   16.17973   18.54063 
 C                     15.26718   15.30156   17.52153 
 C                     16.64812   15.61268   17.34568 
 C                     17.57732   14.61054   17.34208 
 C                     17.16348   13.25631   17.51416 
 C                     18.94838   14.76635   17.93398 
 C                     15.82249   12.94024   17.39644 
 C                     14.85037   13.98869   17.40023 
 C                     13.7112   13.52116   18.13952 
 C                     19.00779   13.55363   18.86548 
 C                     13.11282   14.39014   19.04771 
 C                     12.50867   13.85546   20.23591 
 C                     18.00026   12.6238   18.5278 
 C                     12.60259   12.49666   20.53183 
 C                     13.3809   11.64304   19.68255 
 C                     13.9236   12.1505   18.50035 
 C                     15.27302   11.83671   18.13344 
 C                     19.2371   13.28369   21.37856 
 C                     19.43023   13.94377   20.15508 
 C                     16.09763   11.17093   19.03607 
 C                     19.48725   15.40133   20.15857 
 C                     15.52319   10.60423   20.22416 
 C                     18.96811   15.89434   18.92478 
 C                     16.51646   10.64836   21.24717 
 C                     16.11533   10.74098   22.58119 
 C                     16.91629   11.48033   23.49267 
 C                     18.0816   12.0931   23.02827 
 C                     18.48528   13.33848   23.59498 
 C                     18.2969   17.17011   21.32233 
 C                     17.6213   17.13049   22.58914 
 C                     18.24182   16.13657   23.41442 
 C                     17.48674   15.43305   24.35493 
 C                     17.66193   14.01667   24.49215 
 C                     16.39347   13.43712   24.86329 
 C                     16.04664   12.1756   24.40401 
 C                     14.68701   11.89171   24.01043 
 C                     14.73141   10.96153   22.90729 
 C                     13.78564   11.02988   21.89561 
 C                     14.17641   10.79925   20.52568 
 H                     17.00553   17.76836   17.20617 
 H                     19.75327   14.80481   17.1955 
 
 ITRead=  0  0  0  0  0  0  0  0  0  0  0  0  0  0  0  0  0  0  0  0
 ITRead=  0  0  0  0  0  0  0  0  0  0  0  0  0  0  0  0  0  0  0  0
 ITRead=  0  0  0  0  0  0  0  0  0  0  0  0  0  0  0  0  0  0  0  0
 ITRead=  0  0  0  0  0  0  0  0
 MicOpt= -1 -1 -1 -1 -1 -1 -1 -1 -1 -1 -1 -1 -1 -1 -1 -1 -1 -1 -1 -1
 MicOpt= -1 -1 -1 -1 -1 -1 -1 -1 -1 -1 -1 -1 -1 -1 -1 -1 -1 -1 -1 -1
 MicOpt= -1 -1 -1 -1 -1 -1 -1 -1 -1 -1 -1 -1 -1 -1 -1 -1 -1 -1 -1 -1
 MicOpt= -1 -1 -1 -1 -1 -1 -1 -1
 NAtoms=     68 NQM=       68 NQMF=       0 NMMI=      0 NMMIF=      0
                NMic=       0 NMicF=      0.
                    Isotopes and Nuclear Properties:
 (Nuclear quadrupole moments (NQMom) in fm**2, nuclear magnetic moments (NMagM)
  in nuclear magnetons)

  Atom         1           2           3           4           5           6           7           8           9          10
 IAtWgt=          12          12          12          12          12          12          12          12          12          12
 AtmWgt=  12.0000000  12.0000000  12.0000000  12.0000000  12.0000000  12.0000000  12.0000000  12.0000000  12.0000000  12.0000000
 NucSpn=           0           0           0           0           0           0           0           0           0           0
 AtZEff=  -0.0000000  -0.0000000  -0.0000000  -0.0000000  -0.0000000  -0.0000000  -0.0000000  -0.0000000  -0.0000000  -0.0000000
 NQMom=    0.0000000   0.0000000   0.0000000   0.0000000   0.0000000   0.0000000   0.0000000   0.0000000   0.0000000   0.0000000
 NMagM=    0.0000000   0.0000000   0.0000000   0.0000000   0.0000000   0.0000000   0.0000000   0.0000000   0.0000000   0.0000000
 AtZNuc=   6.0000000   6.0000000   6.0000000   6.0000000   6.0000000   6.0000000   6.0000000   6.0000000   6.0000000   6.0000000

  Atom        11          12          13          14          15          16          17          18          19          20
 IAtWgt=          12          12          12          12          12          12          12          12          12          12
 AtmWgt=  12.0000000  12.0000000  12.0000000  12.0000000  12.0000000  12.0000000  12.0000000  12.0000000  12.0000000  12.0000000
 NucSpn=           0           0           0           0           0           0           0           0           0           0
 AtZEff=  -0.0000000  -0.0000000  -0.0000000  -0.0000000  -0.0000000  -0.0000000  -0.0000000  -0.0000000  -0.0000000  -0.0000000
 NQMom=    0.0000000   0.0000000   0.0000000   0.0000000   0.0000000   0.0000000   0.0000000   0.0000000   0.0000000   0.0000000
 NMagM=    0.0000000   0.0000000   0.0000000   0.0000000   0.0000000   0.0000000   0.0000000   0.0000000   0.0000000   0.0000000
 AtZNuc=   6.0000000   6.0000000   6.0000000   6.0000000   6.0000000   6.0000000   6.0000000   6.0000000   6.0000000   6.0000000

  Atom        21          22          23          24          25          26          27          28          29          30
 IAtWgt=          12          12          12          12          12          12          12          12          12          12
 AtmWgt=  12.0000000  12.0000000  12.0000000  12.0000000  12.0000000  12.0000000  12.0000000  12.0000000  12.0000000  12.0000000
 NucSpn=           0           0           0           0           0           0           0           0           0           0
 AtZEff=  -0.0000000  -0.0000000  -0.0000000  -0.0000000  -0.0000000  -0.0000000  -0.0000000  -0.0000000  -0.0000000  -0.0000000
 NQMom=    0.0000000   0.0000000   0.0000000   0.0000000   0.0000000   0.0000000   0.0000000   0.0000000   0.0000000   0.0000000
 NMagM=    0.0000000   0.0000000   0.0000000   0.0000000   0.0000000   0.0000000   0.0000000   0.0000000   0.0000000   0.0000000
 AtZNuc=   6.0000000   6.0000000   6.0000000   6.0000000   6.0000000   6.0000000   6.0000000   6.0000000   6.0000000   6.0000000

  Atom        31          32          33          34          35          36          37          38          39          40
 IAtWgt=          12          12          12          12          12          12          12          12          12          12
 AtmWgt=  12.0000000  12.0000000  12.0000000  12.0000000  12.0000000  12.0000000  12.0000000  12.0000000  12.0000000  12.0000000
 NucSpn=           0           0           0           0           0           0           0           0           0           0
 AtZEff=  -0.0000000  -0.0000000  -0.0000000  -0.0000000  -0.0000000  -0.0000000  -0.0000000  -0.0000000  -0.0000000  -0.0000000
 NQMom=    0.0000000   0.0000000   0.0000000   0.0000000   0.0000000   0.0000000   0.0000000   0.0000000   0.0000000   0.0000000
 NMagM=    0.0000000   0.0000000   0.0000000   0.0000000   0.0000000   0.0000000   0.0000000   0.0000000   0.0000000   0.0000000
 AtZNuc=   6.0000000   6.0000000   6.0000000   6.0000000   6.0000000   6.0000000   6.0000000   6.0000000   6.0000000   6.0000000

  Atom        41          42          43          44          45          46          47          48          49          50
 IAtWgt=          12          12          12          12          12          12          12          12          12          12
 AtmWgt=  12.0000000  12.0000000  12.0000000  12.0000000  12.0000000  12.0000000  12.0000000  12.0000000  12.0000000  12.0000000
 NucSpn=           0           0           0           0           0           0           0           0           0           0
 AtZEff=  -0.0000000  -0.0000000  -0.0000000  -0.0000000  -0.0000000  -0.0000000  -0.0000000  -0.0000000  -0.0000000  -0.0000000
 NQMom=    0.0000000   0.0000000   0.0000000   0.0000000   0.0000000   0.0000000   0.0000000   0.0000000   0.0000000   0.0000000
 NMagM=    0.0000000   0.0000000   0.0000000   0.0000000   0.0000000   0.0000000   0.0000000   0.0000000   0.0000000   0.0000000
 AtZNuc=   6.0000000   6.0000000   6.0000000   6.0000000   6.0000000   6.0000000   6.0000000   6.0000000   6.0000000   6.0000000

  Atom        51          52          53          54          55          56          57          58          59          60
 IAtWgt=          12          12          12          12          12          12          12          12          12          12
 AtmWgt=  12.0000000  12.0000000  12.0000000  12.0000000  12.0000000  12.0000000  12.0000000  12.0000000  12.0000000  12.0000000
 NucSpn=           0           0           0           0           0           0           0           0           0           0
 AtZEff=  -0.0000000  -0.0000000  -0.0000000  -0.0000000  -0.0000000  -0.0000000  -0.0000000  -0.0000000  -0.0000000  -0.0000000
 NQMom=    0.0000000   0.0000000   0.0000000   0.0000000   0.0000000   0.0000000   0.0000000   0.0000000   0.0000000   0.0000000
 NMagM=    0.0000000   0.0000000   0.0000000   0.0000000   0.0000000   0.0000000   0.0000000   0.0000000   0.0000000   0.0000000
 AtZNuc=   6.0000000   6.0000000   6.0000000   6.0000000   6.0000000   6.0000000   6.0000000   6.0000000   6.0000000   6.0000000

  Atom        61          62          63          64          65          66          67          68
 IAtWgt=          12          12          12          12          12          12           1           1
 AtmWgt=  12.0000000  12.0000000  12.0000000  12.0000000  12.0000000  12.0000000   1.0078250   1.0078250
 NucSpn=           0           0           0           0           0           0           1           1
 AtZEff=  -0.0000000  -0.0000000  -0.0000000  -0.0000000  -0.0000000  -0.0000000  -0.0000000  -0.0000000
 NQMom=    0.0000000   0.0000000   0.0000000   0.0000000   0.0000000   0.0000000   0.0000000   0.0000000
 NMagM=    0.0000000   0.0000000   0.0000000   0.0000000   0.0000000   0.0000000   2.7928460   2.7928460
 AtZNuc=   6.0000000   6.0000000   6.0000000   6.0000000   6.0000000   6.0000000   1.0000000   1.0000000
 Leave Link  101 at Thu Jul 21 01:58:26 2022, MaxMem=  1342177280 cpu:              28.2 elap:               0.6
 (Enter /home/mkliu/g16/l103.exe)

 GradGradGradGradGradGradGradGradGradGradGradGradGradGradGradGradGradGrad
 Berny optimization.
 Initialization pass.
                           ----------------------------
                           !    Initial Parameters    !
                           ! (Angstroms and Degrees)  !
 --------------------------                            --------------------------
 ! Name  Definition              Value          Derivative Info.                !
 --------------------------------------------------------------------------------
 ! R1    R(1,2)                  1.3866         estimate D2E/DX2                !
 ! R2    R(1,41)                 1.4431         estimate D2E/DX2                !
 ! R3    R(1,65)                 1.4379         estimate D2E/DX2                !
 ! R4    R(2,3)                  1.4388         estimate D2E/DX2                !
 ! R5    R(2,8)                  1.4436         estimate D2E/DX2                !
 ! R6    R(3,4)                  1.3961         estimate D2E/DX2                !
 ! R7    R(3,5)                  1.4209         estimate D2E/DX2                !
 ! R8    R(4,26)                 1.4463         estimate D2E/DX2                !
 ! R9    R(4,39)                 1.4266         estimate D2E/DX2                !
 ! R10   R(5,6)                  1.4388         estimate D2E/DX2                !
 ! R11   R(5,13)                 1.3961         estimate D2E/DX2                !
 ! R12   R(6,8)                  1.4436         estimate D2E/DX2                !
 ! R13   R(6,9)                  1.3866         estimate D2E/DX2                !
 ! R14   R(7,10)                 1.5305         estimate D2E/DX2                !
 ! R15   R(7,23)                 1.412          estimate D2E/DX2                !
 ! R16   R(7,28)                 1.412          estimate D2E/DX2                !
 ! R17   R(8,63)                 1.3884         estimate D2E/DX2                !
 ! R18   R(9,11)                 1.4431         estimate D2E/DX2                !
 ! R19   R(9,61)                 1.4379         estimate D2E/DX2                !
 ! R20   R(10,21)                1.5015         estimate D2E/DX2                !
 ! R21   R(10,30)                1.5015         estimate D2E/DX2                !
 ! R22   R(10,67)                1.093          estimate D2E/DX2                !
 ! R23   R(11,12)                1.3938         estimate D2E/DX2                !
 ! R24   R(11,59)                1.4338         estimate D2E/DX2                !
 ! R25   R(12,13)                1.4266         estimate D2E/DX2                !
 ! R26   R(12,15)                1.4362         estimate D2E/DX2                !
 ! R27   R(13,25)                1.4463         estimate D2E/DX2                !
 ! R28   R(14,16)                1.3921         estimate D2E/DX2                !
 ! R29   R(14,45)                1.4367         estimate D2E/DX2                !
 ! R30   R(14,55)                1.4362         estimate D2E/DX2                !
 ! R31   R(15,24)                1.4367         estimate D2E/DX2                !
 ! R32   R(15,57)                1.3921         estimate D2E/DX2                !
 ! R33   R(16,17)                1.4363         estimate D2E/DX2                !
 ! R34   R(16,58)                1.4332         estimate D2E/DX2                !
 ! R35   R(17,48)                1.3828         estimate D2E/DX2                !
 ! R36   R(17,56)                1.4298         estimate D2E/DX2                !
 ! R37   R(18,19)                1.4613         estimate D2E/DX2                !
 ! R38   R(18,40)                1.4035         estimate D2E/DX2                !
 ! R39   R(18,47)                1.4367         estimate D2E/DX2                !
 ! R40   R(19,20)                1.3986         estimate D2E/DX2                !
 ! R41   R(19,51)                1.4463         estimate D2E/DX2                !
 ! R42   R(20,45)                1.4613         estimate D2E/DX2                !
 ! R43   R(20,54)                1.4463         estimate D2E/DX2                !
 ! R44   R(21,22)                1.4264         estimate D2E/DX2                !
 ! R45   R(21,50)                1.3666         estimate D2E/DX2                !
 ! R46   R(22,23)                1.4587         estimate D2E/DX2                !
 ! R47   R(22,56)                1.3828         estimate D2E/DX2                !
 ! R48   R(23,24)                1.4036         estimate D2E/DX2                !
 ! R49   R(24,25)                1.4614         estimate D2E/DX2                !
 ! R50   R(25,26)                1.3986         estimate D2E/DX2                !
 ! R51   R(26,27)                1.4614         estimate D2E/DX2                !
 ! R52   R(27,28)                1.4036         estimate D2E/DX2                !
 ! R53   R(27,38)                1.4367         estimate D2E/DX2                !
 ! R54   R(28,29)                1.4587         estimate D2E/DX2                !
 ! R55   R(29,30)                1.4264         estimate D2E/DX2                !
 ! R56   R(29,35)                1.3828         estimate D2E/DX2                !
 ! R57   R(30,31)                1.3666         estimate D2E/DX2                !
 ! R58   R(31,32)                1.4265         estimate D2E/DX2                !
 ! R59   R(31,33)                1.5015         estimate D2E/DX2                !
 ! R60   R(32,34)                1.3828         estimate D2E/DX2                !
 ! R61   R(32,40)                1.4587         estimate D2E/DX2                !
 ! R62   R(33,37)                1.5303         estimate D2E/DX2                !
 ! R63   R(33,50)                1.5015         estimate D2E/DX2                !
 ! R64   R(33,68)                1.093          estimate D2E/DX2                !
 ! R65   R(34,35)                1.4298         estimate D2E/DX2                !
 ! R66   R(34,44)                1.4363         estimate D2E/DX2                !
 ! R67   R(35,36)                1.4363         estimate D2E/DX2                !
 ! R68   R(36,38)                1.3921         estimate D2E/DX2                !
 ! R69   R(36,43)                1.4332         estimate D2E/DX2                !
 ! R70   R(37,40)                1.412          estimate D2E/DX2                !
 ! R71   R(37,46)                1.412          estimate D2E/DX2                !
 ! R72   R(38,39)                1.4362         estimate D2E/DX2                !
 ! R73   R(39,41)                1.3938         estimate D2E/DX2                !
 ! R74   R(41,42)                1.4338         estimate D2E/DX2                !
 ! R75   R(42,43)                1.3963         estimate D2E/DX2                !
 ! R76   R(42,66)                1.4338         estimate D2E/DX2                !
 ! R77   R(43,44)                1.4332         estimate D2E/DX2                !
 ! R78   R(44,47)                1.3921         estimate D2E/DX2                !
 ! R79   R(45,46)                1.4035         estimate D2E/DX2                !
 ! R80   R(46,48)                1.4587         estimate D2E/DX2                !
 ! R81   R(47,49)                1.4362         estimate D2E/DX2                !
 ! R82   R(48,50)                1.4265         estimate D2E/DX2                !
 ! R83   R(49,51)                1.4266         estimate D2E/DX2                !
 ! R84   R(49,66)                1.3938         estimate D2E/DX2                !
 ! R85   R(51,52)                1.3961         estimate D2E/DX2                !
 ! R86   R(52,53)                1.4209         estimate D2E/DX2                !
 ! R87   R(52,64)                1.4388         estimate D2E/DX2                !
 ! R88   R(53,54)                1.3961         estimate D2E/DX2                !
 ! R89   R(53,62)                1.4388         estimate D2E/DX2                !
 ! R90   R(54,55)                1.4266         estimate D2E/DX2                !
 ! R91   R(55,60)                1.3938         estimate D2E/DX2                !
 ! R92   R(56,57)                1.4363         estimate D2E/DX2                !
 ! R93   R(57,58)                1.4332         estimate D2E/DX2                !
 ! R94   R(58,59)                1.3963         estimate D2E/DX2                !
 ! R95   R(59,60)                1.4338         estimate D2E/DX2                !
 ! R96   R(60,61)                1.4431         estimate D2E/DX2                !
 ! R97   R(61,62)                1.3866         estimate D2E/DX2                !
 ! R98   R(62,63)                1.4436         estimate D2E/DX2                !
 ! R99   R(63,64)                1.4436         estimate D2E/DX2                !
 ! R100  R(64,65)                1.3866         estimate D2E/DX2                !
 ! R101  R(65,66)                1.4431         estimate D2E/DX2                !
 ! A1    A(2,1,41)             120.0024         estimate D2E/DX2                !
 ! A2    A(2,1,65)             119.8651         estimate D2E/DX2                !
 ! A3    A(41,1,65)            107.6868         estimate D2E/DX2                !
 ! A4    A(1,2,3)              119.8837         estimate D2E/DX2                !
 ! A5    A(1,2,8)              120.3175         estimate D2E/DX2                !
 ! A6    A(3,2,8)              107.5491         estimate D2E/DX2                !
 ! A7    A(2,3,4)              120.2047         estimate D2E/DX2                !
 ! A8    A(2,3,5)              108.4842         estimate D2E/DX2                !
 ! A9    A(4,3,5)              119.0451         estimate D2E/DX2                !
 ! A10   A(3,4,26)             122.4152         estimate D2E/DX2                !
 ! A11   A(3,4,39)             119.1581         estimate D2E/DX2                !
 ! A12   A(26,4,39)            108.811          estimate D2E/DX2                !
 ! A13   A(3,5,6)              108.4842         estimate D2E/DX2                !
 ! A14   A(3,5,13)             119.0452         estimate D2E/DX2                !
 ! A15   A(6,5,13)             120.2047         estimate D2E/DX2                !
 ! A16   A(5,6,8)              107.549          estimate D2E/DX2                !
 ! A17   A(5,6,9)              119.8837         estimate D2E/DX2                !
 ! A18   A(8,6,9)              120.3175         estimate D2E/DX2                !
 ! A19   A(10,7,23)            110.3969         estimate D2E/DX2                !
 ! A20   A(10,7,28)            110.3969         estimate D2E/DX2                !
 ! A21   A(23,7,28)            127.8685         estimate D2E/DX2                !
 ! A22   A(2,8,6)              107.8231         estimate D2E/DX2                !
 ! A23   A(2,8,63)             119.6968         estimate D2E/DX2                !
 ! A24   A(6,8,63)             119.6968         estimate D2E/DX2                !
 ! A25   A(6,9,11)             120.0024         estimate D2E/DX2                !
 ! A26   A(6,9,61)             119.8651         estimate D2E/DX2                !
 ! A27   A(11,9,61)            107.6868         estimate D2E/DX2                !
 ! A28   A(7,10,21)            101.1345         estimate D2E/DX2                !
 ! A29   A(7,10,30)            101.1345         estimate D2E/DX2                !
 ! A30   A(7,10,67)            114.2311         estimate D2E/DX2                !
 ! A31   A(21,10,30)           110.4963         estimate D2E/DX2                !
 ! A32   A(21,10,67)           114.1927         estimate D2E/DX2                !
 ! A33   A(30,10,67)           114.1927         estimate D2E/DX2                !
 ! A34   A(9,11,12)            119.299          estimate D2E/DX2                !
 ! A35   A(9,11,59)            108.2966         estimate D2E/DX2                !
 ! A36   A(12,11,59)           119.4214         estimate D2E/DX2                !
 ! A37   A(11,12,13)           120.8841         estimate D2E/DX2                !
 ! A38   A(11,12,15)           120.679          estimate D2E/DX2                !
 ! A39   A(13,12,15)           107.6092         estimate D2E/DX2                !
 ! A40   A(5,13,12)            119.1581         estimate D2E/DX2                !
 ! A41   A(5,13,25)            122.4152         estimate D2E/DX2                !
 ! A42   A(12,13,25)           108.811          estimate D2E/DX2                !
 ! A43   A(16,14,45)           122.1273         estimate D2E/DX2                !
 ! A44   A(16,14,55)           119.2195         estimate D2E/DX2                !
 ! A45   A(45,14,55)           109.1515         estimate D2E/DX2                !
 ! A46   A(12,15,24)           109.1526         estimate D2E/DX2                !
 ! A47   A(12,15,57)           119.2197         estimate D2E/DX2                !
 ! A48   A(24,15,57)           122.127          estimate D2E/DX2                !
 ! A49   A(14,16,17)           118.2648         estimate D2E/DX2                !
 ! A50   A(14,16,58)           119.765          estimate D2E/DX2                !
 ! A51   A(17,16,58)           108.8661         estimate D2E/DX2                !
 ! A52   A(16,17,48)           120.196          estimate D2E/DX2                !
 ! A53   A(16,17,56)           107.574          estimate D2E/DX2                !
 ! A54   A(48,17,56)           119.4413         estimate D2E/DX2                !
 ! A55   A(19,18,40)           128.0773         estimate D2E/DX2                !
 ! A56   A(19,18,47)           107.0202         estimate D2E/DX2                !
 ! A57   A(40,18,47)           118.998          estimate D2E/DX2                !
 ! A58   A(18,19,20)           128.0935         estimate D2E/DX2                !
 ! A59   A(18,19,51)           107.1575         estimate D2E/DX2                !
 ! A60   A(20,19,51)           118.4483         estimate D2E/DX2                !
 ! A61   A(19,20,45)           128.0935         estimate D2E/DX2                !
 ! A62   A(19,20,54)           118.4483         estimate D2E/DX2                !
 ! A63   A(45,20,54)           107.1575         estimate D2E/DX2                !
 ! A64   A(10,21,22)           108.4174         estimate D2E/DX2                !
 ! A65   A(10,21,50)           122.9319         estimate D2E/DX2                !
 ! A66   A(22,21,50)           119.9087         estimate D2E/DX2                !
 ! A67   A(21,22,23)           109.2128         estimate D2E/DX2                !
 ! A68   A(21,22,56)           119.2145         estimate D2E/DX2                !
 ! A69   A(23,22,56)           121.0882         estimate D2E/DX2                !
 ! A70   A(7,23,22)            106.8596         estimate D2E/DX2                !
 ! A71   A(7,23,24)            128.6847         estimate D2E/DX2                !
 ! A72   A(22,23,24)           118.2431         estimate D2E/DX2                !
 ! A73   A(15,24,23)           118.9997         estimate D2E/DX2                !
 ! A74   A(15,24,25)           107.0194         estimate D2E/DX2                !
 ! A75   A(23,24,25)           128.0754         estimate D2E/DX2                !
 ! A76   A(13,25,24)           107.1579         estimate D2E/DX2                !
 ! A77   A(13,25,26)           118.4478         estimate D2E/DX2                !
 ! A78   A(24,25,26)           128.0943         estimate D2E/DX2                !
 ! A79   A(4,26,25)            118.4478         estimate D2E/DX2                !
 ! A80   A(4,26,27)            107.1579         estimate D2E/DX2                !
 ! A81   A(25,26,27)           128.0944         estimate D2E/DX2                !
 ! A82   A(26,27,28)           128.0754         estimate D2E/DX2                !
 ! A83   A(26,27,38)           107.0194         estimate D2E/DX2                !
 ! A84   A(28,27,38)           118.9997         estimate D2E/DX2                !
 ! A85   A(7,28,27)            128.6846         estimate D2E/DX2                !
 ! A86   A(7,28,29)            106.8595         estimate D2E/DX2                !
 ! A87   A(27,28,29)           118.243          estimate D2E/DX2                !
 ! A88   A(28,29,30)           109.2128         estimate D2E/DX2                !
 ! A89   A(28,29,35)           121.0882         estimate D2E/DX2                !
 ! A90   A(30,29,35)           119.2145         estimate D2E/DX2                !
 ! A91   A(10,30,29)           108.4174         estimate D2E/DX2                !
 ! A92   A(10,30,31)           122.9319         estimate D2E/DX2                !
 ! A93   A(29,30,31)           119.9088         estimate D2E/DX2                !
 ! A94   A(30,31,32)           119.9062         estimate D2E/DX2                !
 ! A95   A(30,31,33)           122.9376         estimate D2E/DX2                !
 ! A96   A(32,31,33)           108.414          estimate D2E/DX2                !
 ! A97   A(31,32,34)           119.2148         estimate D2E/DX2                !
 ! A98   A(31,32,40)           109.2118         estimate D2E/DX2                !
 ! A99   A(34,32,40)           121.0892         estimate D2E/DX2                !
 ! A100  A(31,33,37)           101.1374         estimate D2E/DX2                !
 ! A101  A(31,33,50)           110.4929         estimate D2E/DX2                !
 ! A102  A(31,33,68)           114.1884         estimate D2E/DX2                !
 ! A103  A(37,33,50)           101.1374         estimate D2E/DX2                !
 ! A104  A(37,33,68)           114.2394         estimate D2E/DX2                !
 ! A105  A(50,33,68)           114.1883         estimate D2E/DX2                !
 ! A106  A(32,34,35)           119.4413         estimate D2E/DX2                !
 ! A107  A(32,34,44)           120.196          estimate D2E/DX2                !
 ! A108  A(35,34,44)           107.574          estimate D2E/DX2                !
 ! A109  A(29,35,34)           119.4399         estimate D2E/DX2                !
 ! A110  A(29,35,36)           120.1975         estimate D2E/DX2                !
 ! A111  A(34,35,36)           107.5738         estimate D2E/DX2                !
 ! A112  A(35,36,38)           118.2643         estimate D2E/DX2                !
 ! A113  A(35,36,43)           108.8666         estimate D2E/DX2                !
 ! A114  A(38,36,43)           119.7639         estimate D2E/DX2                !
 ! A115  A(33,37,40)           110.4006         estimate D2E/DX2                !
 ! A116  A(33,37,46)           110.4006         estimate D2E/DX2                !
 ! A117  A(40,37,46)           127.8691         estimate D2E/DX2                !
 ! A118  A(27,38,36)           122.127          estimate D2E/DX2                !
 ! A119  A(27,38,39)           109.1526         estimate D2E/DX2                !
 ! A120  A(36,38,39)           119.2197         estimate D2E/DX2                !
 ! A121  A(4,39,38)            107.6092         estimate D2E/DX2                !
 ! A122  A(4,39,41)            120.884          estimate D2E/DX2                !
 ! A123  A(38,39,41)           120.6791         estimate D2E/DX2                !
 ! A124  A(18,40,32)           118.2442         estimate D2E/DX2                !
 ! A125  A(18,40,37)           128.6846         estimate D2E/DX2                !
 ! A126  A(32,40,37)           106.8563         estimate D2E/DX2                !
 ! A127  A(1,41,39)            119.299          estimate D2E/DX2                !
 ! A128  A(1,41,42)            108.2966         estimate D2E/DX2                !
 ! A129  A(39,41,42)           119.4215         estimate D2E/DX2                !
 ! A130  A(41,42,43)           119.7437         estimate D2E/DX2                !
 ! A131  A(41,42,66)           107.6525         estimate D2E/DX2                !
 ! A132  A(43,42,66)           119.744          estimate D2E/DX2                !
 ! A133  A(36,43,42)           120.2085         estimate D2E/DX2                !
 ! A134  A(36,43,44)           106.5275         estimate D2E/DX2                !
 ! A135  A(42,43,44)           120.2076         estimate D2E/DX2                !
 ! A136  A(34,44,43)           108.8661         estimate D2E/DX2                !
 ! A137  A(34,44,47)           118.2647         estimate D2E/DX2                !
 ! A138  A(43,44,47)           119.765          estimate D2E/DX2                !
 ! A139  A(14,45,20)           107.0202         estimate D2E/DX2                !
 ! A140  A(14,45,46)           118.9979         estimate D2E/DX2                !
 ! A141  A(20,45,46)           128.0772         estimate D2E/DX2                !
 ! A142  A(37,46,45)           128.6847         estimate D2E/DX2                !
 ! A143  A(37,46,48)           106.8563         estimate D2E/DX2                !
 ! A144  A(45,46,48)           118.2443         estimate D2E/DX2                !
 ! A145  A(18,47,44)           122.1273         estimate D2E/DX2                !
 ! A146  A(18,47,49)           109.1514         estimate D2E/DX2                !
 ! A147  A(44,47,49)           119.2195         estimate D2E/DX2                !
 ! A148  A(17,48,46)           121.0892         estimate D2E/DX2                !
 ! A149  A(17,48,50)           119.2148         estimate D2E/DX2                !
 ! A150  A(46,48,50)           109.2118         estimate D2E/DX2                !
 ! A151  A(47,49,51)           107.6096         estimate D2E/DX2                !
 ! A152  A(47,49,66)           120.6781         estimate D2E/DX2                !
 ! A153  A(51,49,66)           120.8848         estimate D2E/DX2                !
 ! A154  A(21,50,33)           122.9376         estimate D2E/DX2                !
 ! A155  A(21,50,48)           119.9062         estimate D2E/DX2                !
 ! A156  A(33,50,48)           108.414          estimate D2E/DX2                !
 ! A157  A(19,51,49)           108.8114         estimate D2E/DX2                !
 ! A158  A(19,51,52)           122.4137         estimate D2E/DX2                !
 ! A159  A(49,51,52)           119.1581         estimate D2E/DX2                !
 ! A160  A(51,52,53)           119.0461         estimate D2E/DX2                !
 ! A161  A(51,52,64)           120.2048         estimate D2E/DX2                !
 ! A162  A(53,52,64)           108.4841         estimate D2E/DX2                !
 ! A163  A(52,53,54)           119.0461         estimate D2E/DX2                !
 ! A164  A(52,53,62)           108.4841         estimate D2E/DX2                !
 ! A165  A(54,53,62)           120.2048         estimate D2E/DX2                !
 ! A166  A(20,54,53)           122.4137         estimate D2E/DX2                !
 ! A167  A(20,54,55)           108.8114         estimate D2E/DX2                !
 ! A168  A(53,54,55)           119.1581         estimate D2E/DX2                !
 ! A169  A(14,55,54)           107.6095         estimate D2E/DX2                !
 ! A170  A(14,55,60)           120.6781         estimate D2E/DX2                !
 ! A171  A(54,55,60)           120.8848         estimate D2E/DX2                !
 ! A172  A(17,56,22)           119.4399         estimate D2E/DX2                !
 ! A173  A(17,56,57)           107.5738         estimate D2E/DX2                !
 ! A174  A(22,56,57)           120.1975         estimate D2E/DX2                !
 ! A175  A(15,57,56)           118.2643         estimate D2E/DX2                !
 ! A176  A(15,57,58)           119.7639         estimate D2E/DX2                !
 ! A177  A(56,57,58)           108.8666         estimate D2E/DX2                !
 ! A178  A(16,58,57)           106.5275         estimate D2E/DX2                !
 ! A179  A(16,58,59)           120.2076         estimate D2E/DX2                !
 ! A180  A(57,58,59)           120.2085         estimate D2E/DX2                !
 ! A181  A(11,59,58)           119.7437         estimate D2E/DX2                !
 ! A182  A(11,59,60)           107.6526         estimate D2E/DX2                !
 ! A183  A(58,59,60)           119.744          estimate D2E/DX2                !
 ! A184  A(55,60,59)           119.4223         estimate D2E/DX2                !
 ! A185  A(55,60,61)           119.2981         estimate D2E/DX2                !
 ! A186  A(59,60,61)           108.2968         estimate D2E/DX2                !
 ! A187  A(9,61,60)            107.6867         estimate D2E/DX2                !
 ! A188  A(9,61,62)            119.8651         estimate D2E/DX2                !
 ! A189  A(60,61,62)           120.0026         estimate D2E/DX2                !
 ! A190  A(53,62,61)           119.884          estimate D2E/DX2                !
 ! A191  A(53,62,63)           107.5493         estimate D2E/DX2                !
 ! A192  A(61,62,63)           120.3174         estimate D2E/DX2                !
 ! A193  A(8,63,62)            119.6973         estimate D2E/DX2                !
 ! A194  A(8,63,64)            119.6973         estimate D2E/DX2                !
 ! A195  A(62,63,64)           107.8229         estimate D2E/DX2                !
 ! A196  A(52,64,63)           107.5493         estimate D2E/DX2                !
 ! A197  A(52,64,65)           119.884          estimate D2E/DX2                !
 ! A198  A(63,64,65)           120.3174         estimate D2E/DX2                !
 ! A199  A(1,65,64)            119.8651         estimate D2E/DX2                !
 ! A200  A(1,65,66)            107.6868         estimate D2E/DX2                !
 ! A201  A(64,65,66)           120.0026         estimate D2E/DX2                !
 ! A202  A(42,66,49)           119.4223         estimate D2E/DX2                !
 ! A203  A(42,66,65)           108.2968         estimate D2E/DX2                !
 ! A204  A(49,66,65)           119.2981         estimate D2E/DX2                !
 ! D1    D(41,1,2,3)            -3.7652         estimate D2E/DX2                !
 ! D2    D(41,1,2,8)          -141.4019         estimate D2E/DX2                !
 ! D3    D(65,1,2,3)           133.6351         estimate D2E/DX2                !
 ! D4    D(65,1,2,8)            -4.0016         estimate D2E/DX2                !
 ! D5    D(2,1,41,39)            4.5828         estimate D2E/DX2                !
 ! D6    D(2,1,41,42)          145.7361         estimate D2E/DX2                !
 ! D7    D(65,1,41,39)        -137.3849         estimate D2E/DX2                !
 ! D8    D(65,1,41,42)           3.7684         estimate D2E/DX2                !
 ! D9    D(2,1,65,64)           -0.0002         estimate D2E/DX2                !
 ! D10   D(2,1,65,66)         -142.0299         estimate D2E/DX2                !
 ! D11   D(41,1,65,64)         142.0293         estimate D2E/DX2                !
 ! D12   D(41,1,65,66)          -0.0004         estimate D2E/DX2                !
 ! D13   D(1,2,3,4)             -2.5352         estimate D2E/DX2                !
 ! D14   D(1,2,3,5)           -144.4342         estimate D2E/DX2                !
 ! D15   D(8,2,3,4)            139.8701         estimate D2E/DX2                !
 ! D16   D(8,2,3,5)             -2.0288         estimate D2E/DX2                !
 ! D17   D(1,2,8,6)            145.4788         estimate D2E/DX2                !
 ! D18   D(1,2,8,63)             3.9951         estimate D2E/DX2                !
 ! D19   D(3,2,8,6)              3.2677         estimate D2E/DX2                !
 ! D20   D(3,2,8,63)          -138.216          estimate D2E/DX2                !
 ! D21   D(2,3,4,26)          -134.438          estimate D2E/DX2                !
 ! D22   D(2,3,4,39)             7.9035         estimate D2E/DX2                !
 ! D23   D(5,3,4,26)             3.541          estimate D2E/DX2                !
 ! D24   D(5,3,4,39)           145.8824         estimate D2E/DX2                !
 ! D25   D(2,3,5,6)              0.0            estimate D2E/DX2                !
 ! D26   D(2,3,5,13)           142.4113         estimate D2E/DX2                !
 ! D27   D(4,3,5,6)           -142.4112         estimate D2E/DX2                !
 ! D28   D(4,3,5,13)             0.0            estimate D2E/DX2                !
 ! D29   D(3,4,26,25)           -3.5208         estimate D2E/DX2                !
 ! D30   D(3,4,26,27)          150.8539         estimate D2E/DX2                !
 ! D31   D(39,4,26,25)        -149.213          estimate D2E/DX2                !
 ! D32   D(39,4,26,27)           5.1617         estimate D2E/DX2                !
 ! D33   D(3,4,39,38)         -151.5468         estimate D2E/DX2                !
 ! D34   D(3,4,39,41)           -7.0983         estimate D2E/DX2                !
 ! D35   D(26,4,39,38)          -4.562          estimate D2E/DX2                !
 ! D36   D(26,4,39,41)         139.8865         estimate D2E/DX2                !
 ! D37   D(3,5,6,8)              2.0288         estimate D2E/DX2                !
 ! D38   D(3,5,6,9)            144.4342         estimate D2E/DX2                !
 ! D39   D(13,5,6,8)          -139.8702         estimate D2E/DX2                !
 ! D40   D(13,5,6,9)             2.5352         estimate D2E/DX2                !
 ! D41   D(3,5,13,12)         -145.8823         estimate D2E/DX2                !
 ! D42   D(3,5,13,25)           -3.541          estimate D2E/DX2                !
 ! D43   D(6,5,13,12)           -7.9034         estimate D2E/DX2                !
 ! D44   D(6,5,13,25)          134.438          estimate D2E/DX2                !
 ! D45   D(5,6,8,2)             -3.2677         estimate D2E/DX2                !
 ! D46   D(5,6,8,63)           138.216          estimate D2E/DX2                !
 ! D47   D(9,6,8,2)           -145.4788         estimate D2E/DX2                !
 ! D48   D(9,6,8,63)            -3.9952         estimate D2E/DX2                !
 ! D49   D(5,6,9,11)             3.7651         estimate D2E/DX2                !
 ! D50   D(5,6,9,61)          -133.6351         estimate D2E/DX2                !
 ! D51   D(8,6,9,11)           141.4018         estimate D2E/DX2                !
 ! D52   D(8,6,9,61)             4.0016         estimate D2E/DX2                !
 ! D53   D(23,7,10,21)          16.5459         estimate D2E/DX2                !
 ! D54   D(23,7,10,30)         130.2772         estimate D2E/DX2                !
 ! D55   D(23,7,10,67)        -106.5885         estimate D2E/DX2                !
 ! D56   D(28,7,10,21)        -130.2773         estimate D2E/DX2                !
 ! D57   D(28,7,10,30)         -16.546          estimate D2E/DX2                !
 ! D58   D(28,7,10,67)         106.5884         estimate D2E/DX2                !
 ! D59   D(10,7,23,22)          -7.184          estimate D2E/DX2                !
 ! D60   D(10,7,23,24)        -158.3598         estimate D2E/DX2                !
 ! D61   D(28,7,23,22)         132.2944         estimate D2E/DX2                !
 ! D62   D(28,7,23,24)         -18.8813         estimate D2E/DX2                !
 ! D63   D(10,7,28,27)         158.3596         estimate D2E/DX2                !
 ! D64   D(10,7,28,29)           7.1841         estimate D2E/DX2                !
 ! D65   D(23,7,28,27)          18.8812         estimate D2E/DX2                !
 ! D66   D(23,7,28,29)        -132.2943         estimate D2E/DX2                !
 ! D67   D(2,8,63,62)          136.962          estimate D2E/DX2                !
 ! D68   D(2,8,63,64)           -0.0004         estimate D2E/DX2                !
 ! D69   D(6,8,63,62)            0.0004         estimate D2E/DX2                !
 ! D70   D(6,8,63,64)         -136.962          estimate D2E/DX2                !
 ! D71   D(6,9,11,12)           -4.5828         estimate D2E/DX2                !
 ! D72   D(6,9,11,59)         -145.736          estimate D2E/DX2                !
 ! D73   D(61,9,11,12)         137.3849         estimate D2E/DX2                !
 ! D74   D(61,9,11,59)          -3.7684         estimate D2E/DX2                !
 ! D75   D(6,9,61,60)          142.0299         estimate D2E/DX2                !
 ! D76   D(6,9,61,62)            0.0002         estimate D2E/DX2                !
 ! D77   D(11,9,61,60)           0.0004         estimate D2E/DX2                !
 ! D78   D(11,9,61,62)        -142.0292         estimate D2E/DX2                !
 ! D79   D(7,10,21,22)         -19.8677         estimate D2E/DX2                !
 ! D80   D(7,10,21,50)         127.4667         estimate D2E/DX2                !
 ! D81   D(30,10,21,22)       -126.3484         estimate D2E/DX2                !
 ! D82   D(30,10,21,50)         20.986          estimate D2E/DX2                !
 ! D83   D(67,10,21,22)        103.293          estimate D2E/DX2                !
 ! D84   D(67,10,21,50)       -109.3726         estimate D2E/DX2                !
 ! D85   D(7,10,30,29)          19.8678         estimate D2E/DX2                !
 ! D86   D(7,10,30,31)        -127.4667         estimate D2E/DX2                !
 ! D87   D(21,10,30,29)        126.3484         estimate D2E/DX2                !
 ! D88   D(21,10,30,31)        -20.986          estimate D2E/DX2                !
 ! D89   D(67,10,30,29)       -103.293          estimate D2E/DX2                !
 ! D90   D(67,10,30,31)        109.3726         estimate D2E/DX2                !
 ! D91   D(9,11,12,13)          -0.8732         estimate D2E/DX2                !
 ! D92   D(9,11,12,15)        -140.7541         estimate D2E/DX2                !
 ! D93   D(59,11,12,13)        135.9929         estimate D2E/DX2                !
 ! D94   D(59,11,12,15)         -3.888          estimate D2E/DX2                !
 ! D95   D(9,11,59,58)         147.4856         estimate D2E/DX2                !
 ! D96   D(9,11,59,60)           6.0894         estimate D2E/DX2                !
 ! D97   D(12,11,59,58)          6.3879         estimate D2E/DX2                !
 ! D98   D(12,11,59,60)       -135.0083         estimate D2E/DX2                !
 ! D99   D(11,12,13,5)           7.0982         estimate D2E/DX2                !
 ! D100  D(11,12,13,25)       -139.8865         estimate D2E/DX2                !
 ! D101  D(15,12,13,5)         151.5467         estimate D2E/DX2                !
 ! D102  D(15,12,13,25)          4.5619         estimate D2E/DX2                !
 ! D103  D(11,12,15,24)        142.3487         estimate D2E/DX2                !
 ! D104  D(11,12,15,57)         -4.7173         estimate D2E/DX2                !
 ! D105  D(13,12,15,24)         -2.1868         estimate D2E/DX2                !
 ! D106  D(13,12,15,57)       -149.2529         estimate D2E/DX2                !
 ! D107  D(5,13,25,24)        -150.8538         estimate D2E/DX2                !
 ! D108  D(5,13,25,26)           3.5207         estimate D2E/DX2                !
 ! D109  D(12,13,25,24)         -5.1617         estimate D2E/DX2                !
 ! D110  D(12,13,25,26)        149.2128         estimate D2E/DX2                !
 ! D111  D(45,14,16,17)         -5.0014         estimate D2E/DX2                !
 ! D112  D(45,14,16,58)        131.9193         estimate D2E/DX2                !
 ! D113  D(55,14,16,17)       -147.6665         estimate D2E/DX2                !
 ! D114  D(55,14,16,58)        -10.7459         estimate D2E/DX2                !
 ! D115  D(16,14,45,20)       -144.9316         estimate D2E/DX2                !
 ! D116  D(16,14,45,46)         10.174          estimate D2E/DX2                !
 ! D117  D(55,14,45,20)          0.991          estimate D2E/DX2                !
 ! D118  D(55,14,45,46)        156.0965         estimate D2E/DX2                !
 ! D119  D(16,14,55,54)        149.2527         estimate D2E/DX2                !
 ! D120  D(16,14,55,60)          4.7165         estimate D2E/DX2                !
 ! D121  D(45,14,55,54)          2.1881         estimate D2E/DX2                !
 ! D122  D(45,14,55,60)       -142.3481         estimate D2E/DX2                !
 ! D123  D(12,15,24,23)       -156.0958         estimate D2E/DX2                !
 ! D124  D(12,15,24,25)         -0.9927         estimate D2E/DX2                !
 ! D125  D(57,15,24,23)        -10.1715         estimate D2E/DX2                !
 ! D126  D(57,15,24,25)        144.9316         estimate D2E/DX2                !
 ! D127  D(12,15,57,56)        147.6665         estimate D2E/DX2                !
 ! D128  D(12,15,57,58)         10.7471         estimate D2E/DX2                !
 ! D129  D(24,15,57,56)          4.9991         estimate D2E/DX2                !
 ! D130  D(24,15,57,58)       -131.9202         estimate D2E/DX2                !
 ! D131  D(14,16,17,48)         -4.8706         estimate D2E/DX2                !
 ! D132  D(14,16,17,56)        136.4675         estimate D2E/DX2                !
 ! D133  D(58,16,17,48)       -146.0737         estimate D2E/DX2                !
 ! D134  D(58,16,17,56)         -4.7356         estimate D2E/DX2                !
 ! D135  D(14,16,58,57)       -132.9648         estimate D2E/DX2                !
 ! D136  D(14,16,58,59)          8.3008         estimate D2E/DX2                !
 ! D137  D(17,16,58,57)          7.5612         estimate D2E/DX2                !
 ! D138  D(17,16,58,59)        148.8268         estimate D2E/DX2                !
 ! D139  D(16,17,48,46)          9.5113         estimate D2E/DX2                !
 ! D140  D(16,17,48,50)        150.5395         estimate D2E/DX2                !
 ! D141  D(56,17,48,46)       -127.3409         estimate D2E/DX2                !
 ! D142  D(56,17,48,50)         13.6873         estimate D2E/DX2                !
 ! D143  D(16,17,56,22)       -141.6825         estimate D2E/DX2                !
 ! D144  D(16,17,56,57)          0.0            estimate D2E/DX2                !
 ! D145  D(48,17,56,22)         -0.0005         estimate D2E/DX2                !
 ! D146  D(48,17,56,57)        141.682          estimate D2E/DX2                !
 ! D147  D(40,18,19,20)          4.7487         estimate D2E/DX2                !
 ! D148  D(40,18,19,51)        155.8537         estimate D2E/DX2                !
 ! D149  D(47,18,19,20)       -147.3655         estimate D2E/DX2                !
 ! D150  D(47,18,19,51)          3.7395         estimate D2E/DX2                !
 ! D151  D(19,18,40,32)       -143.8441         estimate D2E/DX2                !
 ! D152  D(19,18,40,37)          4.5654         estimate D2E/DX2                !
 ! D153  D(47,18,40,32)          5.4036         estimate D2E/DX2                !
 ! D154  D(47,18,40,37)        153.8131         estimate D2E/DX2                !
 ! D155  D(19,18,47,44)        144.9316         estimate D2E/DX2                !
 ! D156  D(19,18,47,49)         -0.9908         estimate D2E/DX2                !
 ! D157  D(40,18,47,44)        -10.1743         estimate D2E/DX2                !
 ! D158  D(40,18,47,49)       -156.0967         estimate D2E/DX2                !
 ! D159  D(18,19,20,45)          0.0001         estimate D2E/DX2                !
 ! D160  D(18,19,20,54)        148.3243         estimate D2E/DX2                !
 ! D161  D(51,19,20,45)       -148.3243         estimate D2E/DX2                !
 ! D162  D(51,19,20,54)         -0.0001         estimate D2E/DX2                !
 ! D163  D(18,19,51,49)         -5.1609         estimate D2E/DX2                !
 ! D164  D(18,19,51,52)       -150.8513         estimate D2E/DX2                !
 ! D165  D(20,19,51,49)        149.212          estimate D2E/DX2                !
 ! D166  D(20,19,51,52)          3.5215         estimate D2E/DX2                !
 ! D167  D(19,20,45,14)        147.3653         estimate D2E/DX2                !
 ! D168  D(19,20,45,46)         -4.7487         estimate D2E/DX2                !
 ! D169  D(54,20,45,14)         -3.7396         estimate D2E/DX2                !
 ! D170  D(54,20,45,46)       -155.8535         estimate D2E/DX2                !
 ! D171  D(19,20,54,53)         -3.5214         estimate D2E/DX2                !
 ! D172  D(19,20,54,55)       -149.2118         estimate D2E/DX2                !
 ! D173  D(45,20,54,53)        150.8513         estimate D2E/DX2                !
 ! D174  D(45,20,54,55)          5.1609         estimate D2E/DX2                !
 ! D175  D(10,21,22,23)         17.0226         estimate D2E/DX2                !
 ! D176  D(10,21,22,56)        162.2462         estimate D2E/DX2                !
 ! D177  D(50,21,22,23)       -131.4699         estimate D2E/DX2                !
 ! D178  D(50,21,22,56)         13.7537         estimate D2E/DX2                !
 ! D179  D(10,21,50,33)         -0.0036         estimate D2E/DX2                !
 ! D180  D(10,21,50,48)       -143.7904         estimate D2E/DX2                !
 ! D181  D(22,21,50,33)        143.7849         estimate D2E/DX2                !
 ! D182  D(22,21,50,48)         -0.0019         estimate D2E/DX2                !
 ! D183  D(21,22,23,7)          -6.0223         estimate D2E/DX2                !
 ! D184  D(21,22,23,24)        148.6874         estimate D2E/DX2                !
 ! D185  D(56,22,23,7)        -150.4792         estimate D2E/DX2                !
 ! D186  D(56,22,23,24)          4.2306         estimate D2E/DX2                !
 ! D187  D(21,22,56,17)        -13.6875         estimate D2E/DX2                !
 ! D188  D(21,22,56,57)       -150.5393         estimate D2E/DX2                !
 ! D189  D(23,22,56,17)        127.3406         estimate D2E/DX2                !
 ! D190  D(23,22,56,57)         -9.5113         estimate D2E/DX2                !
 ! D191  D(7,23,24,15)         153.8172         estimate D2E/DX2                !
 ! D192  D(7,23,24,25)           4.5723         estimate D2E/DX2                !
 ! D193  D(22,23,24,15)          5.4017         estimate D2E/DX2                !
 ! D194  D(22,23,24,25)       -143.8432         estimate D2E/DX2                !
 ! D195  D(15,24,25,13)          3.7412         estimate D2E/DX2                !
 ! D196  D(15,24,25,26)       -147.3652         estimate D2E/DX2                !
 ! D197  D(23,24,25,13)        155.8535         estimate D2E/DX2                !
 ! D198  D(23,24,25,26)          4.7472         estimate D2E/DX2                !
 ! D199  D(13,25,26,4)           0.0001         estimate D2E/DX2                !
 ! D200  D(13,25,26,27)       -148.3262         estimate D2E/DX2                !
 ! D201  D(24,25,26,4)         148.3261         estimate D2E/DX2                !
 ! D202  D(24,25,26,27)         -0.0001         estimate D2E/DX2                !
 ! D203  D(4,26,27,28)        -155.8536         estimate D2E/DX2                !
 ! D204  D(4,26,27,38)          -3.7411         estimate D2E/DX2                !
 ! D205  D(25,26,27,28)         -4.7471         estimate D2E/DX2                !
 ! D206  D(25,26,27,38)        147.3654         estimate D2E/DX2                !
 ! D207  D(26,27,28,7)          -4.5721         estimate D2E/DX2                !
 ! D208  D(26,27,28,29)        143.8431         estimate D2E/DX2                !
 ! D209  D(38,27,28,7)        -153.8171         estimate D2E/DX2                !
 ! D210  D(38,27,28,29)         -5.402          estimate D2E/DX2                !
 ! D211  D(26,27,38,36)       -144.9315         estimate D2E/DX2                !
 ! D212  D(26,27,38,39)          0.9927         estimate D2E/DX2                !
 ! D213  D(28,27,38,36)         10.1717         estimate D2E/DX2                !
 ! D214  D(28,27,38,39)        156.0959         estimate D2E/DX2                !
 ! D215  D(7,28,29,30)           6.0222         estimate D2E/DX2                !
 ! D216  D(7,28,29,35)         150.4791         estimate D2E/DX2                !
 ! D217  D(27,28,29,30)       -148.6873         estimate D2E/DX2                !
 ! D218  D(27,28,29,35)         -4.2304         estimate D2E/DX2                !
 ! D219  D(28,29,30,10)        -17.0226         estimate D2E/DX2                !
 ! D220  D(28,29,30,31)        131.47           estimate D2E/DX2                !
 ! D221  D(35,29,30,10)       -162.2461         estimate D2E/DX2                !
 ! D222  D(35,29,30,31)        -13.7536         estimate D2E/DX2                !
 ! D223  D(28,29,35,34)       -127.3406         estimate D2E/DX2                !
 ! D224  D(28,29,35,36)          9.5112         estimate D2E/DX2                !
 ! D225  D(30,29,35,34)         13.6874         estimate D2E/DX2                !
 ! D226  D(30,29,35,36)        150.5393         estimate D2E/DX2                !
 ! D227  D(10,30,31,32)        143.7904         estimate D2E/DX2                !
 ! D228  D(10,30,31,33)          0.0036         estimate D2E/DX2                !
 ! D229  D(29,30,31,32)          0.0019         estimate D2E/DX2                !
 ! D230  D(29,30,31,33)       -143.7849         estimate D2E/DX2                !
 ! D231  D(30,31,32,34)         13.751          estimate D2E/DX2                !
 ! D232  D(30,31,32,40)       -131.4734         estimate D2E/DX2                !
 ! D233  D(33,31,32,34)        162.2451         estimate D2E/DX2                !
 ! D234  D(33,31,32,40)         17.0208         estimate D2E/DX2                !
 ! D235  D(30,31,33,37)        127.4625         estimate D2E/DX2                !
 ! D236  D(30,31,33,50)         20.9784         estimate D2E/DX2                !
 ! D237  D(30,31,33,68)       -109.367          estimate D2E/DX2                !
 ! D238  D(32,31,33,37)        -19.8702         estimate D2E/DX2                !
 ! D239  D(32,31,33,50)       -126.3543         estimate D2E/DX2                !
 ! D240  D(32,31,33,68)        103.3002         estimate D2E/DX2                !
 ! D241  D(31,32,34,35)        -13.6873         estimate D2E/DX2                !
 ! D242  D(31,32,34,44)       -150.5394         estimate D2E/DX2                !
 ! D243  D(40,32,34,35)        127.3409         estimate D2E/DX2                !
 ! D244  D(40,32,34,44)         -9.5113         estimate D2E/DX2                !
 ! D245  D(31,32,40,18)        148.6875         estimate D2E/DX2                !
 ! D246  D(31,32,40,37)         -6.0182         estimate D2E/DX2                !
 ! D247  D(34,32,40,18)          4.2301         estimate D2E/DX2                !
 ! D248  D(34,32,40,37)       -150.4755         estimate D2E/DX2                !
 ! D249  D(31,33,37,40)         16.552          estimate D2E/DX2                !
 ! D250  D(31,33,37,46)       -130.2813         estimate D2E/DX2                !
 ! D251  D(50,33,37,40)        130.2814         estimate D2E/DX2                !
 ! D252  D(50,33,37,46)        -16.5519         estimate D2E/DX2                !
 ! D253  D(68,33,37,40)       -106.5834         estimate D2E/DX2                !
 ! D254  D(68,33,37,46)        106.5834         estimate D2E/DX2                !
 ! D255  D(31,33,50,21)        -20.9784         estimate D2E/DX2                !
 ! D256  D(31,33,50,48)        126.3543         estimate D2E/DX2                !
 ! D257  D(37,33,50,21)       -127.4625         estimate D2E/DX2                !
 ! D258  D(37,33,50,48)         19.8702         estimate D2E/DX2                !
 ! D259  D(68,33,50,21)        109.3671         estimate D2E/DX2                !
 ! D260  D(68,33,50,48)       -103.3002         estimate D2E/DX2                !
 ! D261  D(32,34,35,29)          0.0005         estimate D2E/DX2                !
 ! D262  D(32,34,35,36)       -141.6821         estimate D2E/DX2                !
 ! D263  D(44,34,35,29)        141.6826         estimate D2E/DX2                !
 ! D264  D(44,34,35,36)          0.0            estimate D2E/DX2                !
 ! D265  D(32,34,44,43)        146.0737         estimate D2E/DX2                !
 ! D266  D(32,34,44,47)          4.8706         estimate D2E/DX2                !
 ! D267  D(35,34,44,43)          4.7356         estimate D2E/DX2                !
 ! D268  D(35,34,44,47)       -136.4675         estimate D2E/DX2                !
 ! D269  D(29,35,36,38)         -4.8715         estimate D2E/DX2                !
 ! D270  D(29,35,36,43)       -146.0729         estimate D2E/DX2                !
 ! D271  D(34,35,36,38)        136.4657         estimate D2E/DX2                !
 ! D272  D(34,35,36,43)         -4.7356         estimate D2E/DX2                !
 ! D273  D(35,36,38,27)         -4.9992         estimate D2E/DX2                !
 ! D274  D(35,36,38,39)       -147.6664         estimate D2E/DX2                !
 ! D275  D(43,36,38,27)        131.9202         estimate D2E/DX2                !
 ! D276  D(43,36,38,39)        -10.747          estimate D2E/DX2                !
 ! D277  D(35,36,43,42)        148.8264         estimate D2E/DX2                !
 ! D278  D(35,36,43,44)          7.5612         estimate D2E/DX2                !
 ! D279  D(38,36,43,42)          8.3018         estimate D2E/DX2                !
 ! D280  D(38,36,43,44)       -132.9634         estimate D2E/DX2                !
 ! D281  D(33,37,40,18)       -158.3616         estimate D2E/DX2                !
 ! D282  D(33,37,40,32)         -7.1902         estimate D2E/DX2                !
 ! D283  D(46,37,40,18)        -18.8692         estimate D2E/DX2                !
 ! D284  D(46,37,40,32)        132.3022         estimate D2E/DX2                !
 ! D285  D(33,37,46,45)        158.3618         estimate D2E/DX2                !
 ! D286  D(33,37,46,48)          7.1901         estimate D2E/DX2                !
 ! D287  D(40,37,46,45)         18.8694         estimate D2E/DX2                !
 ! D288  D(40,37,46,48)       -132.3023         estimate D2E/DX2                !
 ! D289  D(27,38,39,4)           2.1869         estimate D2E/DX2                !
 ! D290  D(27,38,39,41)       -142.3487         estimate D2E/DX2                !
 ! D291  D(36,38,39,4)         149.2529         estimate D2E/DX2                !
 ! D292  D(36,38,39,41)          4.7173         estimate D2E/DX2                !
 ! D293  D(4,39,41,1)            0.8732         estimate D2E/DX2                !
 ! D294  D(4,39,41,42)        -135.9929         estimate D2E/DX2                !
 ! D295  D(38,39,41,1)         140.7541         estimate D2E/DX2                !
 ! D296  D(38,39,41,42)          3.888          estimate D2E/DX2                !
 ! D297  D(1,41,42,43)        -147.4856         estimate D2E/DX2                !
 ! D298  D(1,41,42,66)          -6.0895         estimate D2E/DX2                !
 ! D299  D(39,41,42,43)         -6.3879         estimate D2E/DX2                !
 ! D300  D(39,41,42,66)        135.0083         estimate D2E/DX2                !
 ! D301  D(41,42,43,36)          0.3696         estimate D2E/DX2                !
 ! D302  D(41,42,43,44)        136.4124         estimate D2E/DX2                !
 ! D303  D(66,42,43,36)       -136.4128         estimate D2E/DX2                !
 ! D304  D(66,42,43,44)         -0.37           estimate D2E/DX2                !
 ! D305  D(41,42,66,49)       -135.0083         estimate D2E/DX2                !
 ! D306  D(41,42,66,65)          6.0892         estimate D2E/DX2                !
 ! D307  D(43,42,66,49)          6.3878         estimate D2E/DX2                !
 ! D308  D(43,42,66,65)        147.4853         estimate D2E/DX2                !
 ! D309  D(36,43,44,34)         -7.5611         estimate D2E/DX2                !
 ! D310  D(36,43,44,47)        132.9648         estimate D2E/DX2                !
 ! D311  D(42,43,44,34)       -148.8268         estimate D2E/DX2                !
 ! D312  D(42,43,44,47)         -8.3008         estimate D2E/DX2                !
 ! D313  D(34,44,47,18)          5.0014         estimate D2E/DX2                !
 ! D314  D(34,44,47,49)        147.6664         estimate D2E/DX2                !
 ! D315  D(43,44,47,18)       -131.9192         estimate D2E/DX2                !
 ! D316  D(43,44,47,49)         10.7458         estimate D2E/DX2                !
 ! D317  D(14,45,46,37)       -153.8132         estimate D2E/DX2                !
 ! D318  D(14,45,46,48)         -5.4033         estimate D2E/DX2                !
 ! D319  D(20,45,46,37)         -4.5657         estimate D2E/DX2                !
 ! D320  D(20,45,46,48)        143.8442         estimate D2E/DX2                !
 ! D321  D(37,46,48,17)        150.4756         estimate D2E/DX2                !
 ! D322  D(37,46,48,50)          6.0183         estimate D2E/DX2                !
 ! D323  D(45,46,48,17)         -4.2303         estimate D2E/DX2                !
 ! D324  D(45,46,48,50)       -148.6876         estimate D2E/DX2                !
 ! D325  D(18,47,49,51)         -2.1882         estimate D2E/DX2                !
 ! D326  D(18,47,49,66)        142.348          estimate D2E/DX2                !
 ! D327  D(44,47,49,51)       -149.2527         estimate D2E/DX2                !
 ! D328  D(44,47,49,66)         -4.7165         estimate D2E/DX2                !
 ! D329  D(17,48,50,21)        -13.751          estimate D2E/DX2                !
 ! D330  D(17,48,50,33)       -162.2451         estimate D2E/DX2                !
 ! D331  D(46,48,50,21)        131.4733         estimate D2E/DX2                !
 ! D332  D(46,48,50,33)        -17.0208         estimate D2E/DX2                !
 ! D333  D(47,49,51,19)          4.5623         estimate D2E/DX2                !
 ! D334  D(47,49,51,52)        151.5449         estimate D2E/DX2                !
 ! D335  D(66,49,51,19)       -139.886          estimate D2E/DX2                !
 ! D336  D(66,49,51,52)          7.0965         estimate D2E/DX2                !
 ! D337  D(47,49,66,42)         -3.8881         estimate D2E/DX2                !
 ! D338  D(47,49,66,65)       -140.7544         estimate D2E/DX2                !
 ! D339  D(51,49,66,42)        135.9933         estimate D2E/DX2                !
 ! D340  D(51,49,66,65)         -0.8731         estimate D2E/DX2                !
 ! D341  D(19,51,52,53)         -3.5417         estimate D2E/DX2                !
 ! D342  D(19,51,52,64)        134.4384         estimate D2E/DX2                !
 ! D343  D(49,51,52,53)       -145.8813         estimate D2E/DX2                !
 ! D344  D(49,51,52,64)         -7.9012         estimate D2E/DX2                !
 ! D345  D(51,52,53,54)          0.0            estimate D2E/DX2                !
 ! D346  D(51,52,53,62)        142.4123         estimate D2E/DX2                !
 ! D347  D(64,52,53,54)       -142.4123         estimate D2E/DX2                !
 ! D348  D(64,52,53,62)          0.0            estimate D2E/DX2                !
 ! D349  D(51,52,64,63)       -139.8718         estimate D2E/DX2                !
 ! D350  D(51,52,64,65)          2.5342         estimate D2E/DX2                !
 ! D351  D(53,52,64,63)          2.0286         estimate D2E/DX2                !
 ! D352  D(53,52,64,65)        144.4345         estimate D2E/DX2                !
 ! D353  D(52,53,54,20)          3.5417         estimate D2E/DX2                !
 ! D354  D(52,53,54,55)        145.8813         estimate D2E/DX2                !
 ! D355  D(62,53,54,20)       -134.4384         estimate D2E/DX2                !
 ! D356  D(62,53,54,55)          7.9011         estimate D2E/DX2                !
 ! D357  D(52,53,62,61)       -144.4346         estimate D2E/DX2                !
 ! D358  D(52,53,62,63)         -2.0286         estimate D2E/DX2                !
 ! D359  D(54,53,62,61)         -2.5342         estimate D2E/DX2                !
 ! D360  D(54,53,62,63)        139.8718         estimate D2E/DX2                !
 ! D361  D(20,54,55,14)         -4.5623         estimate D2E/DX2                !
 ! D362  D(20,54,55,60)        139.8861         estimate D2E/DX2                !
 ! D363  D(53,54,55,14)       -151.5448         estimate D2E/DX2                !
 ! D364  D(53,54,55,60)         -7.0965         estimate D2E/DX2                !
 ! D365  D(14,55,60,59)          3.8881         estimate D2E/DX2                !
 ! D366  D(14,55,60,61)        140.7544         estimate D2E/DX2                !
 ! D367  D(54,55,60,59)       -135.9933         estimate D2E/DX2                !
 ! D368  D(54,55,60,61)          0.873          estimate D2E/DX2                !
 ! D369  D(17,56,57,15)       -136.4658         estimate D2E/DX2                !
 ! D370  D(17,56,57,58)          4.7356         estimate D2E/DX2                !
 ! D371  D(22,56,57,15)          4.8715         estimate D2E/DX2                !
 ! D372  D(22,56,57,58)        146.0729         estimate D2E/DX2                !
 ! D373  D(15,57,58,16)        132.9634         estimate D2E/DX2                !
 ! D374  D(15,57,58,59)         -8.3018         estimate D2E/DX2                !
 ! D375  D(56,57,58,16)         -7.5612         estimate D2E/DX2                !
 ! D376  D(56,57,58,59)       -148.8264         estimate D2E/DX2                !
 ! D377  D(16,58,59,11)       -136.4125         estimate D2E/DX2                !
 ! D378  D(16,58,59,60)          0.37           estimate D2E/DX2                !
 ! D379  D(57,58,59,11)         -0.3696         estimate D2E/DX2                !
 ! D380  D(57,58,59,60)        136.4129         estimate D2E/DX2                !
 ! D381  D(11,59,60,55)        135.0083         estimate D2E/DX2                !
 ! D382  D(11,59,60,61)         -6.0892         estimate D2E/DX2                !
 ! D383  D(58,59,60,55)         -6.3878         estimate D2E/DX2                !
 ! D384  D(58,59,60,61)       -147.4853         estimate D2E/DX2                !
 ! D385  D(55,60,61,9)        -137.3861         estimate D2E/DX2                !
 ! D386  D(55,60,61,62)          4.5817         estimate D2E/DX2                !
 ! D387  D(59,60,61,9)           3.7677         estimate D2E/DX2                !
 ! D388  D(59,60,61,62)        145.7355         estimate D2E/DX2                !
 ! D389  D(9,61,62,53)         133.6359         estimate D2E/DX2                !
 ! D390  D(9,61,62,63)          -4.0016         estimate D2E/DX2                !
 ! D391  D(60,61,62,53)         -3.7646         estimate D2E/DX2                !
 ! D392  D(60,61,62,63)       -141.4021         estimate D2E/DX2                !
 ! D393  D(53,62,63,8)        -138.2173         estimate D2E/DX2                !
 ! D394  D(53,62,63,64)          3.2673         estimate D2E/DX2                !
 ! D395  D(61,62,63,8)           3.9946         estimate D2E/DX2                !
 ! D396  D(61,62,63,64)        145.4792         estimate D2E/DX2                !
 ! D397  D(8,63,64,52)         138.2173         estimate D2E/DX2                !
 ! D398  D(8,63,64,65)          -3.9946         estimate D2E/DX2                !
 ! D399  D(62,63,64,52)         -3.2674         estimate D2E/DX2                !
 ! D400  D(62,63,64,65)       -145.4792         estimate D2E/DX2                !
 ! D401  D(52,64,65,1)        -133.6359         estimate D2E/DX2                !
 ! D402  D(52,64,65,66)          3.7646         estimate D2E/DX2                !
 ! D403  D(63,64,65,1)           4.0016         estimate D2E/DX2                !
 ! D404  D(63,64,65,66)        141.4021         estimate D2E/DX2                !
 ! D405  D(1,65,66,42)          -3.7678         estimate D2E/DX2                !
 ! D406  D(1,65,66,49)         137.3861         estimate D2E/DX2                !
 ! D407  D(64,65,66,42)       -145.7356         estimate D2E/DX2                !
 ! D408  D(64,65,66,49)         -4.5818         estimate D2E/DX2                !
 --------------------------------------------------------------------------------
 Trust Radius=3.00D-01 FncErr=1.00D-07 GrdErr=1.00D-06 EigMax=2.50D+02 EigMin=1.00D-04
 Number of steps in this run=    408 maximum allowed number of steps=    408.
 GradGradGradGradGradGradGradGradGradGradGradGradGradGradGradGradGradGrad

 Leave Link  103 at Thu Jul 21 01:58:26 2022, MaxMem=  1342177280 cpu:               1.7 elap:               0.0
 (Enter /home/mkliu/g16/l202.exe)
 Stoichiometry    C66H2
 Framework group  C1[X(C66H2)]
 Deg. of freedom   198
 Full point group                 C1      NOp   1
 Largest Abelian subgroup         C1      NOp   1
 Largest concise Abelian subgroup C1      NOp   1
                         Standard orientation:                         
 ---------------------------------------------------------------------
 Center     Atomic      Atomic             Coordinates (Angstroms)
 Number     Number       Type             X           Y           Z
 ---------------------------------------------------------------------
      1          6           0        3.091921    2.313162   -0.718964
      2          6           0        3.454358    1.166627   -1.409437
      3          6           0        2.651626    0.710452   -2.512965
      4          6           0        1.480622    1.388259   -2.857125
      5          6           0        2.651628   -0.710444   -2.512966
      6          6           0        3.454363   -1.166616   -1.409437
      7          6           0       -2.786410   -0.000004   -2.426982
      8          6           0        3.914355    0.000006   -0.694240
      9          6           0        3.091930   -2.313153   -0.718965
     10          6           0       -4.003938   -0.000006   -1.499589
     11          6           0        1.958656   -3.091652   -1.157400
     12          6           0        1.181023   -2.627374   -2.216869
     13          6           0        1.480628   -1.388254   -2.857127
     14          6           0       -0.247803   -2.770825    2.195027
     15          6           0       -0.247839   -2.770818   -2.195022
     16          6           0       -0.844864   -3.468246    1.148552
     17          6           0       -2.150905   -3.057072    0.714898
     18          6           0       -0.847870    1.600885    2.774091
     19          6           0        0.241527    0.699320    3.142744
     20          6           0        0.241529   -0.699320    3.142746
     21          6           0       -3.746654   -1.233670   -0.683293
     22          6           0       -2.827920   -2.061181   -1.394533
     23          6           0       -2.165983   -1.268376   -2.424595
     24          6           0       -0.847923   -1.600909   -2.774080
     25          6           0        0.241474   -0.699313   -3.142720
     26          6           0        0.241472    0.699314   -3.142719
     27          6           0       -0.847928    1.600907   -2.774079
     28          6           0       -2.165988    1.268370   -2.424596
     29          6           0       -2.827927    2.061173   -1.394534
     30          6           0       -3.746658    1.233658   -0.683293
     31          6           0       -3.746639    1.233626    0.683352
     32          6           0       -2.827874    2.061177    1.394567
     33          6           0       -4.003803   -0.000006    1.499718
     34          6           0       -2.150915    3.057065    0.714899
     35          6           0       -2.150929    3.057074   -0.714885
     36          6           0       -0.844906    3.468255   -1.148548
     37          6           0       -2.786337   -0.000005    2.426910
     38          6           0       -0.247848    2.770818   -2.195022
     39          6           0        1.181013    2.627378   -2.216868
     40          6           0       -2.165917    1.268379    2.424623
     41          6           0        1.958645    3.091658   -1.157399
     42          6           0        1.315678    3.641886   -0.000007
     43          6           0       -0.067850    3.830269   -0.000003
     44          6           0       -0.844876    3.468244    1.148552
     45          6           0       -0.847864   -1.600888    2.774093
     46          6           0       -2.165912   -1.268385    2.424621
     47          6           0       -0.247812    2.770825    2.195028
     48          6           0       -2.827867   -2.061186    1.394566
     49          6           0        1.181048    2.627382    2.216859
     50          6           0       -3.746635   -1.233638    0.683351
     51          6           0        1.480669    1.388279    2.857125
[...]
 Alpha virt. eigenvalues --    0.78745   0.79339   0.79702   0.79803   0.80158
 Alpha virt. eigenvalues --    0.81039   0.81412   0.81961   0.82269   0.82814
 Alpha virt. eigenvalues --    0.82977   0.83088   0.83149   0.83524   0.84387
 Alpha virt. eigenvalues --    0.84935   0.84977   0.85163   0.85332   0.85475
 Alpha virt. eigenvalues --    0.86395   0.86867   0.87019   0.87650   0.88597
 Alpha virt. eigenvalues --    0.89495   0.89513   0.89561   0.89658   0.91047
 Alpha virt. eigenvalues --    0.91406   0.92091   0.92767   0.92920   0.93139
 Alpha virt. eigenvalues --    0.93529   0.93929   0.93969   0.94039   0.94252
 Alpha virt. eigenvalues --    0.94579   0.95005   0.95106   0.95841   0.96181
 Alpha virt. eigenvalues --    0.96457   0.96726   0.97361   0.97567   0.98506
 Alpha virt. eigenvalues --    0.99020   0.99329   0.99360   1.01103   1.01593
 Alpha virt. eigenvalues --    1.01602   1.01910   1.02053   1.02381   1.02565
 Alpha virt. eigenvalues --    1.03583   1.04247   1.04564   1.04780   1.05216
 Alpha virt. eigenvalues --    1.06187   1.06332   1.06520   1.06705   1.06968
 Alpha virt. eigenvalues --    1.07545   1.07830   1.08216   1.08705   1.08996
 Alpha virt. eigenvalues --    1.09076   1.09392   1.09784   1.10451   1.10609
 Alpha virt. eigenvalues --    1.11471   1.12324   1.12971   1.13060   1.13253
 Alpha virt. eigenvalues --    1.14178   1.14396   1.14476   1.15228   1.15649
 Alpha virt. eigenvalues --    1.15779   1.16779   1.17715   1.17902   1.18181
 Alpha virt. eigenvalues --    1.18886   1.19300   1.19795   1.20299   1.20724
 Alpha virt. eigenvalues --    1.20737   1.21078   1.22284   1.22365   1.23252
 Alpha virt. eigenvalues --    1.23435   1.24015   1.24822   1.25126   1.25538
 Alpha virt. eigenvalues --    1.25576   1.25964   1.26113   1.26542   1.27006
 Alpha virt. eigenvalues --    1.27335   1.28152   1.28359   1.29207   1.29963
 Alpha virt. eigenvalues --    1.30219   1.30703   1.31043   1.31511   1.32181
 Alpha virt. eigenvalues --    1.32674   1.33372   1.33625   1.33769   1.33945
 Alpha virt. eigenvalues --    1.34210   1.34992   1.34993   1.35345   1.35632
 Alpha virt. eigenvalues --    1.35809   1.36124   1.37229   1.37666   1.37732
 Alpha virt. eigenvalues --    1.37810   1.38187   1.38459   1.38593   1.39487
 Alpha virt. eigenvalues --    1.39758   1.39890   1.40171   1.40819   1.40845
 Alpha virt. eigenvalues --    1.41666   1.41748   1.41822   1.42061   1.42822
 Alpha virt. eigenvalues --    1.42844   1.42874   1.42966   1.43653   1.43890
 Alpha virt. eigenvalues --    1.44319   1.44616   1.44848   1.45072   1.45254
 Alpha virt. eigenvalues --    1.45673   1.45823   1.46387   1.46515   1.46796
 Alpha virt. eigenvalues --    1.46878   1.47127   1.47274   1.47557   1.47645
 Alpha virt. eigenvalues --    1.47674   1.48203   1.48803   1.49070   1.49336
 Alpha virt. eigenvalues --    1.49430   1.49583   1.49597   1.49942   1.50420
 Alpha virt. eigenvalues --    1.50550   1.50705   1.50805   1.51520   1.51801
 Alpha virt. eigenvalues --    1.52091   1.52361   1.52646   1.52890   1.53161
 Alpha virt. eigenvalues --    1.53161   1.53879   1.54063   1.54328   1.55074
 Alpha virt. eigenvalues --    1.55222   1.55405   1.55734   1.55800   1.56047
 Alpha virt. eigenvalues --    1.56360   1.56544   1.57492   1.58003   1.59339
 Alpha virt. eigenvalues --    1.59596   1.60370   1.60487   1.60684   1.60844
 Alpha virt. eigenvalues --    1.62002   1.62357   1.62847   1.63345   1.63380
 Alpha virt. eigenvalues --    1.63532   1.63850   1.64237   1.64924   1.65652
 Alpha virt. eigenvalues --    1.66739   1.67040   1.67096   1.67541   1.67761
 Alpha virt. eigenvalues --    1.67914   1.67929   1.68427   1.69048   1.69396
 Alpha virt. eigenvalues --    1.70538   1.70628   1.70721   1.70757   1.71112
 Alpha virt. eigenvalues --    1.72311   1.72502   1.73503   1.73973   1.74083
 Alpha virt. eigenvalues --    1.74243   1.74731   1.75606   1.75720   1.75802
 Alpha virt. eigenvalues --    1.76216   1.76700   1.77070   1.77339   1.77756
 Alpha virt. eigenvalues --    1.78230   1.78263   1.78307   1.78816   1.79037
 Alpha virt. eigenvalues --    1.80371   1.80397   1.80913   1.81248   1.81536
 Alpha virt. eigenvalues --    1.81796   1.82306   1.82665   1.83675   1.83770
 Alpha virt. eigenvalues --    1.84137   1.84746   1.85433   1.85855   1.85986
 Alpha virt. eigenvalues --    1.86399   1.88088   1.88405   1.88808   1.89516
 Alpha virt. eigenvalues --    1.90003   1.90005   1.90016   1.90576   1.91152
 Alpha virt. eigenvalues --    1.91164   1.91950   1.92536   1.92704   1.93149
 Alpha virt. eigenvalues --    1.93365   1.93374   1.94026   1.94413   1.94643
 Alpha virt. eigenvalues --    1.94835   1.96124   1.97966   1.98530   1.98922
 Alpha virt. eigenvalues --    2.00013   2.00274   2.00891   2.00994   2.01143
 Alpha virt. eigenvalues --    2.01459   2.01921   2.02151   2.02213   2.02922
 Alpha virt. eigenvalues --    2.03552   2.04067   2.04105   2.04577   2.04748
 Alpha virt. eigenvalues --    2.04804   2.04975   2.05436   2.05607   2.06302
 Alpha virt. eigenvalues --    2.07743   2.07906   2.08348   2.08814   2.09222
 Alpha virt. eigenvalues --    2.09990   2.10093   2.10095   2.10178   2.11559
 Alpha virt. eigenvalues --    2.11884   2.12491   2.12558   2.12770   2.14363
 Alpha virt. eigenvalues --    2.15400   2.16278   2.16550   2.17504   2.17833
 Alpha virt. eigenvalues --    2.17917   2.19702   2.19867   2.20464   2.21201
 Alpha virt. eigenvalues --    2.21524   2.22283   2.23061   2.23172   2.23311
 Alpha virt. eigenvalues --    2.23977   2.24006   2.24984   2.25152   2.25179
 Alpha virt. eigenvalues --    2.25306   2.26108   2.26729   2.27274   2.28127
 Alpha virt. eigenvalues --    2.28679   2.29121   2.29807   2.30039   2.30792
 Alpha virt. eigenvalues --    2.31698   2.32019   2.32134   2.32767   2.32910
 Alpha virt. eigenvalues --    2.34705   2.34756   2.36499   2.37181   2.37197
 Alpha virt. eigenvalues --    2.37346   2.38765   2.39082   2.39086   2.40560
 Alpha virt. eigenvalues --    2.40574   2.40576   2.41102   2.41713   2.42188
 Alpha virt. eigenvalues --    2.42283   2.42358   2.42713   2.43362   2.44933
 Alpha virt. eigenvalues --    2.45282   2.45284   2.46215   2.46306   2.46313
 Alpha virt. eigenvalues --    2.46627   2.47288   2.48311   2.48638   2.49130
 Alpha virt. eigenvalues --    2.49175   2.50824   2.51338   2.53028   2.53135
 Alpha virt. eigenvalues --    2.53747   2.53886   2.54772   2.55187   2.56127
 Alpha virt. eigenvalues --    2.56242   2.56456   2.56800   2.56953   2.57433
 Alpha virt. eigenvalues --    2.57443   2.57637   2.58021   2.59110   2.59639
 Alpha virt. eigenvalues --    2.59996   2.60167   2.60308   2.61098   2.61354
 Alpha virt. eigenvalues --    2.61578   2.62206   2.63324   2.63510   2.64586
 Alpha virt. eigenvalues --    2.64974   2.65174   2.65975   2.66065   2.66878
 Alpha virt. eigenvalues --    2.66914   2.69474   2.69931   2.70231   2.70732
 Alpha virt. eigenvalues --    2.70924   2.71287   2.72620   2.73574   2.74560
 Alpha virt. eigenvalues --    2.74783   2.74835   2.77455   2.78655   2.79314
 Alpha virt. eigenvalues --    2.79471   2.79769   2.79805   2.80911   2.81540
 Alpha virt. eigenvalues --    2.82355   2.83690   2.83977   2.84044   2.84923
 Alpha virt. eigenvalues --    2.85017   2.85967   2.87233   2.87615   2.88204
 Alpha virt. eigenvalues --    2.89089   2.89417   2.90829   2.91823   2.92382
 Alpha virt. eigenvalues --    2.92972   2.93289   2.93699   2.94652   2.95419
 Alpha virt. eigenvalues --    2.96568   2.97729   2.97767   2.98305   2.98432
 Alpha virt. eigenvalues --    2.98723   2.99013   2.99248   2.99884   2.99995
 Alpha virt. eigenvalues --    3.00334   3.00966   3.01193   3.01281   3.01849
 Alpha virt. eigenvalues --    3.02259   3.03344   3.03515   3.03616   3.03618
 Alpha virt. eigenvalues --    3.04234   3.04351   3.04817   3.05305   3.05312
 Alpha virt. eigenvalues --    3.05570   3.05592   3.05695   3.06557   3.06670
 Alpha virt. eigenvalues --    3.06962   3.07403   3.07696   3.08149   3.08211
 Alpha virt. eigenvalues --    3.09844   3.09910   3.09953   3.09985   3.11118
 Alpha virt. eigenvalues --    3.11145   3.11338   3.11572   3.12481   3.12803
 Alpha virt. eigenvalues --    3.13296   3.13558   3.13981   3.14175   3.14523
 Alpha virt. eigenvalues --    3.14715   3.14878   3.15120   3.15231   3.15565
 Alpha virt. eigenvalues --    3.15946   3.16212   3.16458   3.16874   3.17170
 Alpha virt. eigenvalues --    3.17182   3.17798   3.18111   3.19670   3.19909
 Alpha virt. eigenvalues --    3.19956   3.20549   3.20568   3.21316   3.21443
 Alpha virt. eigenvalues --    3.23417   3.25127   3.28773   3.30394   3.31941
 Alpha virt. eigenvalues --    3.36604   3.37593   3.37785   3.37934   3.42334
 Alpha virt. eigenvalues --    3.42385   3.46565   3.48136   3.48722   3.48724
 Alpha virt. eigenvalues --    3.50546   3.51800   3.52034   3.52408   3.53853
 Alpha virt. eigenvalues --    3.54718   3.56068   3.56374   3.57189   3.57360
 Alpha virt. eigenvalues --    3.58084   3.59304   3.59568   3.60820   3.62111
 Alpha virt. eigenvalues --    3.62277   3.64076   3.65096   3.65332   3.65702
 Alpha virt. eigenvalues --    3.67828   3.69831   3.69895   3.70020   3.70213
 Alpha virt. eigenvalues --    3.71489   3.72257   3.74483   3.74814   3.75052
 Alpha virt. eigenvalues --    3.75914   3.76118   3.77749   3.81901   3.82584
 Alpha virt. eigenvalues --    3.84907   3.85097   3.85109   3.86123   3.87174
 Alpha virt. eigenvalues --    3.87633   3.87981   3.89292   3.89575   3.89845
 Alpha virt. eigenvalues --    3.90753   3.91402   3.91908   3.92138   3.92355
 Alpha virt. eigenvalues --    3.93179   3.95032   3.95959   4.01797   4.07568
 Alpha virt. eigenvalues --    4.09748   4.22287   4.23221   4.24457   4.27132
 Alpha virt. eigenvalues --    4.31580   4.34424   4.37557   4.38219   4.38626
 Alpha virt. eigenvalues --    4.40360   4.41493   4.43472   4.46001   4.56472
 Alpha virt. eigenvalues --    4.58767   4.61624   4.61890   4.63964   4.64109
 Alpha virt. eigenvalues --    4.68344   4.69191   4.72151   4.75670   4.78552
 Alpha virt. eigenvalues --    4.79360   4.88906   4.92674   4.95271   4.99599
 Alpha virt. eigenvalues --    4.99807   5.03014   5.05181   5.05281   5.05537
 Alpha virt. eigenvalues --   23.01554  23.20841  23.23761  23.24450  23.43237
 Alpha virt. eigenvalues --   23.47593  23.49293  23.49549  23.50094  23.63217
 Alpha virt. eigenvalues --   23.64717  23.69160  23.69252  23.72937  23.74713
 Alpha virt. eigenvalues --   23.75381  23.80479  23.81024  23.83194  23.83926
 Alpha virt. eigenvalues --   23.84671  23.86229  23.87679  23.88427  23.89791
 Alpha virt. eigenvalues --   23.90833  23.92446  23.93209  23.94245  23.94827
 Alpha virt. eigenvalues --   23.94896  23.94939  23.96690  23.96807  23.97796
 Alpha virt. eigenvalues --   23.97814  23.98594  23.99046  23.99683  23.99793
 Alpha virt. eigenvalues --   23.99987  24.00581  24.01489  24.01511  24.03082
 Alpha virt. eigenvalues --   24.05059  24.05160  24.06372  24.07055  24.08136
 Alpha virt. eigenvalues --   24.08809  24.09613  24.09702  24.09731  24.10622
 Alpha virt. eigenvalues --   24.10720  24.11096  24.11167  24.11642  24.11758
 Alpha virt. eigenvalues --   24.11859  24.13129  24.14296  24.14305  24.16681
 Alpha virt. eigenvalues --   24.17502
          Condensed to atoms (all electrons):
 Mulliken charges:
               1
     1  C   -0.006003
     2  C    0.001958
     3  C   -0.007364
     4  C   -0.011965
     5  C   -0.007364
     6  C    0.001958
     7  C   -0.043777
     8  C   -0.000683
     9  C   -0.006003
    10  C   -0.186217
    11  C    0.006954
    12  C   -0.004517
    13  C   -0.011965
    14  C   -0.002482
    15  C   -0.002483
    16  C    0.004297
    17  C   -0.009492
    18  C   -0.007490
    19  C    0.013574
    20  C    0.013574
    21  C    0.000711
    22  C    0.013951
    23  C    0.050420
    24  C   -0.007487
    25  C    0.013573
    26  C    0.013573
    27  C   -0.007487
    28  C    0.050420
    29  C    0.013951
    30  C    0.000711
    31  C    0.000711
    32  C    0.013950
    33  C   -0.186217
    34  C   -0.009492
    35  C   -0.009493
    36  C    0.004298
    37  C   -0.043777
    38  C   -0.002483
    39  C   -0.004517
    40  C    0.050422
    41  C    0.006954
    42  C   -0.018621
    43  C   -0.010501
    44  C    0.004297
    45  C   -0.007490
    46  C    0.050422
    47  C   -0.002482
    48  C    0.013950
    49  C   -0.004518
    50  C    0.000711
    51  C   -0.011965
    52  C   -0.007364
    53  C   -0.007364
    54  C   -0.011965
    55  C   -0.004518
    56  C   -0.009493
    57  C    0.004298
    58  C   -0.010501
    59  C   -0.018621
    60  C    0.006955
    61  C   -0.006003
    62  C    0.001958
    63  C   -0.000683
    64  C    0.001958
    65  C   -0.006003
    66  C    0.006955
    67  H    0.174693
    68  H    0.174693
 Sum of Mulliken charges =  -0.00000
 Mulliken charges with hydrogens summed into heavy atoms:
               1
     1  C   -0.006003
     2  C    0.001958
     3  C   -0.007364
     4  C   -0.011965
     5  C   -0.007364
     6  C    0.001958
     7  C   -0.043777
     8  C   -0.000683
     9  C   -0.006003
    10  C   -0.011523
    11  C    0.006954
    12  C   -0.004517
    13  C   -0.011965
    14  C   -0.002482
    15  C   -0.002483
    16  C    0.004297
    17  C   -0.009492
    18  C   -0.007490
    19  C    0.013574
    20  C    0.013574
    21  C    0.000711
    22  C    0.013951
    23  C    0.050420
    24  C   -0.007487
    25  C    0.013573
    26  C    0.013573
    27  C   -0.007487
    28  C    0.050420
    29  C    0.013951
    30  C    0.000711
    31  C    0.000711
    32  C    0.013950
    33  C   -0.011523
    34  C   -0.009492
    35  C   -0.009493
    36  C    0.004298
    37  C   -0.043777
    38  C   -0.002483
    39  C   -0.004517
    40  C    0.050422
    41  C    0.006954
    42  C   -0.018621
    43  C   -0.010501
    44  C    0.004297
    45  C   -0.007490
    46  C    0.050422
    47  C   -0.002482
    48  C    0.013950
    49  C   -0.004518
    50  C    0.000711
    51  C   -0.011965
    52  C   -0.007364
    53  C   -0.007364
    54  C   -0.011965
    55  C   -0.004518
    56  C   -0.009493
    57  C    0.004298
    58  C   -0.010501
    59  C   -0.018621
    60  C    0.006955
    61  C   -0.006003
    62  C    0.001958
    63  C   -0.000683
    64  C    0.001958
    65  C   -0.006003
    66  C    0.006955
 Electronic spatial extent (au):  <R**2>=          20827.4005
 Charge=             -0.0000 electrons
 Dipole moment (field-independent basis, Debye):
    X=             -4.5057    Y=             -0.0000    Z=              0.0000  Tot=              4.5057
 Quadrupole moment (field-independent basis, Debye-Ang):
   XX=           -354.8785   YY=           -376.2274   ZZ=           -368.4755
   XY=             -0.0000   XZ=             -0.0001   YZ=              0.0000
 Traceless Quadrupole moment (field-independent basis, Debye-Ang):
   XX=             11.6486   YY=             -9.7003   ZZ=             -1.9484
   XY=             -0.0000   XZ=             -0.0001   YZ=              0.0000
 Octapole moment (field-independent basis, Debye-Ang**2):
  XXX=           -119.3092  YYY=             -0.0000  ZZZ=              0.0004  XYY=             -7.2360
  XXY=             -0.0000  XXZ=              0.0001  XZZ=            -32.4084  YZZ=             -0.0000
  YYZ=              0.0000  XYZ=              0.0000
 Hexadecapole moment (field-independent basis, Debye-Ang**3):
 XXXX=         -12172.6948 YYYY=         -11206.1297 ZZZZ=          -8602.7873 XXXY=             -0.0000
 XXXZ=             -0.0005 YYYX=              0.0000 YYYZ=              0.0000 ZZZX=             -0.0010
 ZZZY=              0.0000 XXYY=          -4009.3724 XXZZ=          -3463.2649 YYZZ=          -3295.7769
 XXYZ=              0.0000 YYXZ=             -0.0002 ZZXY=              0.0000
 N-N= 9.745220429996D+03 E-N=-2.532516143978D+04  KE= 2.506278089138D+03
 No NMR shielding tensors so no spin-rotation constants.
 Leave Link  601 at Thu Jul 21 02:31:04 2022, MaxMem=  1342177280 cpu:              59.8 elap:               1.5
 (Enter /home/mkliu/g16/l9999.exe)
 1\1\GINC-NODE02\FOpt\RB3LYP\6-311G(d,p)\C66H2\MKLIU\21-Jul-2022\0\\#P 
 opt b3lyp/6-311G(d, p) empiricaldispersion=GD3\\force\\0,1\C,12.790681
 6376,12.0747969453,21.9067468629\C,12.7971615904,13.0222127121,22.9243
 523642\C,12.6775049424,14.429677419,22.6067338153\C,12.6022111897,14.8
 384510707,21.26778671\C,13.4808775139,15.1712539105,23.5209587554\C,14
 .1204442836,14.2437073839,24.4302266761\C,15.7089745357,17.1212721763,
 18.8704021473\C,13.7313673298,12.901456907,24.0311354223\C,15.40979205
 92,14.4924432922,24.8872521528\C,16.9190426205,16.9732828578,17.927100
 2276\C,16.0894629318,15.7211259537,24.516184539\C,15.465840675,16.6029
 772515,23.6221340218\C,14.1819622363,16.2966862615,23.0655177975\C,19.
 2380419194,14.0543436691,22.6022979685\C,16.237799966,17.2901795907,22
 .613992199\C,19.1935542762,15.4519551297,22.5857364127\C,19.2923007018
 ,16.1358630221,21.3195973935\C,17.4376913843,11.6031779527,19.31325446
 42\C,17.6857325677,11.3210331249,20.7400087898\C,18.4799537456,12.0541
 623012,21.643819552\C,18.0600150427,16.9196378911,18.9172909435\C,17.6
 11350147,17.4682784081,20.1620946303\C,16.1357598425,17.5172116794,20.
 1628042212\C,15.4641040731,17.3709974609,21.3970821549\C,14.182675862,
 16.6888834204,21.6605707573\C,13.388455026,15.95575484,20.7567605186\C
 ,13.6459331735,15.6926817585,19.3280330724\C,14.6976012855,16.18967748
 07,18.526203211\C,15.2646589724,15.3020966725,17.4915982656\C,16.65028
 07586,15.6183415102,17.313036342\C,17.5830017391,14.6123783544,17.3093
 975048\C,17.1637485779,13.2538808811,17.4841940408\C,18.9565656684,14.
 7757641031,17.9191570085\C,15.8218734041,12.9323838309,17.3703074484\C
 ,14.8424155855,13.9887529022,17.3741258932\C,13.7058546753,13.51999122
 27,18.1284989579\C,19.0162202952,13.5543261663,18.8575090128\C,13.0952
 795301,14.3893843878,19.0378548677\C,12.4879505575,13.8541488151,20.23
 33432329\C,18.009733576,12.6174601737,18.5132925389\C,12.5859947368,12
 .4871474123,20.5292944634\C,13.3655753458,11.6288605975,19.6740783506\
 C,13.9124308223,12.1401892408,18.4878515882\C,15.2714082037,11.8315037
 852,18.1223977695\C,19.2558593529,13.28149093,21.3823002116\C,19.44789
 16446,13.9449939339,20.149892995\C,16.0955205866,11.1535477081,19.0261
 596486\C,19.5104407753,15.4200635877,20.1546915801\C,15.520296992,10.5
 83686412,20.2215224484\C,18.9927383301,15.9136768218,18.9136547089\C,1
 6.5141360818,10.6193408886,21.2525371388\C,16.1170380261,10.720055357,
 22.5933260217\C,16.920410371,11.4616316378,23.5075506965\C,18.09388805
 66,12.0775771349,23.0502694038\C,18.4981879423,13.3325154244,23.610314
 0812\C,18.3128430442,17.1922321814,21.3234159897\C,17.6280025798,17.14
 04442708,22.5918396895\C,18.2528410063,16.1467314884,23.4271680082\C,1
 7.4955973468,15.4411978878,24.3739765577\C,17.6691348111,14.0174113151
 ,24.5100272469\C,16.3940139096,13.4309354755,24.8834152925\C,16.047051
 1414,12.1658138776,24.4227165056\C,14.6778390338,11.8806636217,24.0274
 458443\C,14.7237683626,10.9443190703,22.9168420635\C,13.7749035528,11.
 0132893085,21.9029101426\C,14.1656656668,10.7834319234,20.5231361055\H
 ,17.0058646698,17.7835127145,17.1935849483\H,19.7683883187,14.80406239
 24,17.1828158087\\Version=ES64L-G16RevA.03\State=1-A\HF=-2516.5515505\
 RMSD=3.484e-09\RMSF=5.825e-05\Dipole=0.8314249,0.7757911,-1.3598953\Qu
 adrupole=-1.0561331,-1.0728684,2.1290014,0.3844939,-5.7212589,-5.31757
 97\PG=C01 [X(C66H2)]\\@


 I SUPPOSE A BABY LLAMA HAS A MMAMA AND A PPOPA.
     -- RICHARD AMOUR
 Job cpu time:       1 days  1 hours 50 minutes 49.8 seconds.
 Elapsed time:       0 days  0 hours 32 minutes 22.9 seconds.
 File lengths (MBytes):  RWF=    884 Int=      0 D2E=      0 Chk=    109 Scr=      1
 Normal termination of Gaussian 16 at Thu Jul 21 02:31:06 2022.
