 Entering Gaussian System, Link 0=g16
 Input=dihept_2_addons_1.gjf
 Output=dihept_2_addons_1.log
 Initial command:
 /home/mkliu/g16/l1.exe "/data/scratch/Gau-12808.inp" -scrdir="/data/scratch/"
 Entering Link 1 = /home/mkliu/g16/l1.exe PID=     12809.
  
 Copyright (c) 1988,1990,1992,1993,1995,1998,2003,2009,2016,
            Gaussian, Inc.  All Rights Reserved.
  
 This is part of the Gaussian(R) 16 program.  It is based on
 the Gaussian(R) 09 system (copyright 2009, Gaussian, Inc.),
 the Gaussian(R) 03 system (copyright 2003, Gaussian, Inc.),
 the Gaussian(R) 98 system (copyright 1998, Gaussian, Inc.),
 the Gaussian(R) 94 system (copyright 1995, Gaussian, Inc.),
 the Gaussian 92(TM) system (copyright 1992, Gaussian, Inc.),
 the Gaussian 90(TM) system (copyright 1990, Gaussian, Inc.),
 the Gaussian 88(TM) system (copyright 1988, Gaussian, Inc.),
 the Gaussian 86(TM) system (copyright 1986, Carnegie Mellon
 University), and the Gaussian 82(TM) system (copyright 1983,
 Carnegie Mellon University). Gaussian is a federally registered
 trademark of Gaussian, Inc.
  
 This software contains proprietary and confidential information,
 including trade secrets, belonging to Gaussian, Inc.
  
 This software is provided under written license and may be
 used, copied, transmitted, or stored only in accord with that
 written license.
  
 The following legend is applicable only to US Government
 contracts under FAR:
  
                    RESTRICTED RIGHTS LEGEND
  
 Use, reproduction and disclosure by the US Government is
 subject to restrictions as set forth in subparagraphs (a)
 and (c) of the Commercial Computer Software - Restricted
 Rights clause in FAR 52.227-19.
  
 Gaussian, Inc.
 340 Quinnipiac St., Bldg. 40, Wallingford CT 06492
  
  
 ---------------------------------------------------------------
 Warning -- This program may not be used in any manner that
 competes with the business of Gaussian, Inc. or will provide
 assistance to any competitor of Gaussian, Inc.  The licensee
 of this program is prohibited from giving any competitor of
 Gaussian, Inc. access to this program.  By using this program,
 the user acknowledges that Gaussian, Inc. is engaged in the
 business of creating and licensing software in the field of
 computational chemistry and represents and warrants to the
 licensee that it is not a competitor of Gaussian, Inc. and that
 it will not use this program in any manner prohibited above.
 ---------------------------------------------------------------
  

 Cite this work as:
 Gaussian 16, Revision A.03,
 M. J. Frisch, G. W. Trucks, H. B. Schlegel, G. E. Scuseria, 
 M. A. Robb, J. R. Cheeseman, G. Scalmani, V. Barone, 
 G. A. Petersson, H. Nakatsuji, X. Li, M. Caricato, A. V. Marenich, 
 J. Bloino, B. G. Janesko, R. Gomperts, B. Mennucci, H. P. Hratchian, 
 J. V. Ortiz, A. F. Izmaylov, J. L. Sonnenberg, D. Williams-Young, 
 F. Ding, F. Lipparini, F. Egidi, J. Goings, B. Peng, A. Petrone, 
 T. Henderson, D. Ranasinghe, V. G. Zakrzewski, J. Gao, N. Rega, 
 G. Zheng, W. Liang, M. Hada, M. Ehara, K. Toyota, R. Fukuda, 
 J. Hasegawa, M. Ishida, T. Nakajima, Y. Honda, O. Kitao, H. Nakai, 
 T. Vreven, K. Throssell, J. A. Montgomery, Jr., J. E. Peralta, 
 F. Ogliaro, M. J. Bearpark, J. J. Heyd, E. N. Brothers, K. N. Kudin, 
 V. N. Staroverov, T. A. Keith, R. Kobayashi, J. Normand, 
 K. Raghavachari, A. P. Rendell, J. C. Burant, S. S. Iyengar, 
 J. Tomasi, M. Cossi, J. M. Millam, M. Klene, C. Adamo, R. Cammi, 
 J. W. Ochterski, R. L. Martin, K. Morokuma, O. Farkas, 
 J. B. Foresman, and D. J. Fox, Gaussian, Inc., Wallingford CT, 2016.
 
 ******************************************
 Gaussian 16:  ES64L-G16RevA.03 25-Dec-2016
                20-Jul-2022 
 ******************************************
 %mem=10GB
 %chk=dihept_2_addons_1.chk
 %nprocshared=48
 Will use up to   48 processors via shared memory.
 -------------------------------------------------
 #P opt b3lyp/6-311G(d, p) empiricaldispersion=GD3
 -------------------------------------------------
 1/18=20,19=15,26=3,38=1/1,3;
 2/9=110,12=2,17=6,18=5,40=1/2;
 3/5=4,6=6,7=101,11=2,25=1,30=1,71=1,74=-5,124=31/1,2,3;
 4//1;
 5/5=2,38=5/2;
 6/7=2,8=2,9=2,10=2,28=1/1;
 7//1,2,3,16;
 1/18=20,19=15,26=3/3(2);
 2/9=110/2;
 99//99;
 2/9=110/2;
 3/5=4,6=6,7=101,11=2,25=1,30=1,71=1,74=-5,124=31/1,2,3;
 4/5=5,16=3,69=1/1;
 5/5=2,38=5/2;
 7//1,2,3,16;
 1/18=20,19=15,26=3/3(-5);
 2/9=110/2;
 6/7=2,8=2,9=2,10=2,19=2,28=1/1;
 99/9=1/99;
 Leave Link    1 at Wed Jul 20 04:17:14 2022, MaxMem=  1342177280 cpu:               3.0 elap:               0.1
 (Enter /home/mkliu/g16/l101.exe)
 -----
 force
 -----
 Symbolic Z-matrix:
 Charge =  0 Multiplicity = 1
 C                     12.81353   12.09325   21.88735 
 C                     12.82183   13.03638   22.90322 
 C                     12.70288   14.43605   22.57873 
 C                     12.63403   14.8541   21.2568 
 C                     13.50664   15.17799   23.4934 
 C                     14.13641   14.24984   24.39919 
 C                     15.63219   17.32751   18.77059 
 C                     13.75057   12.91987   23.99932 
 C                     15.42132   14.50045   24.85497 
 C                     16.88673   16.80351   18.09321 
 C                     16.08562   15.7202   24.48575 
 C                     15.47382   16.59788   23.59416 
 C                     14.19233   16.29253   23.03012 
 C                     19.2312   14.05137   22.58774 
 C                     16.23531   17.28332   22.59875 
 C                     19.19323   15.44278   22.57387 
 C                     19.27693   16.11519   21.32559 
 C                     17.45312   11.60681   19.31031 
 C                     17.71153   11.3202   20.73484 
 C                     18.49358   12.0421   21.6248 
 C                     18.00233   16.89595   18.92402 
 C                     17.56648   17.44811   20.18091 
 C                     16.13116   17.53287   20.19062 
 C                     15.46039   17.37682   21.38216 
 C                     14.17274   16.70343   21.64066 
 C                     13.39071   15.98154   20.75071 
 C                     13.65196   15.70749   19.32419 
 C                     14.66663   16.18099   18.524 
 C                     15.24653   15.30661   17.54085 
 C                     16.63829   15.63683   17.37176 
 C                     17.60198   14.59711   17.36831 
 C                     17.168    13.23367   17.53382 
 C                     18.78638   14.75382   18.08651 
 C                     15.82406   12.92792   17.39628 
 C                     14.83945   13.99013   17.39991 
 C                     13.71183   13.53282   18.13244 
 C                     19.21642   13.46095   18.75733 
 C                     13.10941   14.39788   19.04154 
 C                     12.51408   13.8658   20.22602 
 C                     17.99929   12.58559   18.51179 
 C                     12.60715   12.50929   20.5273 
 C                     13.39728   11.65801   19.67554 
 C                     13.93038   12.15618   18.50248 
 C                     15.28526   11.83541   18.12665 
 C                     19.26148   13.27607   21.36819 
 C                     19.46387   13.93751   20.17846 
 C                     16.1053   11.16592   19.03052 
 C                     19.48795   15.37517   20.17389 
 C                     15.53371   10.6082   20.21492 
 C                     18.96601   15.85622   18.92055 
 C                     16.53174   10.64919   21.24248 
 C                     16.1246   10.74466   22.56617 
 C                     16.92837   11.48661   23.48085 
 C                     18.09007   12.08765   23.01583 
 C                     18.49347   13.34029   23.58308 
 C                     18.29231   17.17739   21.32921 
 C                     17.6198   17.14019   22.57965 
 C                     18.23943   16.13377   23.40611 
 C                     17.489    15.43499   24.33185 
 C                     17.66767   14.01349   24.47996 
 C                     16.40238   13.44209   24.85137 
 C                     16.05365   12.1815   24.39216 
 C                     14.69693   11.89894   23.99585 
 C                     14.73907   10.96804   22.89619 
 C                     13.79459   11.03489   21.88374 
 C                     14.18917   10.80257   20.52149 
 H                     15.23962   18.2628   18.3569 
 H                     20.11787   13.00029   18.33885 
 
 ITRead=  0  0  0  0  0  0  0  0  0  0  0  0  0  0  0  0  0  0  0  0
 ITRead=  0  0  0  0  0  0  0  0  0  0  0  0  0  0  0  0  0  0  0  0
 ITRead=  0  0  0  0  0  0  0  0  0  0  0  0  0  0  0  0  0  0  0  0
 ITRead=  0  0  0  0  0  0  0  0
 MicOpt= -1 -1 -1 -1 -1 -1 -1 -1 -1 -1 -1 -1 -1 -1 -1 -1 -1 -1 -1 -1
 MicOpt= -1 -1 -1 -1 -1 -1 -1 -1 -1 -1 -1 -1 -1 -1 -1 -1 -1 -1 -1 -1
 MicOpt= -1 -1 -1 -1 -1 -1 -1 -1 -1 -1 -1 -1 -1 -1 -1 -1 -1 -1 -1 -1
 MicOpt= -1 -1 -1 -1 -1 -1 -1 -1
 NAtoms=     68 NQM=       68 NQMF=       0 NMMI=      0 NMMIF=      0
                NMic=       0 NMicF=      0.
                    Isotopes and Nuclear Properties:
 (Nuclear quadrupole moments (NQMom) in fm**2, nuclear magnetic moments (NMagM)
  in nuclear magnetons)

  Atom         1           2           3           4           5           6           7           8           9          10
 IAtWgt=          12          12          12          12          12          12          12          12          12          12
 AtmWgt=  12.0000000  12.0000000  12.0000000  12.0000000  12.0000000  12.0000000  12.0000000  12.0000000  12.0000000  12.0000000
 NucSpn=           0           0           0           0           0           0           0           0           0           0
 AtZEff=  -0.0000000  -0.0000000  -0.0000000  -0.0000000  -0.0000000  -0.0000000  -0.0000000  -0.0000000  -0.0000000  -0.0000000
 NQMom=    0.0000000   0.0000000   0.0000000   0.0000000   0.0000000   0.0000000   0.0000000   0.0000000   0.0000000   0.0000000
 NMagM=    0.0000000   0.0000000   0.0000000   0.0000000   0.0000000   0.0000000   0.0000000   0.0000000   0.0000000   0.0000000
 AtZNuc=   6.0000000   6.0000000   6.0000000   6.0000000   6.0000000   6.0000000   6.0000000   6.0000000   6.0000000   6.0000000

  Atom        11          12          13          14          15          16          17          18          19          20
 IAtWgt=          12          12          12          12          12          12          12          12          12          12
 AtmWgt=  12.0000000  12.0000000  12.0000000  12.0000000  12.0000000  12.0000000  12.0000000  12.0000000  12.0000000  12.0000000
 NucSpn=           0           0           0           0           0           0           0           0           0           0
 AtZEff=  -0.0000000  -0.0000000  -0.0000000  -0.0000000  -0.0000000  -0.0000000  -0.0000000  -0.0000000  -0.0000000  -0.0000000
 NQMom=    0.0000000   0.0000000   0.0000000   0.0000000   0.0000000   0.0000000   0.0000000   0.0000000   0.0000000   0.0000000
 NMagM=    0.0000000   0.0000000   0.0000000   0.0000000   0.0000000   0.0000000   0.0000000   0.0000000   0.0000000   0.0000000
 AtZNuc=   6.0000000   6.0000000   6.0000000   6.0000000   6.0000000   6.0000000   6.0000000   6.0000000   6.0000000   6.0000000

  Atom        21          22          23          24          25          26          27          28          29          30
 IAtWgt=          12          12          12          12          12          12          12          12          12          12
 AtmWgt=  12.0000000  12.0000000  12.0000000  12.0000000  12.0000000  12.0000000  12.0000000  12.0000000  12.0000000  12.0000000
 NucSpn=           0           0           0           0           0           0           0           0           0           0
 AtZEff=  -0.0000000  -0.0000000  -0.0000000  -0.0000000  -0.0000000  -0.0000000  -0.0000000  -0.0000000  -0.0000000  -0.0000000
 NQMom=    0.0000000   0.0000000   0.0000000   0.0000000   0.0000000   0.0000000   0.0000000   0.0000000   0.0000000   0.0000000
 NMagM=    0.0000000   0.0000000   0.0000000   0.0000000   0.0000000   0.0000000   0.0000000   0.0000000   0.0000000   0.0000000
 AtZNuc=   6.0000000   6.0000000   6.0000000   6.0000000   6.0000000   6.0000000   6.0000000   6.0000000   6.0000000   6.0000000

  Atom        31          32          33          34          35          36          37          38          39          40
 IAtWgt=          12          12          12          12          12          12          12          12          12          12
 AtmWgt=  12.0000000  12.0000000  12.0000000  12.0000000  12.0000000  12.0000000  12.0000000  12.0000000  12.0000000  12.0000000
 NucSpn=           0           0           0           0           0           0           0           0           0           0
 AtZEff=  -0.0000000  -0.0000000  -0.0000000  -0.0000000  -0.0000000  -0.0000000  -0.0000000  -0.0000000  -0.0000000  -0.0000000
 NQMom=    0.0000000   0.0000000   0.0000000   0.0000000   0.0000000   0.0000000   0.0000000   0.0000000   0.0000000   0.0000000
 NMagM=    0.0000000   0.0000000   0.0000000   0.0000000   0.0000000   0.0000000   0.0000000   0.0000000   0.0000000   0.0000000
 AtZNuc=   6.0000000   6.0000000   6.0000000   6.0000000   6.0000000   6.0000000   6.0000000   6.0000000   6.0000000   6.0000000

  Atom        41          42          43          44          45          46          47          48          49          50
 IAtWgt=          12          12          12          12          12          12          12          12          12          12
 AtmWgt=  12.0000000  12.0000000  12.0000000  12.0000000  12.0000000  12.0000000  12.0000000  12.0000000  12.0000000  12.0000000
 NucSpn=           0           0           0           0           0           0           0           0           0           0
 AtZEff=  -0.0000000  -0.0000000  -0.0000000  -0.0000000  -0.0000000  -0.0000000  -0.0000000  -0.0000000  -0.0000000  -0.0000000
 NQMom=    0.0000000   0.0000000   0.0000000   0.0000000   0.0000000   0.0000000   0.0000000   0.0000000   0.0000000   0.0000000
 NMagM=    0.0000000   0.0000000   0.0000000   0.0000000   0.0000000   0.0000000   0.0000000   0.0000000   0.0000000   0.0000000
 AtZNuc=   6.0000000   6.0000000   6.0000000   6.0000000   6.0000000   6.0000000   6.0000000   6.0000000   6.0000000   6.0000000

  Atom        51          52          53          54          55          56          57          58          59          60
 IAtWgt=          12          12          12          12          12          12          12          12          12          12
 AtmWgt=  12.0000000  12.0000000  12.0000000  12.0000000  12.0000000  12.0000000  12.0000000  12.0000000  12.0000000  12.0000000
 NucSpn=           0           0           0           0           0           0           0           0           0           0
 AtZEff=  -0.0000000  -0.0000000  -0.0000000  -0.0000000  -0.0000000  -0.0000000  -0.0000000  -0.0000000  -0.0000000  -0.0000000
 NQMom=    0.0000000   0.0000000   0.0000000   0.0000000   0.0000000   0.0000000   0.0000000   0.0000000   0.0000000   0.0000000
 NMagM=    0.0000000   0.0000000   0.0000000   0.0000000   0.0000000   0.0000000   0.0000000   0.0000000   0.0000000   0.0000000
 AtZNuc=   6.0000000   6.0000000   6.0000000   6.0000000   6.0000000   6.0000000   6.0000000   6.0000000   6.0000000   6.0000000

  Atom        61          62          63          64          65          66          67          68
 IAtWgt=          12          12          12          12          12          12           1           1
 AtmWgt=  12.0000000  12.0000000  12.0000000  12.0000000  12.0000000  12.0000000   1.0078250   1.0078250
 NucSpn=           0           0           0           0           0           0           1           1
 AtZEff=  -0.0000000  -0.0000000  -0.0000000  -0.0000000  -0.0000000  -0.0000000  -0.0000000  -0.0000000
 NQMom=    0.0000000   0.0000000   0.0000000   0.0000000   0.0000000   0.0000000   0.0000000   0.0000000
 NMagM=    0.0000000   0.0000000   0.0000000   0.0000000   0.0000000   0.0000000   2.7928460   2.7928460
 AtZNuc=   6.0000000   6.0000000   6.0000000   6.0000000   6.0000000   6.0000000   1.0000000   1.0000000
 Leave Link  101 at Wed Jul 20 04:17:15 2022, MaxMem=  1342177280 cpu:              28.6 elap:               0.6
 (Enter /home/mkliu/g16/l103.exe)

 GradGradGradGradGradGradGradGradGradGradGradGradGradGradGradGradGradGrad
 Berny optimization.
 Initialization pass.
                           ----------------------------
                           !    Initial Parameters    !
                           ! (Angstroms and Degrees)  !
 --------------------------                            --------------------------
 ! Name  Definition              Value          Derivative Info.                !
 --------------------------------------------------------------------------------
 ! R1    R(1,2)                  1.3862         estimate D2E/DX2                !
 ! R2    R(1,41)                 1.4371         estimate D2E/DX2                !
 ! R3    R(1,65)                 1.4431         estimate D2E/DX2                !
 ! R4    R(2,3)                  1.4417         estimate D2E/DX2                !
 ! R5    R(2,8)                  1.4414         estimate D2E/DX2                !
 ! R6    R(3,4)                  1.3882         estimate D2E/DX2                !
 ! R7    R(3,5)                  1.4259         estimate D2E/DX2                !
 ! R8    R(4,26)                 1.4491         estimate D2E/DX2                !
 ! R9    R(4,39)                 1.433          estimate D2E/DX2                !
 ! R10   R(5,6)                  1.4417         estimate D2E/DX2                !
 ! R11   R(5,13)                 1.3882         estimate D2E/DX2                !
 ! R12   R(6,8)                  1.4414         estimate D2E/DX2                !
 ! R13   R(6,9)                  1.3862         estimate D2E/DX2                !
 ! R14   R(7,10)                 1.519          estimate D2E/DX2                !
 ! R15   R(7,23)                 1.5191         estimate D2E/DX2                !
 ! R16   R(7,28)                 1.5191         estimate D2E/DX2                !
 ! R17   R(7,67)                 1.0955         estimate D2E/DX2                !
 ! R18   R(8,63)                 1.3921         estimate D2E/DX2                !
 ! R19   R(9,11)                 1.4371         estimate D2E/DX2                !
 ! R20   R(9,61)                 1.4431         estimate D2E/DX2                !
 ! R21   R(10,21)                1.394          estimate D2E/DX2                !
 ! R22   R(10,30)                1.394          estimate D2E/DX2                !
 ! R23   R(11,12)                1.3927         estimate D2E/DX2                !
 ! R24   R(11,59)                1.4403         estimate D2E/DX2                !
 ! R25   R(12,13)                1.433          estimate D2E/DX2                !
 ! R26   R(12,15)                1.4285         estimate D2E/DX2                !
 ! R27   R(13,25)                1.4491         estimate D2E/DX2                !
 ! R28   R(14,16)                1.392          estimate D2E/DX2                !
 ! R29   R(14,45)                1.4454         estimate D2E/DX2                !
 ! R30   R(14,55)                1.4285         estimate D2E/DX2                !
 ! R31   R(15,24)                1.4455         estimate D2E/DX2                !
 ! R32   R(15,57)                1.392          estimate D2E/DX2                !
 ! R33   R(16,17)                1.4203         estimate D2E/DX2                !
 ! R34   R(16,58)                1.4422         estimate D2E/DX2                !
 ! R35   R(17,48)                1.3851         estimate D2E/DX2                !
 ! R36   R(17,56)                1.4484         estimate D2E/DX2                !
 ! R37   R(18,19)                1.4759         estimate D2E/DX2                !
 ! R38   R(18,40)                1.3762         estimate D2E/DX2                !
 ! R39   R(18,47)                1.4454         estimate D2E/DX2                !
 ! R40   R(19,20)                1.3874         estimate D2E/DX2                !
 ! R41   R(19,51)                1.4491         estimate D2E/DX2                !
 ! R42   R(20,45)                1.4759         estimate D2E/DX2                !
 ! R43   R(20,54)                1.4491         estimate D2E/DX2                !
 ! R44   R(21,22)                1.4404         estimate D2E/DX2                !
 ! R45   R(21,50)                1.4176         estimate D2E/DX2                !
 ! R46   R(22,23)                1.4379         estimate D2E/DX2                !
 ! R47   R(22,56)                1.3852         estimate D2E/DX2                !
 ! R48   R(23,24)                1.3763         estimate D2E/DX2                !
 ! R49   R(24,25)                1.4759         estimate D2E/DX2                !
 ! R50   R(25,26)                1.3873         estimate D2E/DX2                !
 ! R51   R(26,27)                1.4759         estimate D2E/DX2                !
 ! R52   R(27,28)                1.3762         estimate D2E/DX2                !
 ! R53   R(27,38)                1.4455         estimate D2E/DX2                !
 ! R54   R(28,29)                1.4379         estimate D2E/DX2                !
 ! R55   R(29,30)                1.4404         estimate D2E/DX2                !
 ! R56   R(29,35)                1.3852         estimate D2E/DX2                !
 ! R57   R(30,31)                1.4176         estimate D2E/DX2                !
 ! R58   R(31,32)                1.4404         estimate D2E/DX2                !
 ! R59   R(31,33)                1.394          estimate D2E/DX2                !
 ! R60   R(32,34)                1.3851         estimate D2E/DX2                !
 ! R61   R(32,40)                1.4379         estimate D2E/DX2                !
 ! R62   R(33,37)                1.5187         estimate D2E/DX2                !
 ! R63   R(33,50)                1.394          estimate D2E/DX2                !
 ! R64   R(34,35)                1.4484         estimate D2E/DX2                !
 ! R65   R(34,44)                1.4203         estimate D2E/DX2                !
 ! R66   R(35,36)                1.4203         estimate D2E/DX2                !
 ! R67   R(36,38)                1.392          estimate D2E/DX2                !
 ! R68   R(36,43)                1.4422         estimate D2E/DX2                !
 ! R69   R(37,40)                1.5192         estimate D2E/DX2                !
 ! R70   R(37,46)                1.5192         estimate D2E/DX2                !
 ! R71   R(37,68)                1.0954         estimate D2E/DX2                !
 ! R72   R(38,39)                1.4285         estimate D2E/DX2                !
 ! R73   R(39,41)                1.3927         estimate D2E/DX2                !
 ! R74   R(41,42)                1.4403         estimate D2E/DX2                !
 ! R75   R(42,43)                1.3815         estimate D2E/DX2                !
 ! R76   R(42,66)                1.4403         estimate D2E/DX2                !
 ! R77   R(43,44)                1.4422         estimate D2E/DX2                !
 ! R78   R(44,47)                1.392          estimate D2E/DX2                !
 ! R79   R(45,46)                1.3762         estimate D2E/DX2                !
 ! R80   R(46,48)                1.4379         estimate D2E/DX2                !
 ! R81   R(47,49)                1.4285         estimate D2E/DX2                !
 ! R82   R(48,50)                1.4404         estimate D2E/DX2                !
 ! R83   R(49,51)                1.433          estimate D2E/DX2                !
 ! R84   R(49,66)                1.3927         estimate D2E/DX2                !
 ! R85   R(51,52)                1.3882         estimate D2E/DX2                !
 ! R86   R(52,53)                1.4259         estimate D2E/DX2                !
 ! R87   R(52,64)                1.4417         estimate D2E/DX2                !
 ! R88   R(53,54)                1.3882         estimate D2E/DX2                !
 ! R89   R(53,62)                1.4417         estimate D2E/DX2                !
 ! R90   R(54,55)                1.433          estimate D2E/DX2                !
 ! R91   R(55,60)                1.3927         estimate D2E/DX2                !
 ! R92   R(56,57)                1.4203         estimate D2E/DX2                !
 ! R93   R(57,58)                1.4422         estimate D2E/DX2                !
 ! R94   R(58,59)                1.3815         estimate D2E/DX2                !
 ! R95   R(59,60)                1.4403         estimate D2E/DX2                !
 ! R96   R(60,61)                1.4372         estimate D2E/DX2                !
 ! R97   R(61,62)                1.3862         estimate D2E/DX2                !
 ! R98   R(62,63)                1.4414         estimate D2E/DX2                !
 ! R99   R(63,64)                1.4414         estimate D2E/DX2                !
 ! R100  R(64,65)                1.3862         estimate D2E/DX2                !
 ! R101  R(65,66)                1.4372         estimate D2E/DX2                !
 ! A1    A(2,1,41)             119.8302         estimate D2E/DX2                !
 ! A2    A(2,1,65)             119.7837         estimate D2E/DX2                !
 ! A3    A(41,1,65)            107.9128         estimate D2E/DX2                !
 ! A4    A(1,2,3)              119.6754         estimate D2E/DX2                !
 ! A5    A(1,2,8)              120.4085         estimate D2E/DX2                !
 ! A6    A(3,2,8)              107.6256         estimate D2E/DX2                !
 ! A7    A(2,3,4)              120.7172         estimate D2E/DX2                !
 ! A8    A(2,3,5)              108.3171         estimate D2E/DX2                !
 ! A9    A(4,3,5)              118.8245         estimate D2E/DX2                !
 ! A10   A(3,4,26)             122.7516         estimate D2E/DX2                !
 ! A11   A(3,4,39)             118.7792         estimate D2E/DX2                !
 ! A12   A(26,4,39)            109.2121         estimate D2E/DX2                !
 ! A13   A(3,5,6)              108.317          estimate D2E/DX2                !
 ! A14   A(3,5,13)             118.8244         estimate D2E/DX2                !
 ! A15   A(6,5,13)             120.7172         estimate D2E/DX2                !
 ! A16   A(5,6,8)              107.6256         estimate D2E/DX2                !
 ! A17   A(5,6,9)              119.6755         estimate D2E/DX2                !
 ! A18   A(8,6,9)              120.4085         estimate D2E/DX2                !
 ! A19   A(10,7,23)            101.0821         estimate D2E/DX2                !
 ! A20   A(10,7,28)            101.0822         estimate D2E/DX2                !
 ! A21   A(10,7,67)            114.9669         estimate D2E/DX2                !
 ! A22   A(23,7,28)            117.5524         estimate D2E/DX2                !
 ! A23   A(23,7,67)            110.8122         estimate D2E/DX2                !
 ! A24   A(28,7,67)            110.8122         estimate D2E/DX2                !
 ! A25   A(2,8,6)              107.9908         estimate D2E/DX2                !
 ! A26   A(2,8,63)             119.6969         estimate D2E/DX2                !
 ! A27   A(6,8,63)             119.6968         estimate D2E/DX2                !
 ! A28   A(6,9,11)             119.8302         estimate D2E/DX2                !
 ! A29   A(6,9,61)             119.7837         estimate D2E/DX2                !
 ! A30   A(11,9,61)            107.9128         estimate D2E/DX2                !
 ! A31   A(7,10,21)            111.8575         estimate D2E/DX2                !
 ! A32   A(7,10,30)            111.8575         estimate D2E/DX2                !
 ! A33   A(21,10,30)           120.4344         estimate D2E/DX2                !
 ! A34   A(9,11,12)            119.7551         estimate D2E/DX2                !
 ! A35   A(9,11,59)            108.0451         estimate D2E/DX2                !
 ! A36   A(12,11,59)           118.9746         estimate D2E/DX2                !
 ! A37   A(11,12,13)           120.6995         estimate D2E/DX2                !
 ! A38   A(11,12,15)           120.9532         estimate D2E/DX2                !
 ! A39   A(13,12,15)           107.7387         estimate D2E/DX2                !
 ! A40   A(5,13,12)            118.7792         estimate D2E/DX2                !
 ! A41   A(5,13,25)            122.7516         estimate D2E/DX2                !
 ! A42   A(12,13,25)           109.2121         estimate D2E/DX2                !
 ! A43   A(16,14,45)           121.8912         estimate D2E/DX2                !
 ! A44   A(16,14,55)           119.3692         estimate D2E/DX2                !
 ! A45   A(45,14,55)           109.3726         estimate D2E/DX2                !
 ! A46   A(12,15,24)           109.3756         estimate D2E/DX2                !
 ! A47   A(12,15,57)           119.3682         estimate D2E/DX2                !
 ! A48   A(24,15,57)           121.8917         estimate D2E/DX2                !
 ! A49   A(14,16,17)           118.7096         estimate D2E/DX2                !
 ! A50   A(14,16,58)           119.4205         estimate D2E/DX2                !
 ! A51   A(17,16,58)           108.6216         estimate D2E/DX2                !
 ! A52   A(16,17,48)           119.1309         estimate D2E/DX2                !
 ! A53   A(16,17,56)           107.7544         estimate D2E/DX2                !
 ! A54   A(48,17,56)           119.8322         estimate D2E/DX2                !
 ! A55   A(19,18,40)           128.9526         estimate D2E/DX2                !
 ! A56   A(19,18,47)           106.9095         estimate D2E/DX2                !
 ! A57   A(40,18,47)           118.3392         estimate D2E/DX2                !
 ! A58   A(18,19,20)           128.0836         estimate D2E/DX2                !
 ! A59   A(18,19,51)           106.5889         estimate D2E/DX2                !
 ! A60   A(20,19,51)           118.3703         estimate D2E/DX2                !
 ! A61   A(19,20,45)           128.0835         estimate D2E/DX2                !
 ! A62   A(19,20,54)           118.3703         estimate D2E/DX2                !
 ! A63   A(45,20,54)           106.5889         estimate D2E/DX2                !
 ! A64   A(10,21,22)           107.6573         estimate D2E/DX2                !
 ! A65   A(10,21,50)           119.5975         estimate D2E/DX2                !
 ! A66   A(22,21,50)           119.2738         estimate D2E/DX2                !
 ! A67   A(21,22,23)           109.3026         estimate D2E/DX2                !
 ! A68   A(21,22,56)           119.3355         estimate D2E/DX2                !
 ! A69   A(23,22,56)           121.9378         estimate D2E/DX2                !
 ! A70   A(7,23,22)            108.2768         estimate D2E/DX2                !
 ! A71   A(7,23,24)            129.3392         estimate D2E/DX2                !
 ! A72   A(22,23,24)           119.0579         estimate D2E/DX2                !
 ! A73   A(15,24,23)           118.3431         estimate D2E/DX2                !
 ! A74   A(15,24,25)           106.9055         estimate D2E/DX2                !
 ! A75   A(23,24,25)           128.9464         estimate D2E/DX2                !
 ! A76   A(13,25,24)           106.5903         estimate D2E/DX2                !
 ! A77   A(13,25,26)           118.3697         estimate D2E/DX2                !
 ! A78   A(24,25,26)           128.0864         estimate D2E/DX2                !
 ! A79   A(4,26,25)            118.3697         estimate D2E/DX2                !
 ! A80   A(4,26,27)            106.5903         estimate D2E/DX2                !
 ! A81   A(25,26,27)           128.0864         estimate D2E/DX2                !
 ! A82   A(26,27,28)           128.9464         estimate D2E/DX2                !
 ! A83   A(26,27,38)           106.9055         estimate D2E/DX2                !
 ! A84   A(28,27,38)           118.3432         estimate D2E/DX2                !
 ! A85   A(7,28,27)            129.3392         estimate D2E/DX2                !
 ! A86   A(7,28,29)            108.2768         estimate D2E/DX2                !
 ! A87   A(27,28,29)           119.0579         estimate D2E/DX2                !
 ! A88   A(28,29,30)           109.3026         estimate D2E/DX2                !
 ! A89   A(28,29,35)           121.9378         estimate D2E/DX2                !
 ! A90   A(30,29,35)           119.3355         estimate D2E/DX2                !
 ! A91   A(10,30,29)           107.6573         estimate D2E/DX2                !
 ! A92   A(10,30,31)           119.5974         estimate D2E/DX2                !
 ! A93   A(29,30,31)           119.2738         estimate D2E/DX2                !
 ! A94   A(30,31,32)           119.2844         estimate D2E/DX2                !
 ! A95   A(30,31,33)           119.596          estimate D2E/DX2                !
 ! A96   A(32,31,33)           107.6498         estimate D2E/DX2                !
 ! A97   A(31,32,34)           119.332          estimate D2E/DX2                !
 ! A98   A(31,32,40)           109.3063         estimate D2E/DX2                !
 ! A99   A(34,32,40)           121.9373         estimate D2E/DX2                !
 ! A100  A(31,33,37)           111.8678         estimate D2E/DX2                !
 ! A101  A(31,33,50)           120.4406         estimate D2E/DX2                !
 ! A102  A(37,33,50)           111.8678         estimate D2E/DX2                !
 ! A103  A(32,34,35)           119.8322         estimate D2E/DX2                !
 ! A104  A(32,34,44)           119.1309         estimate D2E/DX2                !
 ! A105  A(35,34,44)           107.7544         estimate D2E/DX2                !
 ! A106  A(29,35,34)           119.8333         estimate D2E/DX2                !
 ! A107  A(29,35,36)           119.1345         estimate D2E/DX2                !
 ! A108  A(34,35,36)           107.7507         estimate D2E/DX2                !
 ! A109  A(35,36,38)           118.7068         estimate D2E/DX2                !
 ! A110  A(35,36,43)           108.6252         estimate D2E/DX2                !
 ! A111  A(38,36,43)           119.4211         estimate D2E/DX2                !
 ! A112  A(33,37,40)           101.0855         estimate D2E/DX2                !
 ! A113  A(33,37,46)           101.0855         estimate D2E/DX2                !
 ! A114  A(33,37,68)           114.9786         estimate D2E/DX2                !
 ! A115  A(40,37,46)           117.5442         estimate D2E/DX2                !
 ! A116  A(40,37,68)           110.8084         estimate D2E/DX2                !
 ! A117  A(46,37,68)           110.8084         estimate D2E/DX2                !
 ! A118  A(27,38,36)           121.8917         estimate D2E/DX2                !
 ! A119  A(27,38,39)           109.3756         estimate D2E/DX2                !
 ! A120  A(36,38,39)           119.3682         estimate D2E/DX2                !
 ! A121  A(4,39,38)            107.7387         estimate D2E/DX2                !
 ! A122  A(4,39,41)            120.6994         estimate D2E/DX2                !
 ! A123  A(38,39,41)           120.9531         estimate D2E/DX2                !
 ! A124  A(18,40,32)           119.0625         estimate D2E/DX2                !
 ! A125  A(18,40,37)           129.3447         estimate D2E/DX2                !
 ! A126  A(32,40,37)           108.2643         estimate D2E/DX2                !
 ! A127  A(1,41,39)            119.7551         estimate D2E/DX2                !
 ! A128  A(1,41,42)            108.0451         estimate D2E/DX2                !
 ! A129  A(39,41,42)           118.9746         estimate D2E/DX2                !
 ! A130  A(41,42,43)           120.0477         estimate D2E/DX2                !
 ! A131  A(41,42,66)           107.7771         estimate D2E/DX2                !
 ! A132  A(43,42,66)           120.0489         estimate D2E/DX2                !
 ! A133  A(36,43,42)           120.2401         estimate D2E/DX2                !
 ! A134  A(36,43,44)           106.7274         estimate D2E/DX2                !
 ! A135  A(42,43,44)           120.2396         estimate D2E/DX2                !
 ! A136  A(34,44,43)           108.6216         estimate D2E/DX2                !
 ! A137  A(34,44,47)           118.7096         estimate D2E/DX2                !
 ! A138  A(43,44,47)           119.4205         estimate D2E/DX2                !
 ! A139  A(14,45,20)           106.9095         estimate D2E/DX2                !
 ! A140  A(14,45,46)           118.3392         estimate D2E/DX2                !
 ! A141  A(20,45,46)           128.9526         estimate D2E/DX2                !
 ! A142  A(37,46,45)           129.3446         estimate D2E/DX2                !
 ! A143  A(37,46,48)           108.2643         estimate D2E/DX2                !
 ! A144  A(45,46,48)           119.0625         estimate D2E/DX2                !
 ! A145  A(18,47,44)           121.8912         estimate D2E/DX2                !
 ! A146  A(18,47,49)           109.3726         estimate D2E/DX2                !
 ! A147  A(44,47,49)           119.3692         estimate D2E/DX2                !
 ! A148  A(17,48,46)           121.9373         estimate D2E/DX2                !
 ! A149  A(17,48,50)           119.332          estimate D2E/DX2                !
 ! A150  A(46,48,50)           109.3063         estimate D2E/DX2                !
 ! A151  A(47,49,51)           107.7396         estimate D2E/DX2                !
 ! A152  A(47,49,66)           120.9528         estimate D2E/DX2                !
 ! A153  A(51,49,66)           120.6993         estimate D2E/DX2                !
 ! A154  A(21,50,33)           119.596          estimate D2E/DX2                !
 ! A155  A(21,50,48)           119.2844         estimate D2E/DX2                !
 ! A156  A(33,50,48)           107.6498         estimate D2E/DX2                !
 ! A157  A(19,51,49)           109.2119         estimate D2E/DX2                !
 ! A158  A(19,51,52)           122.7504         estimate D2E/DX2                !
 ! A159  A(49,51,52)           118.7797         estimate D2E/DX2                !
 ! A160  A(51,52,53)           118.8251         estimate D2E/DX2                !
 ! A161  A(51,52,64)           120.7172         estimate D2E/DX2                !
 ! A162  A(53,52,64)           108.3167         estimate D2E/DX2                !
 ! A163  A(52,53,54)           118.8251         estimate D2E/DX2                !
 ! A164  A(52,53,62)           108.3167         estimate D2E/DX2                !
 ! A165  A(54,53,62)           120.7172         estimate D2E/DX2                !
 ! A166  A(20,54,53)           122.7504         estimate D2E/DX2                !
 ! A167  A(20,54,55)           109.2119         estimate D2E/DX2                !
 ! A168  A(53,54,55)           118.7796         estimate D2E/DX2                !
 ! A169  A(14,55,54)           107.7396         estimate D2E/DX2                !
 ! A170  A(14,55,60)           120.9528         estimate D2E/DX2                !
 ! A171  A(54,55,60)           120.6993         estimate D2E/DX2                !
 ! A172  A(17,56,22)           119.8333         estimate D2E/DX2                !
 ! A173  A(17,56,57)           107.7507         estimate D2E/DX2                !
 ! A174  A(22,56,57)           119.1345         estimate D2E/DX2                !
 ! A175  A(15,57,56)           118.7068         estimate D2E/DX2                !
 ! A176  A(15,57,58)           119.4211         estimate D2E/DX2                !
 ! A177  A(56,57,58)           108.6252         estimate D2E/DX2                !
 ! A178  A(16,58,57)           106.7274         estimate D2E/DX2                !
 ! A179  A(16,58,59)           120.2397         estimate D2E/DX2                !
 ! A180  A(57,58,59)           120.2401         estimate D2E/DX2                !
 ! A181  A(11,59,58)           120.0477         estimate D2E/DX2                !
 ! A182  A(11,59,60)           107.7772         estimate D2E/DX2                !
 ! A183  A(58,59,60)           120.0489         estimate D2E/DX2                !
 ! A184  A(55,60,59)           118.9734         estimate D2E/DX2                !
 ! A185  A(55,60,61)           119.7546         estimate D2E/DX2                !
 ! A186  A(59,60,61)           108.0447         estimate D2E/DX2                !
 ! A187  A(9,61,60)            107.9129         estimate D2E/DX2                !
 ! A188  A(9,61,62)            119.7838         estimate D2E/DX2                !
 ! A189  A(60,61,62)           119.8312         estimate D2E/DX2                !
 ! A190  A(53,62,61)           119.6747         estimate D2E/DX2                !
 ! A191  A(53,62,63)           107.6263         estimate D2E/DX2                !
 ! A192  A(61,62,63)           120.4076         estimate D2E/DX2                !
 ! A193  A(8,63,62)            119.6979         estimate D2E/DX2                !
 ! A194  A(8,63,64)            119.6979         estimate D2E/DX2                !
 ! A195  A(62,63,64)           107.99           estimate D2E/DX2                !
 ! A196  A(52,64,63)           107.6263         estimate D2E/DX2                !
 ! A197  A(52,64,65)           119.6747         estimate D2E/DX2                !
 ! A198  A(63,64,65)           120.4076         estimate D2E/DX2                !
 ! A199  A(1,65,64)            119.7838         estimate D2E/DX2                !
 ! A200  A(1,65,66)            107.9129         estimate D2E/DX2                !
 ! A201  A(64,65,66)           119.8312         estimate D2E/DX2                !
 ! A202  A(42,66,49)           118.9734         estimate D2E/DX2                !
 ! A203  A(42,66,65)           108.0447         estimate D2E/DX2                !
 ! A204  A(49,66,65)           119.7546         estimate D2E/DX2                !
 ! D1    D(41,1,2,3)            -3.6838         estimate D2E/DX2                !
 ! D2    D(41,1,2,8)          -141.289          estimate D2E/DX2                !
 ! D3    D(65,1,2,3)           133.7656         estimate D2E/DX2                !
 ! D4    D(65,1,2,8)            -3.8396         estimate D2E/DX2                !
 ! D5    D(2,1,41,39)            4.6685         estimate D2E/DX2                !
 ! D6    D(2,1,41,42)          145.3015         estimate D2E/DX2                !
 ! D7    D(65,1,41,39)        -137.2477         estimate D2E/DX2                !
 ! D8    D(65,1,41,42)           3.3853         estimate D2E/DX2                !
 ! D9    D(2,1,65,64)            0.0008         estimate D2E/DX2                !
 ! D10   D(2,1,65,66)         -141.9384         estimate D2E/DX2                !
 ! D11   D(41,1,65,64)         141.9379         estimate D2E/DX2                !
 ! D12   D(41,1,65,66)          -0.0013         estimate D2E/DX2                !
 ! D13   D(1,2,3,4)             -2.602          estimate D2E/DX2                !
 ! D14   D(1,2,3,5)           -144.5488         estimate D2E/DX2                !
 ! D15   D(8,2,3,4)            139.7991         estimate D2E/DX2                !
 ! D16   D(8,2,3,5)             -2.1476         estimate D2E/DX2                !
 ! D17   D(1,2,8,6)            145.5422         estimate D2E/DX2                !
 ! D18   D(1,2,8,63)             3.8362         estimate D2E/DX2                !
 ! D19   D(3,2,8,6)              3.4695         estimate D2E/DX2                !
 ! D20   D(3,2,8,63)          -138.2366         estimate D2E/DX2                !
 ! D21   D(2,3,4,26)          -135.3691         estimate D2E/DX2                !
 ! D22   D(2,3,4,39)             7.7363         estimate D2E/DX2                !
 ! D23   D(5,3,4,26)             2.7244         estimate D2E/DX2                !
 ! D24   D(5,3,4,39)           145.8298         estimate D2E/DX2                !
 ! D25   D(2,3,5,6)              0.0            estimate D2E/DX2                !
 ! D26   D(2,3,5,13)           142.7816         estimate D2E/DX2                !
 ! D27   D(4,3,5,6)           -142.7816         estimate D2E/DX2                !
 ! D28   D(4,3,5,13)             0.0            estimate D2E/DX2                !
 ! D29   D(3,4,26,25)           -2.7126         estimate D2E/DX2                !
 ! D30   D(3,4,26,27)          150.4613         estimate D2E/DX2                !
 ! D31   D(39,4,26,25)        -148.8485         estimate D2E/DX2                !
 ! D32   D(39,4,26,27)           4.3253         estimate D2E/DX2                !
 ! D33   D(3,4,39,38)         -151.6163         estimate D2E/DX2                !
 ! D34   D(3,4,39,41)           -6.7359         estimate D2E/DX2                !
 ! D35   D(26,4,39,38)          -3.9387         estimate D2E/DX2                !
 ! D36   D(26,4,39,41)         140.9417         estimate D2E/DX2                !
 ! D37   D(3,5,6,8)              2.1475         estimate D2E/DX2                !
 ! D38   D(3,5,6,9)            144.5488         estimate D2E/DX2                !
 ! D39   D(13,5,6,8)          -139.7991         estimate D2E/DX2                !
 ! D40   D(13,5,6,9)             2.6021         estimate D2E/DX2                !
 ! D41   D(3,5,13,12)         -145.8297         estimate D2E/DX2                !
 ! D42   D(3,5,13,25)           -2.7244         estimate D2E/DX2                !
 ! D43   D(6,5,13,12)           -7.7363         estimate D2E/DX2                !
 ! D44   D(6,5,13,25)          135.3691         estimate D2E/DX2                !
 ! D45   D(5,6,8,2)             -3.4694         estimate D2E/DX2                !
 ! D46   D(5,6,8,63)           138.2366         estimate D2E/DX2                !
 ! D47   D(9,6,8,2)           -145.5423         estimate D2E/DX2                !
 ! D48   D(9,6,8,63)            -3.8363         estimate D2E/DX2                !
 ! D49   D(5,6,9,11)             3.6837         estimate D2E/DX2                !
 ! D50   D(5,6,9,61)          -133.7657         estimate D2E/DX2                !
 ! D51   D(8,6,9,11)           141.289          estimate D2E/DX2                !
 ! D52   D(8,6,9,61)             3.8396         estimate D2E/DX2                !
 ! D53   D(23,7,10,21)          -8.6291         estimate D2E/DX2                !
 ! D54   D(23,7,10,30)         129.8722         estimate D2E/DX2                !
 ! D55   D(28,7,10,21)        -129.8722         estimate D2E/DX2                !
 ! D56   D(28,7,10,30)           8.6291         estimate D2E/DX2                !
 ! D57   D(67,7,10,21)         110.7493         estimate D2E/DX2                !
 ! D58   D(67,7,10,30)        -110.7493         estimate D2E/DX2                !
 ! D59   D(10,7,23,22)          12.9667         estimate D2E/DX2                !
 ! D60   D(10,7,23,24)        -145.791          estimate D2E/DX2                !
 ! D61   D(28,7,23,22)         121.8181         estimate D2E/DX2                !
 ! D62   D(28,7,23,24)         -36.9396         estimate D2E/DX2                !
 ! D63   D(67,7,23,22)        -109.3495         estimate D2E/DX2                !
 ! D64   D(67,7,23,24)          91.8928         estimate D2E/DX2                !
 ! D65   D(10,7,28,27)         145.791          estimate D2E/DX2                !
 ! D66   D(10,7,28,29)         -12.9667         estimate D2E/DX2                !
 ! D67   D(23,7,28,27)          36.9396         estimate D2E/DX2                !
 ! D68   D(23,7,28,29)        -121.8181         estimate D2E/DX2                !
 ! D69   D(67,7,28,27)         -91.8928         estimate D2E/DX2                !
 ! D70   D(67,7,28,29)         109.3495         estimate D2E/DX2                !
 ! D71   D(2,8,63,62)          137.2731         estimate D2E/DX2                !
 ! D72   D(2,8,63,64)           -0.0008         estimate D2E/DX2                !
 ! D73   D(6,8,63,62)            0.0008         estimate D2E/DX2                !
 ! D74   D(6,8,63,64)         -137.2731         estimate D2E/DX2                !
 ! D75   D(6,9,11,12)           -4.6685         estimate D2E/DX2                !
 ! D76   D(6,9,11,59)         -145.3014         estimate D2E/DX2                !
 ! D77   D(61,9,11,12)         137.2476         estimate D2E/DX2                !
 ! D78   D(61,9,11,59)          -3.3853         estimate D2E/DX2                !
 ! D79   D(6,9,61,60)          141.9383         estimate D2E/DX2                !
 ! D80   D(6,9,61,62)           -0.0008         estimate D2E/DX2                !
 ! D81   D(11,9,61,60)           0.0013         estimate D2E/DX2                !
 ! D82   D(11,9,61,62)        -141.9379         estimate D2E/DX2                !
 ! D83   D(7,10,21,22)           1.0665         estimate D2E/DX2                !
 ! D84   D(7,10,21,50)         141.5084         estimate D2E/DX2                !
 ! D85   D(30,10,21,22)       -133.4336         estimate D2E/DX2                !
 ! D86   D(30,10,21,50)          7.0083         estimate D2E/DX2                !
 ! D87   D(7,10,30,29)          -1.0665         estimate D2E/DX2                !
 ! D88   D(7,10,30,31)        -141.5084         estimate D2E/DX2                !
 ! D89   D(21,10,30,29)        133.4336         estimate D2E/DX2                !
 ! D90   D(21,10,30,31)         -7.0083         estimate D2E/DX2                !
 ! D91   D(9,11,12,13)          -0.5681         estimate D2E/DX2                !
 ! D92   D(9,11,12,15)        -140.8566         estimate D2E/DX2                !
 ! D93   D(59,11,12,13)        135.8514         estimate D2E/DX2                !
 ! D94   D(59,11,12,15)         -4.4371         estimate D2E/DX2                !
 ! D95   D(9,11,59,58)         147.9322         estimate D2E/DX2                !
 ! D96   D(9,11,59,60)           5.4694         estimate D2E/DX2                !
 ! D97   D(12,11,59,58)          6.9413         estimate D2E/DX2                !
 ! D98   D(12,11,59,60)       -135.5215         estimate D2E/DX2                !
 ! D99   D(11,12,13,5)           6.7358         estimate D2E/DX2                !
 ! D100  D(11,12,13,25)       -140.9418         estimate D2E/DX2                !
 ! D101  D(15,12,13,5)         151.6163         estimate D2E/DX2                !
 ! D102  D(15,12,13,25)          3.9387         estimate D2E/DX2                !
 ! D103  D(11,12,15,24)        142.8078         estimate D2E/DX2                !
 ! D104  D(11,12,15,57)         -4.3874         estimate D2E/DX2                !
 ! D105  D(13,12,15,24)         -1.966          estimate D2E/DX2                !
 ! D106  D(13,12,15,57)       -149.1612         estimate D2E/DX2                !
 ! D107  D(5,13,25,24)        -150.4613         estimate D2E/DX2                !
 ! D108  D(5,13,25,26)           2.7126         estimate D2E/DX2                !
 ! D109  D(12,13,25,24)         -4.3253         estimate D2E/DX2                !
 ! D110  D(12,13,25,26)        148.8485         estimate D2E/DX2                !
 ! D111  D(45,14,16,17)         -4.2708         estimate D2E/DX2                !
 ! D112  D(45,14,16,58)        132.3522         estimate D2E/DX2                !
 ! D113  D(55,14,16,17)       -147.2549         estimate D2E/DX2                !
 ! D114  D(55,14,16,58)        -10.6319         estimate D2E/DX2                !
 ! D115  D(16,14,45,20)       -145.5187         estimate D2E/DX2                !
 ! D116  D(16,14,45,46)         10.0582         estimate D2E/DX2                !
 ! D117  D(55,14,45,20)          0.6913         estimate D2E/DX2                !
 ! D118  D(55,14,45,46)        156.2682         estimate D2E/DX2                !
 ! D119  D(16,14,55,54)        149.1625         estimate D2E/DX2                !
 ! D120  D(16,14,55,60)          4.388          estimate D2E/DX2                !
 ! D121  D(45,14,55,54)          1.9715         estimate D2E/DX2                !
 ! D122  D(45,14,55,60)       -142.803          estimate D2E/DX2                !
 ! D123  D(12,15,24,23)       -156.2631         estimate D2E/DX2                !
 ! D124  D(12,15,24,25)         -0.7004         estimate D2E/DX2                !
 ! D125  D(57,15,24,23)        -10.0494         estimate D2E/DX2                !
 ! D126  D(57,15,24,25)        145.5134         estimate D2E/DX2                !
 ! D127  D(12,15,57,56)        147.2569         estimate D2E/DX2                !
 ! D128  D(12,15,57,58)         10.6306         estimate D2E/DX2                !
 ! D129  D(24,15,57,56)          4.2674         estimate D2E/DX2                !
 ! D130  D(24,15,57,58)       -132.3588         estimate D2E/DX2                !
 ! D131  D(14,16,17,48)         -4.5132         estimate D2E/DX2                !
 ! D132  D(14,16,17,56)        136.4205         estimate D2E/DX2                !
 ! D133  D(58,16,17,48)       -145.3691         estimate D2E/DX2                !
 ! D134  D(58,16,17,56)         -4.4353         estimate D2E/DX2                !
 ! D135  D(14,16,58,57)       -133.4427         estimate D2E/DX2                !
 ! D136  D(14,16,58,59)          8.1765         estimate D2E/DX2                !
 ! D137  D(17,16,58,57)          7.0896         estimate D2E/DX2                !
 ! D138  D(17,16,58,59)        148.7088         estimate D2E/DX2                !
 ! D139  D(16,17,48,46)          7.6759         estimate D2E/DX2                !
 ! D140  D(16,17,48,50)        150.5347         estimate D2E/DX2                !
 ! D141  D(56,17,48,46)       -128.5444         estimate D2E/DX2                !
 ! D142  D(56,17,48,50)         14.3145         estimate D2E/DX2                !
 ! D143  D(16,17,56,22)       -140.6126         estimate D2E/DX2                !
 ! D144  D(16,17,56,57)          0.0            estimate D2E/DX2                !
 ! D145  D(48,17,56,22)         -0.0026         estimate D2E/DX2                !
 ! D146  D(48,17,56,57)        140.61           estimate D2E/DX2                !
 ! D147  D(40,18,19,20)          5.4427         estimate D2E/DX2                !
 ! D148  D(40,18,19,51)        155.1375         estimate D2E/DX2                !
 ! D149  D(47,18,19,20)       -146.6552         estimate D2E/DX2                !
 ! D150  D(47,18,19,51)          3.0396         estimate D2E/DX2                !
 ! D151  D(19,18,40,32)       -142.5793         estimate D2E/DX2                !
 ! D152  D(19,18,40,37)         14.2325         estimate D2E/DX2                !
 ! D153  D(47,18,40,32)          6.8437         estimate D2E/DX2                !
 ! D154  D(47,18,40,37)        163.6555         estimate D2E/DX2                !
 ! D155  D(19,18,47,44)        145.5187         estimate D2E/DX2                !
 ! D156  D(19,18,47,49)         -0.6914         estimate D2E/DX2                !
 ! D157  D(40,18,47,44)        -10.0582         estimate D2E/DX2                !
 ! D158  D(40,18,47,49)       -156.2682         estimate D2E/DX2                !
 ! D159  D(18,19,20,45)          0.0001         estimate D2E/DX2                !
 ! D160  D(18,19,20,54)        146.6594         estimate D2E/DX2                !
 ! D161  D(51,19,20,45)       -146.6593         estimate D2E/DX2                !
 ! D162  D(51,19,20,54)          0.0            estimate D2E/DX2                !
 ! D163  D(18,19,51,49)         -4.3192         estimate D2E/DX2                !
 ! D164  D(18,19,51,52)       -150.4536         estimate D2E/DX2                !
 ! D165  D(20,19,51,49)        148.8474         estimate D2E/DX2                !
 ! D166  D(20,19,51,52)          2.713          estimate D2E/DX2                !
 ! D167  D(19,20,45,14)        146.6551         estimate D2E/DX2                !
 ! D168  D(19,20,45,46)         -5.4428         estimate D2E/DX2                !
 ! D169  D(54,20,45,14)         -3.0396         estimate D2E/DX2                !
 ! D170  D(54,20,45,46)       -155.1375         estimate D2E/DX2                !
 ! D171  D(19,20,54,53)         -2.713          estimate D2E/DX2                !
 ! D172  D(19,20,54,55)       -148.8474         estimate D2E/DX2                !
 ! D173  D(45,20,54,53)        150.4536         estimate D2E/DX2                !
 ! D174  D(45,20,54,55)          4.3192         estimate D2E/DX2                !
 ! D175  D(10,21,22,23)          7.7132         estimate D2E/DX2                !
 ! D176  D(10,21,22,56)        154.8311         estimate D2E/DX2                !
 ! D177  D(50,21,22,23)       -132.8791         estimate D2E/DX2                !
 ! D178  D(50,21,22,56)         14.2388         estimate D2E/DX2                !
 ! D179  D(10,21,50,33)         -0.0068         estimate D2E/DX2                !
 ! D180  D(10,21,50,48)       -135.9227         estimate D2E/DX2                !
 ! D181  D(22,21,50,33)        135.9099         estimate D2E/DX2                !
 ! D182  D(22,21,50,48)         -0.006          estimate D2E/DX2                !
 ! D183  D(21,22,23,7)         -13.3882         estimate D2E/DX2                !
 ! D184  D(21,22,23,24)        147.9147         estimate D2E/DX2                !
 ! D185  D(56,22,23,7)        -159.4901         estimate D2E/DX2                !
 ! D186  D(56,22,23,24)          1.8129         estimate D2E/DX2                !
 ! D187  D(21,22,56,17)        -14.3149         estimate D2E/DX2                !
 ! D188  D(21,22,56,57)       -150.5353         estimate D2E/DX2                !
 ! D189  D(23,22,56,17)        128.543          estimate D2E/DX2                !
 ! D190  D(23,22,56,57)         -7.6773         estimate D2E/DX2                !
 ! D191  D(7,23,24,15)         163.6559         estimate D2E/DX2                !
 ! D192  D(7,23,24,25)          14.249          estimate D2E/DX2                !
 ! D193  D(22,23,24,15)          6.833          estimate D2E/DX2                !
 ! D194  D(22,23,24,25)       -142.5739         estimate D2E/DX2                !
 ! D195  D(15,24,25,13)          3.0487         estimate D2E/DX2                !
 ! D196  D(15,24,25,26)       -146.6529         estimate D2E/DX2                !
 ! D197  D(23,24,25,13)        155.1339         estimate D2E/DX2                !
 ! D198  D(23,24,25,26)          5.4323         estimate D2E/DX2                !
 ! D199  D(13,25,26,4)           0.0            estimate D2E/DX2                !
 ! D200  D(13,25,26,27)       -146.6676         estimate D2E/DX2                !
 ! D201  D(24,25,26,4)         146.6676         estimate D2E/DX2                !
 ! D202  D(24,25,26,27)          0.0            estimate D2E/DX2                !
 ! D203  D(4,26,27,28)        -155.1339         estimate D2E/DX2                !
 ! D204  D(4,26,27,38)          -3.0487         estimate D2E/DX2                !
 ! D205  D(25,26,27,28)         -5.4323         estimate D2E/DX2                !
 ! D206  D(25,26,27,38)        146.6529         estimate D2E/DX2                !
 ! D207  D(26,27,28,7)         -14.2491         estimate D2E/DX2                !
 ! D208  D(26,27,28,29)        142.5739         estimate D2E/DX2                !
 ! D209  D(38,27,28,7)        -163.6559         estimate D2E/DX2                !
 ! D210  D(38,27,28,29)         -6.833          estimate D2E/DX2                !
 ! D211  D(26,27,38,36)       -145.5134         estimate D2E/DX2                !
 ! D212  D(26,27,38,39)          0.7004         estimate D2E/DX2                !
 ! D213  D(28,27,38,36)         10.0494         estimate D2E/DX2                !
 ! D214  D(28,27,38,39)        156.2631         estimate D2E/DX2                !
 ! D215  D(7,28,29,30)          13.3882         estimate D2E/DX2                !
 ! D216  D(7,28,29,35)         159.4901         estimate D2E/DX2                !
 ! D217  D(27,28,29,30)       -147.9147         estimate D2E/DX2                !
 ! D218  D(27,28,29,35)         -1.8129         estimate D2E/DX2                !
 ! D219  D(28,29,30,10)         -7.7132         estimate D2E/DX2                !
 ! D220  D(28,29,30,31)        132.8791         estimate D2E/DX2                !
 ! D221  D(35,29,30,10)       -154.8311         estimate D2E/DX2                !
 ! D222  D(35,29,30,31)        -14.2388         estimate D2E/DX2                !
 ! D223  D(28,29,35,34)       -128.543          estimate D2E/DX2                !
 ! D224  D(28,29,35,36)          7.6774         estimate D2E/DX2                !
 ! D225  D(30,29,35,34)         14.3149         estimate D2E/DX2                !
 ! D226  D(30,29,35,36)        150.5353         estimate D2E/DX2                !
 ! D227  D(10,30,31,32)        135.9227         estimate D2E/DX2                !
 ! D228  D(10,30,31,33)          0.0068         estimate D2E/DX2                !
 ! D229  D(29,30,31,32)          0.006          estimate D2E/DX2                !
 ! D230  D(29,30,31,33)       -135.9099         estimate D2E/DX2                !
 ! D231  D(30,31,32,34)         14.2308         estimate D2E/DX2                !
 ! D232  D(30,31,32,40)       -132.8868         estimate D2E/DX2                !
 ! D233  D(33,31,32,34)        154.8237         estimate D2E/DX2                !
 ! D234  D(33,31,32,40)          7.7061         estimate D2E/DX2                !
 ! D235  D(30,31,33,37)        141.5317         estimate D2E/DX2                !
 ! D236  D(30,31,33,50)          6.9952         estimate D2E/DX2                !
 ! D237  D(32,31,33,37)          1.0837         estimate D2E/DX2                !
 ! D238  D(32,31,33,50)       -133.4529         estimate D2E/DX2                !
 ! D239  D(31,32,34,35)        -14.3144         estimate D2E/DX2                !
 ! D240  D(31,32,34,44)       -150.5347         estimate D2E/DX2                !
 ! D241  D(40,32,34,35)        128.5444         estimate D2E/DX2                !
 ! D242  D(40,32,34,44)         -7.6759         estimate D2E/DX2                !
 ! D243  D(31,32,40,18)        147.9062         estimate D2E/DX2                !
 ! D244  D(31,32,40,37)        -13.3908         estimate D2E/DX2                !
 ! D245  D(34,32,40,18)          1.8057         estimate D2E/DX2                !
 ! D246  D(34,32,40,37)       -159.4913         estimate D2E/DX2                !
 ! D247  D(31,33,37,40)         -8.648          estimate D2E/DX2                !
 ! D248  D(31,33,37,46)       -129.8845         estimate D2E/DX2                !
 ! D249  D(31,33,37,68)        110.7337         estimate D2E/DX2                !
 ! D250  D(50,33,37,40)        129.8846         estimate D2E/DX2                !
 ! D251  D(50,33,37,46)          8.648          estimate D2E/DX2                !
 ! D252  D(50,33,37,68)       -110.7337         estimate D2E/DX2                !
 ! D253  D(31,33,50,21)         -6.9952         estimate D2E/DX2                !
 ! D254  D(31,33,50,48)        133.4529         estimate D2E/DX2                !
 ! D255  D(37,33,50,21)       -141.5317         estimate D2E/DX2                !
 ! D256  D(37,33,50,48)         -1.0837         estimate D2E/DX2                !
 ! D257  D(32,34,35,29)          0.0026         estimate D2E/DX2                !
 ! D258  D(32,34,35,36)       -140.6101         estimate D2E/DX2                !
 ! D259  D(44,34,35,29)        140.6127         estimate D2E/DX2                !
 ! D260  D(44,34,35,36)          0.0            estimate D2E/DX2                !
 ! D261  D(32,34,44,43)        145.3691         estimate D2E/DX2                !
 ! D262  D(32,34,44,47)          4.5133         estimate D2E/DX2                !
 ! D263  D(35,34,44,43)          4.4353         estimate D2E/DX2                !
 ! D264  D(35,34,44,47)       -136.4205         estimate D2E/DX2                !
 ! D265  D(29,35,36,38)         -4.5127         estimate D2E/DX2                !
 ! D266  D(29,35,36,43)       -145.3706         estimate D2E/DX2                !
 ! D267  D(34,35,36,38)        136.4225         estimate D2E/DX2                !
 ! D268  D(34,35,36,43)         -4.4353         estimate D2E/DX2                !
 ! D269  D(35,36,38,27)         -4.2674         estimate D2E/DX2                !
 ! D270  D(35,36,38,39)       -147.2568         estimate D2E/DX2                !
 ! D271  D(43,36,38,27)        132.3589         estimate D2E/DX2                !
 ! D272  D(43,36,38,39)        -10.6306         estimate D2E/DX2                !
 ! D273  D(35,36,43,42)        148.7088         estimate D2E/DX2                !
 ! D274  D(35,36,43,44)          7.0899         estimate D2E/DX2                !
 ! D275  D(38,36,43,42)          8.1759         estimate D2E/DX2                !
 ! D276  D(38,36,43,44)       -133.443          estimate D2E/DX2                !
 ! D277  D(33,37,40,18)       -145.7716         estimate D2E/DX2                !
 ! D278  D(33,37,40,32)         12.9786         estimate D2E/DX2                !
 ! D279  D(46,37,40,18)        -36.9173         estimate D2E/DX2                !
 ! D280  D(46,37,40,32)        121.8329         estimate D2E/DX2                !
 ! D281  D(68,37,40,18)         91.8984         estimate D2E/DX2                !
 ! D282  D(68,37,40,32)       -109.3514         estimate D2E/DX2                !
 ! D283  D(33,37,46,45)        145.7716         estimate D2E/DX2                !
 ! D284  D(33,37,46,48)        -12.9786         estimate D2E/DX2                !
 ! D285  D(40,37,46,45)         36.9173         estimate D2E/DX2                !
 ! D286  D(40,37,46,48)       -121.8329         estimate D2E/DX2                !
 ! D287  D(68,37,46,45)        -91.8984         estimate D2E/DX2                !
 ! D288  D(68,37,46,48)        109.3514         estimate D2E/DX2                !
 ! D289  D(27,38,39,4)           1.966          estimate D2E/DX2                !
 ! D290  D(27,38,39,41)       -142.8077         estimate D2E/DX2                !
 ! D291  D(36,38,39,4)         149.1612         estimate D2E/DX2                !
 ! D292  D(36,38,39,41)          4.3875         estimate D2E/DX2                !
 ! D293  D(4,39,41,1)            0.5682         estimate D2E/DX2                !
 ! D294  D(4,39,41,42)        -135.8514         estimate D2E/DX2                !
 ! D295  D(38,39,41,1)         140.8566         estimate D2E/DX2                !
 ! D296  D(38,39,41,42)          4.437          estimate D2E/DX2                !
 ! D297  D(1,41,42,43)        -147.9322         estimate D2E/DX2                !
 ! D298  D(1,41,42,66)          -5.4694         estimate D2E/DX2                !
 ! D299  D(39,41,42,43)         -6.9413         estimate D2E/DX2                !
 ! D300  D(39,41,42,66)        135.5216         estimate D2E/DX2                !
 ! D301  D(41,42,43,36)          0.7024         estimate D2E/DX2                !
 ! D302  D(41,42,43,44)        137.209          estimate D2E/DX2                !
 ! D303  D(66,42,43,36)       -137.2097         estimate D2E/DX2                !
 ! D304  D(66,42,43,44)         -0.7032         estimate D2E/DX2                !
 ! D305  D(41,42,66,49)       -135.5196         estimate D2E/DX2                !
 ! D306  D(41,42,66,65)          5.4686         estimate D2E/DX2                !
 ! D307  D(43,42,66,49)          6.9426         estimate D2E/DX2                !
 ! D308  D(43,42,66,65)        147.9309         estimate D2E/DX2                !
 ! D309  D(36,43,44,34)         -7.0896         estimate D2E/DX2                !
 ! D310  D(36,43,44,47)        133.4427         estimate D2E/DX2                !
 ! D311  D(42,43,44,34)       -148.7088         estimate D2E/DX2                !
 ! D312  D(42,43,44,47)         -8.1765         estimate D2E/DX2                !
 ! D313  D(34,44,47,18)          4.2707         estimate D2E/DX2                !
 ! D314  D(34,44,47,49)        147.2548         estimate D2E/DX2                !
 ! D315  D(43,44,47,18)       -132.3522         estimate D2E/DX2                !
 ! D316  D(43,44,47,49)         10.6319         estimate D2E/DX2                !
 ! D317  D(14,45,46,37)       -163.6555         estimate D2E/DX2                !
 ! D318  D(14,45,46,48)         -6.8437         estimate D2E/DX2                !
 ! D319  D(20,45,46,37)        -14.2325         estimate D2E/DX2                !
 ! D320  D(20,45,46,48)        142.5793         estimate D2E/DX2                !
 ! D321  D(37,46,48,17)        159.4914         estimate D2E/DX2                !
 ! D322  D(37,46,48,50)         13.3909         estimate D2E/DX2                !
 ! D323  D(45,46,48,17)         -1.8057         estimate D2E/DX2                !
 ! D324  D(45,46,48,50)       -147.9062         estimate D2E/DX2                !
 ! D325  D(18,47,49,51)         -1.9714         estimate D2E/DX2                !
 ! D326  D(18,47,49,66)        142.803          estimate D2E/DX2                !
 ! D327  D(44,47,49,51)       -149.1625         estimate D2E/DX2                !
 ! D328  D(44,47,49,66)         -4.3881         estimate D2E/DX2                !
 ! D329  D(17,48,50,21)        -14.2309         estimate D2E/DX2                !
 ! D330  D(17,48,50,33)       -154.8238         estimate D2E/DX2                !
 ! D331  D(46,48,50,21)        132.8868         estimate D2E/DX2                !
 ! D332  D(46,48,50,33)         -7.7061         estimate D2E/DX2                !
 ! D333  D(47,49,51,19)          3.9382         estimate D2E/DX2                !
 ! D334  D(47,49,51,52)        151.6137         estimate D2E/DX2                !
 ! D335  D(66,49,51,19)       -140.9428         estimate D2E/DX2                !
 ! D336  D(66,49,51,52)          6.7327         estimate D2E/DX2                !
 ! D337  D(47,49,66,42)         -4.4377         estimate D2E/DX2                !
 ! D338  D(47,49,66,65)       -140.8542         estimate D2E/DX2                !
 ! D339  D(51,49,66,42)        135.8518         estimate D2E/DX2                !
 ! D340  D(51,49,66,65)         -0.5646         estimate D2E/DX2                !
 ! D341  D(19,51,52,53)         -2.7248         estimate D2E/DX2                !
 ! D342  D(19,51,52,64)        135.3691         estimate D2E/DX2                !
 ! D343  D(49,51,52,53)       -145.8283         estimate D2E/DX2                !
 ! D344  D(49,51,52,64)         -7.7344         estimate D2E/DX2                !
 ! D345  D(51,52,53,54)          0.0            estimate D2E/DX2                !
 ! D346  D(51,52,53,62)        142.7821         estimate D2E/DX2                !
 ! D347  D(64,52,53,54)       -142.782          estimate D2E/DX2                !
 ! D348  D(64,52,53,62)          0.0            estimate D2E/DX2                !
 ! D349  D(51,52,64,63)       -139.7987         estimate D2E/DX2                !
 ! D350  D(51,52,64,65)          2.601          estimate D2E/DX2                !
 ! D351  D(53,52,64,63)          2.1487         estimate D2E/DX2                !
 ! D352  D(53,52,64,65)        144.5484         estimate D2E/DX2                !
 ! D353  D(52,53,54,20)          2.7247         estimate D2E/DX2                !
 ! D354  D(52,53,54,55)        145.8282         estimate D2E/DX2                !
 ! D355  D(62,53,54,20)       -135.3691         estimate D2E/DX2                !
 ! D356  D(62,53,54,55)          7.7344         estimate D2E/DX2                !
 ! D357  D(52,53,62,61)       -144.5484         estimate D2E/DX2                !
 ! D358  D(52,53,62,63)         -2.1487         estimate D2E/DX2                !
 ! D359  D(54,53,62,61)         -2.601          estimate D2E/DX2                !
 ! D360  D(54,53,62,63)        139.7987         estimate D2E/DX2                !
 ! D361  D(20,54,55,14)         -3.9382         estimate D2E/DX2                !
 ! D362  D(20,54,55,60)        140.9429         estimate D2E/DX2                !
 ! D363  D(53,54,55,14)       -151.6137         estimate D2E/DX2                !
 ! D364  D(53,54,55,60)         -6.7327         estimate D2E/DX2                !
 ! D365  D(14,55,60,59)          4.4378         estimate D2E/DX2                !
 ! D366  D(14,55,60,61)        140.8542         estimate D2E/DX2                !
 ! D367  D(54,55,60,59)       -135.8518         estimate D2E/DX2                !
 ! D368  D(54,55,60,61)          0.5646         estimate D2E/DX2                !
 ! D369  D(17,56,57,15)       -136.4226         estimate D2E/DX2                !
 ! D370  D(17,56,57,58)          4.4354         estimate D2E/DX2                !
 ! D371  D(22,56,57,15)          4.5127         estimate D2E/DX2                !
 ! D372  D(22,56,57,58)        145.3706         estimate D2E/DX2                !
 ! D373  D(15,57,58,16)        133.443          estimate D2E/DX2                !
 ! D374  D(15,57,58,59)         -8.1759         estimate D2E/DX2                !
 ! D375  D(56,57,58,16)         -7.0899         estimate D2E/DX2                !
 ! D376  D(56,57,58,59)       -148.7089         estimate D2E/DX2                !
 ! D377  D(16,58,59,11)       -137.209          estimate D2E/DX2                !
 ! D378  D(16,58,59,60)          0.7031         estimate D2E/DX2                !
 ! D379  D(57,58,59,11)         -0.7024         estimate D2E/DX2                !
 ! D380  D(57,58,59,60)        137.2097         estimate D2E/DX2                !
 ! D381  D(11,59,60,55)        135.5196         estimate D2E/DX2                !
 ! D382  D(11,59,60,61)         -5.4686         estimate D2E/DX2                !
 ! D383  D(58,59,60,55)         -6.9426         estimate D2E/DX2                !
 ! D384  D(58,59,60,61)       -147.9308         estimate D2E/DX2                !
 ! D385  D(55,60,61,9)        -137.2467         estimate D2E/DX2                !
 ! D386  D(55,60,61,62)          4.6712         estimate D2E/DX2                !
 ! D387  D(59,60,61,9)           3.3832         estimate D2E/DX2                !
 ! D388  D(59,60,61,62)        145.3011         estimate D2E/DX2                !
 ! D389  D(9,61,62,53)         133.7662         estimate D2E/DX2                !
 ! D390  D(9,61,62,63)          -3.8379         estimate D2E/DX2                !
 ! D391  D(60,61,62,53)         -3.6852         estimate D2E/DX2                !
 ! D392  D(60,61,62,63)       -141.2893         estimate D2E/DX2                !
 ! D393  D(53,62,63,8)        -138.2368         estimate D2E/DX2                !
 ! D394  D(53,62,63,64)          3.4712         estimate D2E/DX2                !
 ! D395  D(61,62,63,8)           3.8346         estimate D2E/DX2                !
 ! D396  D(61,62,63,64)        145.5426         estimate D2E/DX2                !
 ! D397  D(8,63,64,52)         138.2367         estimate D2E/DX2                !
 ! D398  D(8,63,64,65)          -3.8346         estimate D2E/DX2                !
 ! D399  D(62,63,64,52)         -3.4713         estimate D2E/DX2                !
 ! D400  D(62,63,64,65)       -145.5426         estimate D2E/DX2                !
 ! D401  D(52,64,65,1)        -133.7662         estimate D2E/DX2                !
 ! D402  D(52,64,65,66)          3.6852         estimate D2E/DX2                !
 ! D403  D(63,64,65,1)           3.8379         estimate D2E/DX2                !
 ! D404  D(63,64,65,66)        141.2893         estimate D2E/DX2                !
 ! D405  D(1,65,66,42)          -3.3832         estimate D2E/DX2                !
 ! D406  D(1,65,66,49)         137.2467         estimate D2E/DX2                !
 ! D407  D(64,65,66,42)       -145.3011         estimate D2E/DX2                !
 ! D408  D(64,65,66,49)         -4.6712         estimate D2E/DX2                !
 --------------------------------------------------------------------------------
 Trust Radius=3.00D-01 FncErr=1.00D-07 GrdErr=1.00D-06 EigMax=2.50D+02 EigMin=1.00D-04
 Number of steps in this run=    408 maximum allowed number of steps=    408.
 GradGradGradGradGradGradGradGradGradGradGradGradGradGradGradGradGradGrad

 Leave Link  103 at Wed Jul 20 04:17:15 2022, MaxMem=  1342177280 cpu:               1.7 elap:               0.0
 (Enter /home/mkliu/g16/l202.exe)
 Stoichiometry    C66H2
 Framework group  C1[X(C66H2)]
 Deg. of freedom   198
 Full point group                 C1      NOp   1
 Largest Abelian subgroup         C1      NOp   1
 Largest concise Abelian subgroup C1      NOp   1
                         Standard orientation:                         
 ---------------------------------------------------------------------
 Center     Atomic      Atomic             Coordinates (Angstroms)
 Number     Number       Type             X           Y           Z
 ---------------------------------------------------------------------
      1          6           0        3.073241    2.313115   -0.721772
      2          6           0        3.436000    1.166034   -1.410367
      3          6           0        2.630440    0.712941   -2.516849
      4          6           0        1.465722    1.382210   -2.866849
      5          6           0        2.630441   -0.712938   -2.516849
      6          6           0        3.436001   -1.166030   -1.410367
      7          6           0       -2.930208   -0.000001   -2.636051
      8          6           0        3.892172    0.000002   -0.696329
      9          6           0        3.073244   -2.313113   -0.721773
     10          6           0       -3.809074   -0.000002   -1.397147
     11          6           0        1.944680   -3.085408   -1.163703
     12          6           0        1.163669   -2.625292   -2.220995
     13          6           0        1.465724   -1.382208   -2.866849
     14          6           0       -0.256720   -2.772674    2.203507
     15          6           0       -0.257066   -2.772667   -2.203421
     16          6           0       -0.858372   -3.466380    1.157344
     17          6           0       -2.149446   -3.062699    0.724335
     18          6           0       -0.867259    1.604015    2.795777
     19          6           0        0.229742    0.693680    3.177998
     20          6           0        0.229743   -0.693680    3.177998
     21          6           0       -3.735502   -1.209909   -0.708628
     22          6           0       -2.808435   -2.057796   -1.413078
     23          6           0       -2.164777   -1.299044   -2.451065
     24          6           0       -0.867764   -1.604081   -2.795699
     25          6           0        0.229211   -0.693667   -3.177937
     26          6           0        0.229210    0.693668   -3.177937
     27          6           0       -0.867766    1.604081   -2.795699
     28          6           0       -2.164778    1.299042   -2.451065
     29          6           0       -2.808437    2.057793   -1.413078
     30          6           0       -3.735503    1.209905   -0.708628
     31          6           0       -3.735278    1.209893    0.709021
     32          6           0       -2.808153    2.057797    1.413436
     33          6           0       -3.808484   -0.000002    1.397484
     34          6           0       -2.149450    3.062696    0.724335
     35          6           0       -2.149562    3.062693   -0.724035
     36          6           0       -0.858554    3.466375   -1.157152
     37          6           0       -2.929908   -0.000002    2.636244
     38          6           0       -0.257069    2.772668   -2.203420
     39          6           0        1.163666    2.625294   -2.220995
     40          6           0       -2.164300    1.299080    2.451355
     41          6           0        1.944676    3.085410   -1.163702
     42          6           0        1.293095    3.629362   -0.000066
     43          6           0       -0.074853    3.822131    0.000034
     44          6           0       -0.858376    3.466379    1.157345
     45          6           0       -0.867257   -1.604016    2.795777
     46          6           0       -2.164298   -1.299083    2.451354
     47          6           0       -0.256723    2.772674    2.203507
     48          6           0       -2.808151   -2.057801    1.413436
     49          6           0        1.164026    2.625310    2.220882
     50          6           0       -3.735276   -1.209897    0.709021
     51          6           0        1.466205    1.382241    2.866706
[...]
 Alpha virt. eigenvalues --    0.78567   0.79109   0.79385   0.79616   0.80528
 Alpha virt. eigenvalues --    0.80803   0.81397   0.81711   0.82139   0.82528
 Alpha virt. eigenvalues --    0.82899   0.82954   0.83426   0.83485   0.83991
 Alpha virt. eigenvalues --    0.84248   0.84318   0.84985   0.85622   0.85678
 Alpha virt. eigenvalues --    0.85757   0.86898   0.87190   0.87413   0.87587
 Alpha virt. eigenvalues --    0.88967   0.89774   0.89992   0.90322   0.91004
 Alpha virt. eigenvalues --    0.91093   0.91743   0.91996   0.92553   0.92710
 Alpha virt. eigenvalues --    0.92770   0.93012   0.93632   0.94010   0.94521
 Alpha virt. eigenvalues --    0.94740   0.95194   0.95908   0.96010   0.96609
 Alpha virt. eigenvalues --    0.96701   0.97225   0.97611   0.98001   0.98528
 Alpha virt. eigenvalues --    0.98679   0.98821   0.99470   1.00760   1.00846
 Alpha virt. eigenvalues --    1.00941   1.01734   1.03322   1.03541   1.03870
 Alpha virt. eigenvalues --    1.03921   1.04325   1.04439   1.04471   1.05275
 Alpha virt. eigenvalues --    1.05306   1.05897   1.05925   1.06351   1.06874
 Alpha virt. eigenvalues --    1.06922   1.07354   1.08042   1.09157   1.09331
 Alpha virt. eigenvalues --    1.09387   1.10097   1.10647   1.10905   1.11520
 Alpha virt. eigenvalues --    1.11837   1.11897   1.12086   1.12644   1.12897
 Alpha virt. eigenvalues --    1.13114   1.13968   1.14642   1.14920   1.15386
 Alpha virt. eigenvalues --    1.16891   1.17302   1.18283   1.18403   1.18408
 Alpha virt. eigenvalues --    1.18832   1.19917   1.19951   1.20389   1.20472
 Alpha virt. eigenvalues --    1.20803   1.20936   1.21943   1.22319   1.23202
 Alpha virt. eigenvalues --    1.23322   1.24129   1.24502   1.24706   1.25445
 Alpha virt. eigenvalues --    1.26170   1.26182   1.26539   1.27044   1.27183
 Alpha virt. eigenvalues --    1.27490   1.28422   1.29200   1.29314   1.29365
 Alpha virt. eigenvalues --    1.30279   1.31074   1.31409   1.31763   1.31879
 Alpha virt. eigenvalues --    1.33217   1.33220   1.33416   1.33633   1.33979
 Alpha virt. eigenvalues --    1.34327   1.34766   1.35163   1.35472   1.35644
 Alpha virt. eigenvalues --    1.35700   1.35962   1.36687   1.37376   1.37418
 Alpha virt. eigenvalues --    1.37575   1.38190   1.38227   1.38399   1.38642
 Alpha virt. eigenvalues --    1.38689   1.39907   1.40068   1.40287   1.40828
 Alpha virt. eigenvalues --    1.40873   1.41952   1.42088   1.42328   1.42605
 Alpha virt. eigenvalues --    1.42928   1.43411   1.43623   1.43839   1.43865
 Alpha virt. eigenvalues --    1.44189   1.44632   1.44830   1.45089   1.45288
 Alpha virt. eigenvalues --    1.45393   1.45945   1.46195   1.46409   1.46698
 Alpha virt. eigenvalues --    1.46729   1.47088   1.47192   1.47200   1.47368
 Alpha virt. eigenvalues --    1.47712   1.47942   1.48298   1.48394   1.48884
 Alpha virt. eigenvalues --    1.49425   1.49752   1.49770   1.50000   1.50035
 Alpha virt. eigenvalues --    1.50353   1.50665   1.51058   1.51148   1.51873
 Alpha virt. eigenvalues --    1.52096   1.52188   1.52255   1.52758   1.52823
 Alpha virt. eigenvalues --    1.52996   1.54050   1.54591   1.54987   1.55209
 Alpha virt. eigenvalues --    1.55489   1.55693   1.55797   1.56208   1.56907
 Alpha virt. eigenvalues --    1.57057   1.57508   1.57708   1.57983   1.58082
 Alpha virt. eigenvalues --    1.59438   1.59758   1.59920   1.60825   1.61129
 Alpha virt. eigenvalues --    1.61952   1.62332   1.63043   1.63099   1.63239
 Alpha virt. eigenvalues --    1.63493   1.64346   1.64909   1.65433   1.65660
 Alpha virt. eigenvalues --    1.65855   1.66124   1.67338   1.67359   1.67903
 Alpha virt. eigenvalues --    1.68079   1.68097   1.69137   1.69360   1.69408
 Alpha virt. eigenvalues --    1.70185   1.70642   1.70744   1.70887   1.72223
 Alpha virt. eigenvalues --    1.72295   1.73204   1.73788   1.74117   1.74193
 Alpha virt. eigenvalues --    1.74257   1.74744   1.75228   1.75867   1.76071
 Alpha virt. eigenvalues --    1.76142   1.76744   1.76862   1.77892   1.77899
 Alpha virt. eigenvalues --    1.77959   1.78407   1.78936   1.79303   1.79368
 Alpha virt. eigenvalues --    1.79926   1.80835   1.81075   1.81277   1.81310
 Alpha virt. eigenvalues --    1.81862   1.82232   1.82646   1.82668   1.83284
 Alpha virt. eigenvalues --    1.83922   1.83948   1.85075   1.85949   1.86046
 Alpha virt. eigenvalues --    1.87115   1.87701   1.88108   1.88391   1.88406
 Alpha virt. eigenvalues --    1.88735   1.89705   1.90580   1.90588   1.90686
 Alpha virt. eigenvalues --    1.90782   1.92102   1.92325   1.92754   1.92861
 Alpha virt. eigenvalues --    1.92864   1.93543   1.94473   1.94988   1.95515
 Alpha virt. eigenvalues --    1.95715   1.96552   1.96601   1.97105   1.98318
 Alpha virt. eigenvalues --    1.99176   1.99516   2.00043   2.00997   2.01478
 Alpha virt. eigenvalues --    2.01784   2.02242   2.02391   2.02511   2.03099
 Alpha virt. eigenvalues --    2.03237   2.03327   2.03559   2.04446   2.04528
 Alpha virt. eigenvalues --    2.04941   2.04958   2.06563   2.07021   2.07455
 Alpha virt. eigenvalues --    2.08061   2.08300   2.09218   2.09529   2.09641
 Alpha virt. eigenvalues --    2.10018   2.10256   2.11173   2.11379   2.11612
 Alpha virt. eigenvalues --    2.11874   2.11901   2.12752   2.13348   2.14419
 Alpha virt. eigenvalues --    2.15567   2.15791   2.16593   2.17690   2.17742
 Alpha virt. eigenvalues --    2.17927   2.18398   2.19444   2.20635   2.20812
 Alpha virt. eigenvalues --    2.20844   2.21240   2.21932   2.22681   2.23413
 Alpha virt. eigenvalues --    2.23422   2.23776   2.24828   2.25077   2.25178
 Alpha virt. eigenvalues --    2.26264   2.26429   2.28072   2.28477   2.29628
 Alpha virt. eigenvalues --    2.29703   2.30136   2.30509   2.30578   2.31203
 Alpha virt. eigenvalues --    2.31892   2.32304   2.32474   2.32888   2.33360
 Alpha virt. eigenvalues --    2.34399   2.35205   2.35984   2.37585   2.38017
 Alpha virt. eigenvalues --    2.38243   2.38644   2.39026   2.39989   2.40016
 Alpha virt. eigenvalues --    2.40383   2.40699   2.41382   2.41423   2.41437
 Alpha virt. eigenvalues --    2.42459   2.42819   2.43090   2.44266   2.44721
 Alpha virt. eigenvalues --    2.44820   2.44827   2.45640   2.46089   2.46527
 Alpha virt. eigenvalues --    2.46562   2.47366   2.47504   2.48626   2.49421
 Alpha virt. eigenvalues --    2.50294   2.50926   2.51160   2.52325   2.53025
 Alpha virt. eigenvalues --    2.53220   2.53869   2.54814   2.54844   2.55459
 Alpha virt. eigenvalues --    2.55708   2.56094   2.56419   2.57184   2.57448
 Alpha virt. eigenvalues --    2.57579   2.57738   2.58059   2.58093   2.58153
 Alpha virt. eigenvalues --    2.59366   2.60064   2.60251   2.60599   2.60936
 Alpha virt. eigenvalues --    2.61466   2.63223   2.63389   2.63410   2.64794
 Alpha virt. eigenvalues --    2.64848   2.65406   2.65676   2.66212   2.66473
 Alpha virt. eigenvalues --    2.66742   2.69132   2.69373   2.69827   2.70501
 Alpha virt. eigenvalues --    2.70691   2.71186   2.71768   2.72735   2.73766
 Alpha virt. eigenvalues --    2.74015   2.75400   2.75924   2.77290   2.78520
 Alpha virt. eigenvalues --    2.78607   2.79566   2.79893   2.80827   2.80928
 Alpha virt. eigenvalues --    2.83678   2.83735   2.83768   2.84484   2.84508
 Alpha virt. eigenvalues --    2.84654   2.85821   2.85977   2.88656   2.88848
 Alpha virt. eigenvalues --    2.88954   2.90517   2.91823   2.91913   2.92051
 Alpha virt. eigenvalues --    2.92976   2.93400   2.93526   2.94738   2.95022
 Alpha virt. eigenvalues --    2.96380   2.97193   2.97932   2.98309   2.98628
 Alpha virt. eigenvalues --    2.99194   2.99275   2.99703   2.99743   3.00515
 Alpha virt. eigenvalues --    3.00554   3.00745   3.01039   3.01424   3.02431
 Alpha virt. eigenvalues --    3.03055   3.03127   3.03530   3.04152   3.04261
 Alpha virt. eigenvalues --    3.04354   3.04456   3.04498   3.04748   3.05241
 Alpha virt. eigenvalues --    3.05563   3.06024   3.06171   3.06515   3.06902
 Alpha virt. eigenvalues --    3.07573   3.07668   3.08225   3.08343   3.08356
 Alpha virt. eigenvalues --    3.08687   3.09698   3.10620   3.10977   3.11034
 Alpha virt. eigenvalues --    3.11174   3.11327   3.12330   3.12634   3.12666
 Alpha virt. eigenvalues --    3.13190   3.13260   3.13304   3.14177   3.14254
 Alpha virt. eigenvalues --    3.14764   3.14909   3.15029   3.15345   3.15648
 Alpha virt. eigenvalues --    3.16026   3.16161   3.16653   3.16788   3.16844
 Alpha virt. eigenvalues --    3.17372   3.17936   3.17990   3.19677   3.19910
 Alpha virt. eigenvalues --    3.20360   3.20837   3.20929   3.21495   3.22366
 Alpha virt. eigenvalues --    3.22458   3.23485   3.26250   3.27359   3.28212
 Alpha virt. eigenvalues --    3.35527   3.39651   3.40569   3.41585   3.43482
 Alpha virt. eigenvalues --    3.44154   3.46469   3.47221   3.49327   3.49714
 Alpha virt. eigenvalues --    3.51028   3.51379   3.53257   3.54326   3.55571
 Alpha virt. eigenvalues --    3.55589   3.55728   3.56271   3.56842   3.59400
 Alpha virt. eigenvalues --    3.59829   3.60035   3.60292   3.61129   3.63178
 Alpha virt. eigenvalues --    3.63569   3.64992   3.65294   3.66269   3.67246
 Alpha virt. eigenvalues --    3.67682   3.68594   3.70132   3.70183   3.70267
 Alpha virt. eigenvalues --    3.70468   3.72795   3.74658   3.75065   3.75280
 Alpha virt. eigenvalues --    3.77170   3.78270   3.78900   3.80786   3.81470
 Alpha virt. eigenvalues --    3.82404   3.84206   3.85060   3.85761   3.85967
 Alpha virt. eigenvalues --    3.87102   3.87848   3.88659   3.89402   3.89700
 Alpha virt. eigenvalues --    3.90478   3.90792   3.91773   3.92580   3.93055
 Alpha virt. eigenvalues --    3.95360   3.95738   3.98914   3.99786   4.02187
 Alpha virt. eigenvalues --    4.07001   4.21191   4.23693   4.23823   4.26853
 Alpha virt. eigenvalues --    4.31118   4.35569   4.36992   4.38014   4.40986
 Alpha virt. eigenvalues --    4.41021   4.42710   4.43016   4.44853   4.56279
 Alpha virt. eigenvalues --    4.57997   4.62037   4.62175   4.63805   4.63975
 Alpha virt. eigenvalues --    4.65739   4.69242   4.74202   4.77104   4.78031
 Alpha virt. eigenvalues --    4.86609   4.88356   4.88645   4.95083   4.97939
 Alpha virt. eigenvalues --    5.00295   5.02758   5.04737   5.05318   5.06616
 Alpha virt. eigenvalues --   23.01706  23.20466  23.23535  23.24474  23.44430
 Alpha virt. eigenvalues --   23.45314  23.45469  23.49865  23.50805  23.61973
 Alpha virt. eigenvalues --   23.64772  23.66340  23.67564  23.73685  23.73957
 Alpha virt. eigenvalues --   23.76749  23.78831  23.80687  23.82204  23.82862
 Alpha virt. eigenvalues --   23.84345  23.87372  23.88648  23.89308  23.90685
 Alpha virt. eigenvalues --   23.91699  23.93354  23.94215  23.94968  23.96109
 Alpha virt. eigenvalues --   23.96262  23.96627  23.97735  23.97941  23.98971
 Alpha virt. eigenvalues --   23.99273  23.99479  23.99591  23.99634  24.00165
 Alpha virt. eigenvalues --   24.00493  24.01570  24.02334  24.02566  24.03453
 Alpha virt. eigenvalues --   24.06806  24.07244  24.07414  24.07927  24.08423
 Alpha virt. eigenvalues --   24.09435  24.09727  24.10081  24.10107  24.10193
 Alpha virt. eigenvalues --   24.10883  24.11569  24.11648  24.11785  24.12447
 Alpha virt. eigenvalues --   24.12925  24.12955  24.13688  24.13702  24.14539
 Alpha virt. eigenvalues --   24.17196
          Condensed to atoms (all electrons):
 Mulliken charges:
               1
     1  C   -0.003361
     2  C   -0.001033
     3  C   -0.003467
     4  C   -0.003529
     5  C   -0.003467
     6  C   -0.001033
     7  C   -0.142349
     8  C   -0.000459
     9  C   -0.003361
    10  C   -0.037376
    11  C    0.004188
    12  C   -0.002563
    13  C   -0.003529
    14  C   -0.001861
    15  C   -0.001862
    16  C   -0.001214
    17  C   -0.010989
    18  C    0.018623
    19  C   -0.001716
    20  C   -0.001716
    21  C    0.029987
    22  C    0.015116
    23  C   -0.033193
    24  C    0.018625
    25  C   -0.001716
    26  C   -0.001716
    27  C    0.018625
    28  C   -0.033193
    29  C    0.015116
    30  C    0.029987
    31  C    0.029985
    32  C    0.015115
    33  C   -0.037370
    34  C   -0.010989
    35  C   -0.010991
    36  C   -0.001214
    37  C   -0.142350
    38  C   -0.001862
    39  C   -0.002563
    40  C   -0.033192
    41  C    0.004188
    42  C   -0.003639
    43  C   -0.007896
    44  C   -0.001214
    45  C    0.018623
    46  C   -0.033192
    47  C   -0.001861
    48  C    0.015115
    49  C   -0.002563
    50  C    0.029985
    51  C   -0.003529
    52  C   -0.003467
    53  C   -0.003467
    54  C   -0.003529
    55  C   -0.002563
    56  C   -0.010991
    57  C   -0.001214
    58  C   -0.007896
    59  C   -0.003639
    60  C    0.004188
    61  C   -0.003361
    62  C   -0.001033
    63  C   -0.000459
    64  C   -0.001033
    65  C   -0.003361
    66  C    0.004188
    67  H    0.181746
    68  H    0.181747
 Sum of Mulliken charges =  -0.00000
 Mulliken charges with hydrogens summed into heavy atoms:
               1
     1  C   -0.003361
     2  C   -0.001033
     3  C   -0.003467
     4  C   -0.003529
     5  C   -0.003467
     6  C   -0.001033
     7  C    0.039397
     8  C   -0.000459
     9  C   -0.003361
    10  C   -0.037376
    11  C    0.004188
    12  C   -0.002563
    13  C   -0.003529
    14  C   -0.001861
    15  C   -0.001862
    16  C   -0.001214
    17  C   -0.010989
    18  C    0.018623
    19  C   -0.001716
    20  C   -0.001716
    21  C    0.029987
    22  C    0.015116
    23  C   -0.033193
    24  C    0.018625
    25  C   -0.001716
    26  C   -0.001716
    27  C    0.018625
    28  C   -0.033193
    29  C    0.015116
    30  C    0.029987
    31  C    0.029985
    32  C    0.015115
    33  C   -0.037370
    34  C   -0.010989
    35  C   -0.010991
    36  C   -0.001214
    37  C    0.039397
    38  C   -0.001862
    39  C   -0.002563
    40  C   -0.033192
    41  C    0.004188
    42  C   -0.003639
    43  C   -0.007896
    44  C   -0.001214
    45  C    0.018623
    46  C   -0.033192
    47  C   -0.001861
    48  C    0.015115
    49  C   -0.002563
    50  C    0.029985
    51  C   -0.003529
    52  C   -0.003467
    53  C   -0.003467
    54  C   -0.003529
    55  C   -0.002563
    56  C   -0.010991
    57  C   -0.001214
    58  C   -0.007896
    59  C   -0.003639
    60  C    0.004188
    61  C   -0.003361
    62  C   -0.001033
    63  C   -0.000459
    64  C   -0.001033
    65  C   -0.003361
    66  C    0.004188
 Electronic spatial extent (au):  <R**2>=          20798.7409
 Charge=             -0.0000 electrons
 Dipole moment (field-independent basis, Debye):
    X=             -2.4902    Y=             -0.0000    Z=              0.0000  Tot=              2.4902
 Quadrupole moment (field-independent basis, Debye-Ang):
   XX=           -363.1885   YY=           -375.5144   ZZ=           -361.5562
   XY=             -0.0000   XZ=             -0.0000   YZ=              0.0000
 Traceless Quadrupole moment (field-independent basis, Debye-Ang):
   XX=              3.5646   YY=             -8.7614   ZZ=              5.1969
   XY=             -0.0000   XZ=             -0.0000   YZ=              0.0000
 Octapole moment (field-independent basis, Debye-Ang**2):
  XXX=            -41.2509  YYY=             -0.0000  ZZZ=             -0.0000  XYY=              3.8625
  XXY=              0.0000  XXZ=              0.0003  XZZ=            -49.0696  YZZ=             -0.0000
  YYZ=             -0.0001  XYZ=             -0.0000
 Hexadecapole moment (field-independent basis, Debye-Ang**3):
 XXXX=         -12349.6110 YYYY=         -11171.8777 ZZZZ=          -8702.2948 XXXY=             -0.0000
 XXXZ=             -0.0014 YYYX=             -0.0000 YYYZ=             -0.0000 ZZZX=              0.0004
 ZZZY=              0.0000 XXYY=          -3936.0559 XXZZ=          -3386.4886 YYZZ=          -3350.6103
 XXYZ=              0.0000 YYXZ=              0.0003 ZZXY=             -0.0000
 N-N= 9.743132902211D+03 E-N=-2.532121939365D+04  KE= 2.506309216365D+03
 No NMR shielding tensors so no spin-rotation constants.
 Leave Link  601 at Wed Jul 20 04:47:16 2022, MaxMem=  1342177280 cpu:              55.1 elap:               1.4
 (Enter /home/mkliu/g16/l9999.exe)
 1\1\GINC-NODE02\FOpt\RB3LYP\6-311G(d,p)\C66H2\MKLIU\20-Jul-2022\0\\#P 
 opt b3lyp/6-311G(d, p) empiricaldispersion=GD3\\force\\0,1\C,12.797348
 0025,12.0858497447,21.8925752816\C,12.8047228469,13.0310075542,22.9115
 669079\C,12.6820696174,14.4417576767,22.5879869035\C,12.6073044505,14.
 8575738707,21.2618812782\C,13.4890134509,15.1866302058,23.5062759403\C
 ,14.1272880228,14.251839058,24.4166246892\C,15.6270647619,17.345196898
 1,18.7607456588\C,13.7394455273,12.9137822919,24.0140389812\C,15.41598
 76115,14.5030597212,24.8725448036\C,16.8943299967,16.8168641206,18.075
 6984826\C,16.0852830706,15.728633603,24.5013496957\C,15.4695237977,16.
 6120170534,23.6074950117\C,14.1768730025,16.3064088811,23.0480249044\C
 ,19.2526324363,14.0509660116,22.60216803\C,16.2365244835,17.3047007024
 ,22.6132862335\C,19.2133297364,15.4488978574,22.5805118124\C,19.298712
 7388,16.124674044,21.3303162476\C,17.463048685,11.5807061116,19.293104
 1941\C,17.7279905129,11.2925539353,20.7367148983\C,18.5144449028,12.01
 85131034,21.6316872734\C,18.0071859882,16.908180518,18.9118320688\C,17
 .5787244734,17.4649132903,20.1803953464\C,16.1326706421,17.5564472427,
 20.1928076611\C,15.4564335205,17.408446488,21.3895429235\C,14.15073027
 07,16.7260285186,21.6477756067\C,13.3642758746,16.0000693701,20.752803
 2444\C,13.6266224871,15.7193872341,19.3072475651\C,14.6517619216,16.18
 94522164,18.5075574942\C,15.2415074932,15.3074784985,17.5206802281\C,1
 6.6416954885,15.6477255726,17.3579259665\C,17.6131818817,14.5996993601
 ,17.3543406406\C,17.1684765791,13.2286898623,17.5135730587\C,18.800524
 0082,14.7604791747,18.0686779661\C,15.8230226675,12.9163391963,17.3750
 371635\C,14.827736365,13.9900402429,17.378708472\C,13.6982489874,13.53
 28822241,18.115058674\C,19.2337463456,13.4543607765,18.7474463812\C,13
 .0868075151,14.3972646315,19.0289592715\C,12.4945773955,13.8659079314,
 20.2220541223\C,18.0066370419,12.5702569849,18.4951881145\C,12.5907954
 589,12.5029471584,20.5246793204\C,13.3863762448,11.6479730349,19.66623
 32474\C,13.9216493483,12.1481659047,18.4922757813\C,15.2841878412,11.8
 219913712,18.1092118801\C,19.2928574022,13.2697632478,21.3753969281\C,
 19.4875472899,13.9372534266,20.1804400231\C,16.1029135549,11.143528165
 2,19.0178388834\C,19.5056960328,15.3861269341,20.1732909922\C,15.53232
 20662,10.5888318362,20.2108544033\C,18.9786750042,15.8601567328,18.908
 2497341\C,16.5332134475,10.6223577068,21.2474070413\C,16.128770846,10.
 7235044384,22.5752791067\C,16.9357145178,11.4683768022,23.4935679468\C
 ,18.102781686,12.0711924391,23.0335503143\C,18.5072678206,13.334940356
 1,23.5962945517\C,18.3034251931,17.1983739342,21.3339861391\C,17.62739
 00612,17.1597879504,22.5863576679\C,18.2483235905,16.1420259574,23.415
 9610883\C,17.497641853,15.4429940047,24.3447870146\C,17.6760816975,14.
 0125019926,24.4954848859\C,16.4046320651,13.4365239608,24.868899256\C,
 16.0550290457,12.1722185544,24.4095176255\C,14.6900886333,11.888241898
 5,24.0105338391\C,14.7324636911,10.9513868835,22.9044596384\C,13.78599
 26882,11.0193142053,21.8889300022\C,14.1815938753,10.7868153421,20.518
 8142631\H,15.2411196357,18.2818039911,18.3401625476\H,20.1370137168,13
 .0001874866,18.3221066213\\Version=ES64L-G16RevA.03\State=1-A\HF=-2516
 .5864771\RMSD=7.553e-09\RMSF=5.254e-05\Dipole=0.4596238,0.4286209,-0.7
 515699\Quadrupole=0.2991062,0.8216876,-1.1207938,-3.2929839,-3.3158014
 ,-3.0565837\PG=C01 [X(C66H2)]\\@


 ASKING DUMB QUESTIONS IS EASIER THAN CORECTING DUMB MISTAKES.
 Job cpu time:       0 days 23 hours 47 minutes 41.5 seconds.
 Elapsed time:       0 days  0 hours 29 minutes 48.6 seconds.
 File lengths (MBytes):  RWF=    884 Int=      0 D2E=      0 Chk=    109 Scr=      1
 Normal termination of Gaussian 16 at Wed Jul 20 04:47:17 2022.
