 Entering Gaussian System, Link 0=g16
 Input=dihept_2_addons_10.gjf
 Output=dihept_2_addons_10.log
 Initial command:
 /home/mkliu/g16/l1.exe "/data/scratch/Gau-176592.inp" -scrdir="/data/scratch/"
 Entering Link 1 = /home/mkliu/g16/l1.exe PID=    176593.
  
 Copyright (c) 1988,1990,1992,1993,1995,1998,2003,2009,2016,
            Gaussian, Inc.  All Rights Reserved.
  
 This is part of the Gaussian(R) 16 program.  It is based on
 the Gaussian(R) 09 system (copyright 2009, Gaussian, Inc.),
 the Gaussian(R) 03 system (copyright 2003, Gaussian, Inc.),
 the Gaussian(R) 98 system (copyright 1998, Gaussian, Inc.),
 the Gaussian(R) 94 system (copyright 1995, Gaussian, Inc.),
 the Gaussian 92(TM) system (copyright 1992, Gaussian, Inc.),
 the Gaussian 90(TM) system (copyright 1990, Gaussian, Inc.),
 the Gaussian 88(TM) system (copyright 1988, Gaussian, Inc.),
 the Gaussian 86(TM) system (copyright 1986, Carnegie Mellon
 University), and the Gaussian 82(TM) system (copyright 1983,
 Carnegie Mellon University). Gaussian is a federally registered
 trademark of Gaussian, Inc.
  
 This software contains proprietary and confidential information,
 including trade secrets, belonging to Gaussian, Inc.
  
 This software is provided under written license and may be
 used, copied, transmitted, or stored only in accord with that
 written license.
  
 The following legend is applicable only to US Government
 contracts under FAR:
  
                    RESTRICTED RIGHTS LEGEND
  
 Use, reproduction and disclosure by the US Government is
 subject to restrictions as set forth in subparagraphs (a)
 and (c) of the Commercial Computer Software - Restricted
 Rights clause in FAR 52.227-19.
  
 Gaussian, Inc.
 340 Quinnipiac St., Bldg. 40, Wallingford CT 06492
  
  
 ---------------------------------------------------------------
 Warning -- This program may not be used in any manner that
 competes with the business of Gaussian, Inc. or will provide
 assistance to any competitor of Gaussian, Inc.  The licensee
 of this program is prohibited from giving any competitor of
 Gaussian, Inc. access to this program.  By using this program,
 the user acknowledges that Gaussian, Inc. is engaged in the
 business of creating and licensing software in the field of
 computational chemistry and represents and warrants to the
 licensee that it is not a competitor of Gaussian, Inc. and that
 it will not use this program in any manner prohibited above.
 ---------------------------------------------------------------
  

 Cite this work as:
 Gaussian 16, Revision A.03,
 M. J. Frisch, G. W. Trucks, H. B. Schlegel, G. E. Scuseria, 
 M. A. Robb, J. R. Cheeseman, G. Scalmani, V. Barone, 
 G. A. Petersson, H. Nakatsuji, X. Li, M. Caricato, A. V. Marenich, 
 J. Bloino, B. G. Janesko, R. Gomperts, B. Mennucci, H. P. Hratchian, 
 J. V. Ortiz, A. F. Izmaylov, J. L. Sonnenberg, D. Williams-Young, 
 F. Ding, F. Lipparini, F. Egidi, J. Goings, B. Peng, A. Petrone, 
 T. Henderson, D. Ranasinghe, V. G. Zakrzewski, J. Gao, N. Rega, 
 G. Zheng, W. Liang, M. Hada, M. Ehara, K. Toyota, R. Fukuda, 
 J. Hasegawa, M. Ishida, T. Nakajima, Y. Honda, O. Kitao, H. Nakai, 
 T. Vreven, K. Throssell, J. A. Montgomery, Jr., J. E. Peralta, 
 F. Ogliaro, M. J. Bearpark, J. J. Heyd, E. N. Brothers, K. N. Kudin, 
 V. N. Staroverov, T. A. Keith, R. Kobayashi, J. Normand, 
 K. Raghavachari, A. P. Rendell, J. C. Burant, S. S. Iyengar, 
 J. Tomasi, M. Cossi, J. M. Millam, M. Klene, C. Adamo, R. Cammi, 
 J. W. Ochterski, R. L. Martin, K. Morokuma, O. Farkas, 
 J. B. Foresman, and D. J. Fox, Gaussian, Inc., Wallingford CT, 2016.
 
 ******************************************
 Gaussian 16:  ES64L-G16RevA.03 25-Dec-2016
                20-Jul-2022 
 ******************************************
 %mem=10GB
 %chk=dihept_2_addons_10.chk
 %nprocshared=48
 Will use up to   48 processors via shared memory.
 -------------------------------------------------
 #P opt b3lyp/6-311G(d, p) empiricaldispersion=GD3
 -------------------------------------------------
 1/18=20,19=15,26=3,38=1/1,3;
 2/9=110,12=2,17=6,18=5,40=1/2;
 3/5=4,6=6,7=101,11=2,25=1,30=1,71=1,74=-5,124=31/1,2,3;
 4//1;
 5/5=2,38=5/2;
 6/7=2,8=2,9=2,10=2,28=1/1;
 7//1,2,3,16;
 1/18=20,19=15,26=3/3(2);
 2/9=110/2;
 99//99;
 2/9=110/2;
 3/5=4,6=6,7=101,11=2,25=1,30=1,71=1,74=-5,124=31/1,2,3;
 4/5=5,16=3,69=1/1;
 5/5=2,38=5/2;
 7//1,2,3,16;
 1/18=20,19=15,26=3/3(-5);
 2/9=110/2;
 6/7=2,8=2,9=2,10=2,19=2,28=1/1;
 99/9=1/99;
 Leave Link    1 at Wed Jul 20 14:03:01 2022, MaxMem=  1342177280 cpu:               2.0 elap:               0.0
 (Enter /home/mkliu/g16/l101.exe)
 -----
 force
 -----
 Symbolic Z-matrix:
 Charge =  0 Multiplicity = 1
 C                     12.81568   12.09167   21.88631 
 C                     12.82481   13.03442   22.90136 
 C                     12.70571   14.43426   22.57786 
 C                     12.636    14.85238   21.25593 
 C                     13.50936   15.17609   23.49239 
 C                     14.13999   14.24844   24.39801 
 C                     15.64192   17.32206   18.76645 
 C                     13.75274   12.91689   23.99983 
 C                     15.42379   14.49916   24.85429 
 C                     16.899    16.81151   18.07594 
 C                     16.08836   15.71859   24.48503 
 C                     15.47421   16.5982   23.59455 
 C                     14.19468   16.29117   23.02969 
 C                     19.24163   14.03911   22.58832 
 C                     16.23703   17.28122   22.59953 
 C                     19.20415   15.44512   22.57157 
 C                     19.28264   16.1188   21.33636 
 C                     17.44157   11.58933   19.32087 
 C                     17.7023   11.31829   20.74093 
 C                     18.48694   12.04257   21.63383 
 C                     18.01369   16.88731   18.92934 
 C                     17.57086   17.43911   20.18327 
 C                     16.13625   17.52431   20.18859 
 C                     15.46431   17.37169   21.37952 
 C                     14.17564   16.70114   21.63924 
 C                     13.39413   15.97974   20.74989 
 C                     13.6583   15.7046   19.32432 
 C                     14.67497   16.17544   18.52568 
 C                     15.2517   15.29834   17.5441 
 C                     16.64364   15.62265   17.37025 
 C                     17.58016   14.58278   17.33736 
 C                     17.16901   13.25487   17.52182 
 C                     18.92364   14.74055   17.97665 
 C                     15.81624   12.91904   17.39166 
 C                     14.83909   13.98332   17.40299 
 C                     13.7078   13.52873   18.13264 
 C                     19.01871   13.52032   18.8829 
 C                     13.11071   14.39538   19.04183 
 C                     12.51376   13.86547   20.2256 
 C                     18.01464   12.60205   18.52661 
 C                     12.60962   12.50743   20.52627 
 C                     13.40005   11.65778   19.67582 
 C                     13.93381   12.15448   18.50479 
 C                     15.28952   11.83161   18.11679 
 C                     19.2599   13.26778   21.39009 
 C                     19.44909   13.92616   20.15899 
 C                     16.11588   11.15379   19.03126 
 C                     19.48457   15.39231   20.15689 
 C                     15.53437   10.59939   20.21836 
 C                     18.98885   15.88311   18.94042 
 C                     16.52734   10.6404   21.25003 
 C                     16.11942   10.73747   22.57437 
 C                     16.92478   11.48087   23.49085 
 C                     18.08816   12.08116   23.02622 
 C                     18.49639   13.33357   23.58909 
 C                     18.29395   17.17242   21.33456 
 C                     17.62059   17.14054   22.58534 
 C                     18.24     16.12944   23.40516 
 C                     17.48994   15.43307   24.33005 
 C                     17.66854   14.00691   24.48131 
 C                     16.40473   13.43892   24.85342 
 C                     16.0527   12.17558   24.39917 
 C                     14.69459   11.89464   24.00139 
 C                     14.73713   10.9612   22.90207 
 C                     13.79582   11.03069   21.88452 
 C                     14.19237   10.79814   20.52549 
 H                     15.2448   18.25806   18.35618 
 H                     19.73295   14.77164   17.24025 
 
 ITRead=  0  0  0  0  0  0  0  0  0  0  0  0  0  0  0  0  0  0  0  0
 ITRead=  0  0  0  0  0  0  0  0  0  0  0  0  0  0  0  0  0  0  0  0
 ITRead=  0  0  0  0  0  0  0  0  0  0  0  0  0  0  0  0  0  0  0  0
 ITRead=  0  0  0  0  0  0  0  0
 MicOpt= -1 -1 -1 -1 -1 -1 -1 -1 -1 -1 -1 -1 -1 -1 -1 -1 -1 -1 -1 -1
 MicOpt= -1 -1 -1 -1 -1 -1 -1 -1 -1 -1 -1 -1 -1 -1 -1 -1 -1 -1 -1 -1
 MicOpt= -1 -1 -1 -1 -1 -1 -1 -1 -1 -1 -1 -1 -1 -1 -1 -1 -1 -1 -1 -1
 MicOpt= -1 -1 -1 -1 -1 -1 -1 -1
 NAtoms=     68 NQM=       68 NQMF=       0 NMMI=      0 NMMIF=      0
                NMic=       0 NMicF=      0.
                    Isotopes and Nuclear Properties:
 (Nuclear quadrupole moments (NQMom) in fm**2, nuclear magnetic moments (NMagM)
  in nuclear magnetons)

  Atom         1           2           3           4           5           6           7           8           9          10
 IAtWgt=          12          12          12          12          12          12          12          12          12          12
 AtmWgt=  12.0000000  12.0000000  12.0000000  12.0000000  12.0000000  12.0000000  12.0000000  12.0000000  12.0000000  12.0000000
 NucSpn=           0           0           0           0           0           0           0           0           0           0
 AtZEff=  -0.0000000  -0.0000000  -0.0000000  -0.0000000  -0.0000000  -0.0000000  -0.0000000  -0.0000000  -0.0000000  -0.0000000
 NQMom=    0.0000000   0.0000000   0.0000000   0.0000000   0.0000000   0.0000000   0.0000000   0.0000000   0.0000000   0.0000000
 NMagM=    0.0000000   0.0000000   0.0000000   0.0000000   0.0000000   0.0000000   0.0000000   0.0000000   0.0000000   0.0000000
 AtZNuc=   6.0000000   6.0000000   6.0000000   6.0000000   6.0000000   6.0000000   6.0000000   6.0000000   6.0000000   6.0000000

  Atom        11          12          13          14          15          16          17          18          19          20
 IAtWgt=          12          12          12          12          12          12          12          12          12          12
 AtmWgt=  12.0000000  12.0000000  12.0000000  12.0000000  12.0000000  12.0000000  12.0000000  12.0000000  12.0000000  12.0000000
 NucSpn=           0           0           0           0           0           0           0           0           0           0
 AtZEff=  -0.0000000  -0.0000000  -0.0000000  -0.0000000  -0.0000000  -0.0000000  -0.0000000  -0.0000000  -0.0000000  -0.0000000
 NQMom=    0.0000000   0.0000000   0.0000000   0.0000000   0.0000000   0.0000000   0.0000000   0.0000000   0.0000000   0.0000000
 NMagM=    0.0000000   0.0000000   0.0000000   0.0000000   0.0000000   0.0000000   0.0000000   0.0000000   0.0000000   0.0000000
 AtZNuc=   6.0000000   6.0000000   6.0000000   6.0000000   6.0000000   6.0000000   6.0000000   6.0000000   6.0000000   6.0000000

  Atom        21          22          23          24          25          26          27          28          29          30
 IAtWgt=          12          12          12          12          12          12          12          12          12          12
 AtmWgt=  12.0000000  12.0000000  12.0000000  12.0000000  12.0000000  12.0000000  12.0000000  12.0000000  12.0000000  12.0000000
 NucSpn=           0           0           0           0           0           0           0           0           0           0
 AtZEff=  -0.0000000  -0.0000000  -0.0000000  -0.0000000  -0.0000000  -0.0000000  -0.0000000  -0.0000000  -0.0000000  -0.0000000
 NQMom=    0.0000000   0.0000000   0.0000000   0.0000000   0.0000000   0.0000000   0.0000000   0.0000000   0.0000000   0.0000000
 NMagM=    0.0000000   0.0000000   0.0000000   0.0000000   0.0000000   0.0000000   0.0000000   0.0000000   0.0000000   0.0000000
 AtZNuc=   6.0000000   6.0000000   6.0000000   6.0000000   6.0000000   6.0000000   6.0000000   6.0000000   6.0000000   6.0000000

  Atom        31          32          33          34          35          36          37          38          39          40
 IAtWgt=          12          12          12          12          12          12          12          12          12          12
 AtmWgt=  12.0000000  12.0000000  12.0000000  12.0000000  12.0000000  12.0000000  12.0000000  12.0000000  12.0000000  12.0000000
 NucSpn=           0           0           0           0           0           0           0           0           0           0
 AtZEff=  -0.0000000  -0.0000000  -0.0000000  -0.0000000  -0.0000000  -0.0000000  -0.0000000  -0.0000000  -0.0000000  -0.0000000
 NQMom=    0.0000000   0.0000000   0.0000000   0.0000000   0.0000000   0.0000000   0.0000000   0.0000000   0.0000000   0.0000000
 NMagM=    0.0000000   0.0000000   0.0000000   0.0000000   0.0000000   0.0000000   0.0000000   0.0000000   0.0000000   0.0000000
 AtZNuc=   6.0000000   6.0000000   6.0000000   6.0000000   6.0000000   6.0000000   6.0000000   6.0000000   6.0000000   6.0000000

  Atom        41          42          43          44          45          46          47          48          49          50
 IAtWgt=          12          12          12          12          12          12          12          12          12          12
 AtmWgt=  12.0000000  12.0000000  12.0000000  12.0000000  12.0000000  12.0000000  12.0000000  12.0000000  12.0000000  12.0000000
 NucSpn=           0           0           0           0           0           0           0           0           0           0
 AtZEff=  -0.0000000  -0.0000000  -0.0000000  -0.0000000  -0.0000000  -0.0000000  -0.0000000  -0.0000000  -0.0000000  -0.0000000
 NQMom=    0.0000000   0.0000000   0.0000000   0.0000000   0.0000000   0.0000000   0.0000000   0.0000000   0.0000000   0.0000000
 NMagM=    0.0000000   0.0000000   0.0000000   0.0000000   0.0000000   0.0000000   0.0000000   0.0000000   0.0000000   0.0000000
 AtZNuc=   6.0000000   6.0000000   6.0000000   6.0000000   6.0000000   6.0000000   6.0000000   6.0000000   6.0000000   6.0000000

  Atom        51          52          53          54          55          56          57          58          59          60
 IAtWgt=          12          12          12          12          12          12          12          12          12          12
 AtmWgt=  12.0000000  12.0000000  12.0000000  12.0000000  12.0000000  12.0000000  12.0000000  12.0000000  12.0000000  12.0000000
 NucSpn=           0           0           0           0           0           0           0           0           0           0
 AtZEff=  -0.0000000  -0.0000000  -0.0000000  -0.0000000  -0.0000000  -0.0000000  -0.0000000  -0.0000000  -0.0000000  -0.0000000
 NQMom=    0.0000000   0.0000000   0.0000000   0.0000000   0.0000000   0.0000000   0.0000000   0.0000000   0.0000000   0.0000000
 NMagM=    0.0000000   0.0000000   0.0000000   0.0000000   0.0000000   0.0000000   0.0000000   0.0000000   0.0000000   0.0000000
 AtZNuc=   6.0000000   6.0000000   6.0000000   6.0000000   6.0000000   6.0000000   6.0000000   6.0000000   6.0000000   6.0000000

  Atom        61          62          63          64          65          66          67          68
 IAtWgt=          12          12          12          12          12          12           1           1
 AtmWgt=  12.0000000  12.0000000  12.0000000  12.0000000  12.0000000  12.0000000   1.0078250   1.0078250
 NucSpn=           0           0           0           0           0           0           1           1
 AtZEff=  -0.0000000  -0.0000000  -0.0000000  -0.0000000  -0.0000000  -0.0000000  -0.0000000  -0.0000000
 NQMom=    0.0000000   0.0000000   0.0000000   0.0000000   0.0000000   0.0000000   0.0000000   0.0000000
 NMagM=    0.0000000   0.0000000   0.0000000   0.0000000   0.0000000   0.0000000   2.7928460   2.7928460
 AtZNuc=   6.0000000   6.0000000   6.0000000   6.0000000   6.0000000   6.0000000   1.0000000   1.0000000
 Leave Link  101 at Wed Jul 20 14:03:02 2022, MaxMem=  1342177280 cpu:              21.0 elap:               0.5
 (Enter /home/mkliu/g16/l103.exe)

 GradGradGradGradGradGradGradGradGradGradGradGradGradGradGradGradGradGrad
 Berny optimization.
 Initialization pass.
                           ----------------------------
                           !    Initial Parameters    !
                           ! (Angstroms and Degrees)  !
 --------------------------                            --------------------------
 ! Name  Definition              Value          Derivative Info.                !
 --------------------------------------------------------------------------------
 ! R1    R(1,2)                  1.3853         estimate D2E/DX2                !
 ! R2    R(1,41)                 1.437          estimate D2E/DX2                !
 ! R3    R(1,65)                 1.4444         estimate D2E/DX2                !
 ! R4    R(2,3)                  1.4417         estimate D2E/DX2                !
 ! R5    R(2,8)                  1.4428         estimate D2E/DX2                !
 ! R6    R(3,4)                  1.3882         estimate D2E/DX2                !
 ! R7    R(3,5)                  1.4257         estimate D2E/DX2                !
 ! R8    R(4,26)                 1.4498         estimate D2E/DX2                !
 ! R9    R(4,39)                 1.432          estimate D2E/DX2                !
 ! R10   R(5,6)                  1.4417         estimate D2E/DX2                !
 ! R11   R(5,13)                 1.3882         estimate D2E/DX2                !
 ! R12   R(6,8)                  1.4428         estimate D2E/DX2                !
 ! R13   R(6,9)                  1.3853         estimate D2E/DX2                !
 ! R14   R(7,10)                 1.5224         estimate D2E/DX2                !
 ! R15   R(7,23)                 1.5191         estimate D2E/DX2                !
 ! R16   R(7,28)                 1.5191         estimate D2E/DX2                !
 ! R17   R(7,67)                 1.0964         estimate D2E/DX2                !
 ! R18   R(8,63)                 1.39           estimate D2E/DX2                !
 ! R19   R(9,11)                 1.437          estimate D2E/DX2                !
 ! R20   R(9,61)                 1.4444         estimate D2E/DX2                !
 ! R21   R(10,21)                1.4059         estimate D2E/DX2                !
 ! R22   R(10,30)                1.4059         estimate D2E/DX2                !
 ! R23   R(11,12)                1.3942         estimate D2E/DX2                !
 ! R24   R(11,59)                1.4387         estimate D2E/DX2                !
 ! R25   R(12,13)                1.432          estimate D2E/DX2                !
 ! R26   R(12,15)                1.4278         estimate D2E/DX2                !
 ! R27   R(13,25)                1.4498         estimate D2E/DX2                !
 ! R28   R(14,16)                1.4066         estimate D2E/DX2                !
 ! R29   R(14,45)                1.4251         estimate D2E/DX2                !
 ! R30   R(14,55)                1.4334         estimate D2E/DX2                !
 ! R31   R(15,24)                1.447          estimate D2E/DX2                !
 ! R32   R(15,57)                1.3908         estimate D2E/DX2                !
 ! R33   R(16,17)                1.4092         estimate D2E/DX2                !
 ! R34   R(16,58)                1.4466         estimate D2E/DX2                !
 ! R35   R(17,48)                1.3999         estimate D2E/DX2                !
 ! R36   R(17,56)                1.4449         estimate D2E/DX2                !
 ! R37   R(18,19)                1.469          estimate D2E/DX2                !
 ! R38   R(18,40)                1.4089         estimate D2E/DX2                !
 ! R39   R(18,47)                1.4251         estimate D2E/DX2                !
 ! R40   R(19,20)                1.3919         estimate D2E/DX2                !
 ! R41   R(19,51)                1.4489         estimate D2E/DX2                !
 ! R42   R(20,45)                1.469          estimate D2E/DX2                !
 ! R43   R(20,54)                1.4489         estimate D2E/DX2                !
 ! R44   R(21,22)                1.4398         estimate D2E/DX2                !
 ! R45   R(21,50)                1.3998         estimate D2E/DX2                !
 ! R46   R(22,23)                1.4372         estimate D2E/DX2                !
 ! R47   R(22,56)                1.3854         estimate D2E/DX2                !
 ! R48   R(23,24)                1.3759         estimate D2E/DX2                !
 ! R49   R(24,25)                1.4757         estimate D2E/DX2                !
 ! R50   R(25,26)                1.3864         estimate D2E/DX2                !
 ! R51   R(26,27)                1.4757         estimate D2E/DX2                !
 ! R52   R(27,28)                1.3759         estimate D2E/DX2                !
 ! R53   R(27,38)                1.447          estimate D2E/DX2                !
 ! R54   R(28,29)                1.4372         estimate D2E/DX2                !
 ! R55   R(29,30)                1.4398         estimate D2E/DX2                !
 ! R56   R(29,35)                1.3854         estimate D2E/DX2                !
 ! R57   R(30,31)                1.3998         estimate D2E/DX2                !
 ! R58   R(31,32)                1.4023         estimate D2E/DX2                !
 ! R59   R(31,33)                1.4962         estimate D2E/DX2                !
 ! R60   R(32,34)                1.3999         estimate D2E/DX2                !
 ! R61   R(32,40)                1.4666         estimate D2E/DX2                !
 ! R62   R(33,37)                1.5229         estimate D2E/DX2                !
 ! R63   R(33,50)                1.4962         estimate D2E/DX2                !
 ! R64   R(33,68)                1.0946         estimate D2E/DX2                !
 ! R65   R(34,35)                1.4449         estimate D2E/DX2                !
 ! R66   R(34,44)                1.4092         estimate D2E/DX2                !
 ! R67   R(35,36)                1.4209         estimate D2E/DX2                !
 ! R68   R(36,38)                1.3908         estimate D2E/DX2                !
 ! R69   R(36,43)                1.4416         estimate D2E/DX2                !
 ! R70   R(37,40)                1.4065         estimate D2E/DX2                !
 ! R71   R(37,46)                1.4065         estimate D2E/DX2                !
 ! R72   R(38,39)                1.4278         estimate D2E/DX2                !
 ! R73   R(39,41)                1.3942         estimate D2E/DX2                !
 ! R74   R(41,42)                1.4387         estimate D2E/DX2                !
 ! R75   R(42,43)                1.3795         estimate D2E/DX2                !
 ! R76   R(42,66)                1.4452         estimate D2E/DX2                !
 ! R77   R(43,44)                1.4466         estimate D2E/DX2                !
 ! R78   R(44,47)                1.4066         estimate D2E/DX2                !
 ! R79   R(45,46)                1.4089         estimate D2E/DX2                !
 ! R80   R(46,48)                1.4666         estimate D2E/DX2                !
 ! R81   R(47,49)                1.4334         estimate D2E/DX2                !
 ! R82   R(48,50)                1.4023         estimate D2E/DX2                !
 ! R83   R(49,51)                1.4325         estimate D2E/DX2                !
 ! R84   R(49,66)                1.391          estimate D2E/DX2                !
 ! R85   R(51,52)                1.3891         estimate D2E/DX2                !
 ! R86   R(52,53)                1.4287         estimate D2E/DX2                !
 ! R87   R(52,64)                1.4381         estimate D2E/DX2                !
 ! R88   R(53,54)                1.3891         estimate D2E/DX2                !
 ! R89   R(53,62)                1.4381         estimate D2E/DX2                !
 ! R90   R(54,55)                1.4325         estimate D2E/DX2                !
 ! R91   R(55,60)                1.391          estimate D2E/DX2                !
 ! R92   R(56,57)                1.4209         estimate D2E/DX2                !
 ! R93   R(57,58)                1.4416         estimate D2E/DX2                !
 ! R94   R(58,59)                1.3795         estimate D2E/DX2                !
 ! R95   R(59,60)                1.4452         estimate D2E/DX2                !
 ! R96   R(60,61)                1.4347         estimate D2E/DX2                !
 ! R97   R(61,62)                1.3879         estimate D2E/DX2                !
 ! R98   R(62,63)                1.4428         estimate D2E/DX2                !
 ! R99   R(63,64)                1.4428         estimate D2E/DX2                !
 ! R100  R(64,65)                1.3879         estimate D2E/DX2                !
 ! R101  R(65,66)                1.4347         estimate D2E/DX2                !
 ! A1    A(2,1,41)             119.8351         estimate D2E/DX2                !
 ! A2    A(2,1,65)             119.7555         estimate D2E/DX2                !
 ! A3    A(41,1,65)            107.9782         estimate D2E/DX2                !
 ! A4    A(1,2,3)              119.7237         estimate D2E/DX2                !
 ! A5    A(1,2,8)              120.4417         estimate D2E/DX2                !
 ! A6    A(3,2,8)              107.6428         estimate D2E/DX2                !
 ! A7    A(2,3,4)              120.6823         estimate D2E/DX2                !
 ! A8    A(2,3,5)              108.3446         estimate D2E/DX2                !
 ! A9    A(4,3,5)              118.8444         estimate D2E/DX2                !
 ! A10   A(3,4,26)             122.7058         estimate D2E/DX2                !
 ! A11   A(3,4,39)             118.8074         estimate D2E/DX2                !
 ! A12   A(26,4,39)            109.2345         estimate D2E/DX2                !
 ! A13   A(3,5,6)              108.3446         estimate D2E/DX2                !
 ! A14   A(3,5,13)             118.8444         estimate D2E/DX2                !
 ! A15   A(6,5,13)             120.6823         estimate D2E/DX2                !
 ! A16   A(5,6,8)              107.6428         estimate D2E/DX2                !
 ! A17   A(5,6,9)              119.7237         estimate D2E/DX2                !
 ! A18   A(8,6,9)              120.4418         estimate D2E/DX2                !
 ! A19   A(10,7,23)            101.5703         estimate D2E/DX2                !
 ! A20   A(10,7,28)            101.5703         estimate D2E/DX2                !
 ! A21   A(10,7,67)            114.5601         estimate D2E/DX2                !
 ! A22   A(23,7,28)            117.1289         estimate D2E/DX2                !
 ! A23   A(23,7,67)            110.7632         estimate D2E/DX2                !
 ! A24   A(28,7,67)            110.7631         estimate D2E/DX2                !
 ! A25   A(2,8,6)              107.9133         estimate D2E/DX2                !
 ! A26   A(2,8,63)             119.7733         estimate D2E/DX2                !
 ! A27   A(6,8,63)             119.7733         estimate D2E/DX2                !
 ! A28   A(6,9,11)             119.8351         estimate D2E/DX2                !
 ! A29   A(6,9,61)             119.7555         estimate D2E/DX2                !
 ! A30   A(11,9,61)            107.9782         estimate D2E/DX2                !
 ! A31   A(7,10,21)            111.1786         estimate D2E/DX2                !
 ! A32   A(7,10,30)            111.1786         estimate D2E/DX2                !
 ! A33   A(21,10,30)           119.623          estimate D2E/DX2                !
 ! A34   A(9,11,12)            119.7208         estimate D2E/DX2                !
 ! A35   A(9,11,59)            108.0469         estimate D2E/DX2                !
 ! A36   A(12,11,59)           119.0472         estimate D2E/DX2                !
 ! A37   A(11,12,13)           120.6825         estimate D2E/DX2                !
 ! A38   A(11,12,15)           120.7687         estimate D2E/DX2                !
 ! A39   A(13,12,15)           107.7627         estimate D2E/DX2                !
 ! A40   A(5,13,12)            118.8073         estimate D2E/DX2                !
 ! A41   A(5,13,25)            122.7058         estimate D2E/DX2                !
 ! A42   A(12,13,25)           109.2345         estimate D2E/DX2                !
 ! A43   A(16,14,45)           122.0955         estimate D2E/DX2                !
 ! A44   A(16,14,55)           119.1075         estimate D2E/DX2                !
 ! A45   A(45,14,55)           109.1035         estimate D2E/DX2                !
 ! A46   A(12,15,24)           109.4014         estimate D2E/DX2                !
 ! A47   A(12,15,57)           119.3563         estimate D2E/DX2                !
 ! A48   A(24,15,57)           121.9365         estimate D2E/DX2                !
 ! A49   A(14,16,17)           119.1314         estimate D2E/DX2                !
 ! A50   A(14,16,58)           118.9299         estimate D2E/DX2                !
 ! A51   A(17,16,58)           108.4255         estimate D2E/DX2                !
 ! A52   A(16,17,48)           119.899          estimate D2E/DX2                !
 ! A53   A(16,17,56)           108.1555         estimate D2E/DX2                !
 ! A54   A(48,17,56)           118.4304         estimate D2E/DX2                !
 ! A55   A(19,18,40)           127.2582         estimate D2E/DX2                !
 ! A56   A(19,18,47)           107.7673         estimate D2E/DX2                !
 ! A57   A(40,18,47)           118.9138         estimate D2E/DX2                !
 ! A58   A(18,19,20)           128.6194         estimate D2E/DX2                !
 ! A59   A(18,19,51)           106.3834         estimate D2E/DX2                !
 ! A60   A(20,19,51)           118.3708         estimate D2E/DX2                !
 ! A61   A(19,20,45)           128.6195         estimate D2E/DX2                !
 ! A62   A(19,20,54)           118.3708         estimate D2E/DX2                !
 ! A63   A(45,20,54)           106.3834         estimate D2E/DX2                !
 ! A64   A(10,21,22)           107.7863         estimate D2E/DX2                !
 ! A65   A(10,21,50)           121.2286         estimate D2E/DX2                !
 ! A66   A(22,21,50)           118.8365         estimate D2E/DX2                !
 ! A67   A(21,22,23)           109.4491         estimate D2E/DX2                !
 ! A68   A(21,22,56)           119.3033         estimate D2E/DX2                !
 ! A69   A(23,22,56)           121.9607         estimate D2E/DX2                !
 ! A70   A(7,23,22)            108.2686         estimate D2E/DX2                !
 ! A71   A(7,23,24)            129.5405         estimate D2E/DX2                !
 ! A72   A(22,23,24)           118.9549         estimate D2E/DX2                !
 ! A73   A(15,24,23)           118.4204         estimate D2E/DX2                !
 ! A74   A(15,24,25)           106.8305         estimate D2E/DX2                !
 ! A75   A(23,24,25)           128.9906         estimate D2E/DX2                !
 ! A76   A(13,25,24)           106.6076         estimate D2E/DX2                !
 ! A77   A(13,25,26)           118.392          estimate D2E/DX2                !
 ! A78   A(24,25,26)           128.009          estimate D2E/DX2                !
 ! A79   A(4,26,25)            118.392          estimate D2E/DX2                !
 ! A80   A(4,26,27)            106.6076         estimate D2E/DX2                !
 ! A81   A(25,26,27)           128.0091         estimate D2E/DX2                !
 ! A82   A(26,27,28)           128.9906         estimate D2E/DX2                !
 ! A83   A(26,27,38)           106.8305         estimate D2E/DX2                !
 ! A84   A(28,27,38)           118.4204         estimate D2E/DX2                !
 ! A85   A(7,28,27)            129.5405         estimate D2E/DX2                !
 ! A86   A(7,28,29)            108.2686         estimate D2E/DX2                !
 ! A87   A(27,28,29)           118.9549         estimate D2E/DX2                !
 ! A88   A(28,29,30)           109.4491         estimate D2E/DX2                !
 ! A89   A(28,29,35)           121.9607         estimate D2E/DX2                !
 ! A90   A(30,29,35)           119.3033         estimate D2E/DX2                !
 ! A91   A(10,30,29)           107.7863         estimate D2E/DX2                !
 ! A92   A(10,30,31)           121.2286         estimate D2E/DX2                !
 ! A93   A(29,30,31)           118.8365         estimate D2E/DX2                !
 ! A94   A(30,31,32)           120.2791         estimate D2E/DX2                !
 ! A95   A(30,31,33)           120.8223         estimate D2E/DX2                !
 ! A96   A(32,31,33)           107.8742         estimate D2E/DX2                !
 ! A97   A(31,32,34)           119.8856         estimate D2E/DX2                !
 ! A98   A(31,32,40)           110.0343         estimate D2E/DX2                !
 ! A99   A(34,32,40)           120.9376         estimate D2E/DX2                !
 ! A100  A(31,33,37)           103.0519         estimate D2E/DX2                !
 ! A101  A(31,33,50)           113.2597         estimate D2E/DX2                !
 ! A102  A(31,33,68)           112.2985         estimate D2E/DX2                !
 ! A103  A(37,33,50)           103.0519         estimate D2E/DX2                !
 ! A104  A(37,33,68)           112.1436         estimate D2E/DX2                !
 ! A105  A(50,33,68)           112.2984         estimate D2E/DX2                !
 ! A106  A(32,34,35)           118.4303         estimate D2E/DX2                !
 ! A107  A(32,34,44)           119.899          estimate D2E/DX2                !
 ! A108  A(35,34,44)           108.1555         estimate D2E/DX2                !
 ! A109  A(29,35,34)           119.9037         estimate D2E/DX2                !
 ! A110  A(29,35,36)           119.2414         estimate D2E/DX2                !
 ! A111  A(34,35,36)           107.8681         estimate D2E/DX2                !
 ! A112  A(35,36,38)           118.5658         estimate D2E/DX2                !
 ! A113  A(35,36,43)           108.2241         estimate D2E/DX2                !
 ! A114  A(38,36,43)           119.5112         estimate D2E/DX2                !
 ! A115  A(33,37,40)           109.1351         estimate D2E/DX2                !
 ! A116  A(33,37,46)           109.1351         estimate D2E/DX2                !
 ! A117  A(40,37,46)           129.5408         estimate D2E/DX2                !
 ! A118  A(27,38,36)           121.9365         estimate D2E/DX2                !
 ! A119  A(27,38,39)           109.4014         estimate D2E/DX2                !
 ! A120  A(36,38,39)           119.3563         estimate D2E/DX2                !
 ! A121  A(4,39,38)            107.7627         estimate D2E/DX2                !
 ! A122  A(4,39,41)            120.6825         estimate D2E/DX2                !
 ! A123  A(38,39,41)           120.7687         estimate D2E/DX2                !
 ! A124  A(18,40,32)           118.1437         estimate D2E/DX2                !
 ! A125  A(18,40,37)           128.0872         estimate D2E/DX2                !
 ! A126  A(32,40,37)           107.1309         estimate D2E/DX2                !
 ! A127  A(1,41,39)            119.7208         estimate D2E/DX2                !
 ! A128  A(1,41,42)            108.0469         estimate D2E/DX2                !
 ! A129  A(39,41,42)           119.0472         estimate D2E/DX2                !
 ! A130  A(41,42,43)           120.1146         estimate D2E/DX2                !
 ! A131  A(41,42,66)           107.7553         estimate D2E/DX2                !
 ! A132  A(43,42,66)           120.0743         estimate D2E/DX2                !
 ! A133  A(36,43,42)           120.1147         estimate D2E/DX2                !
 ! A134  A(36,43,44)           106.8851         estimate D2E/DX2                !
 ! A135  A(42,43,44)           120.6593         estimate D2E/DX2                !
 ! A136  A(34,44,43)           108.4255         estimate D2E/DX2                !
 ! A137  A(34,44,47)           119.1314         estimate D2E/DX2                !
 ! A138  A(43,44,47)           118.9299         estimate D2E/DX2                !
 ! A139  A(14,45,20)           107.7674         estimate D2E/DX2                !
 ! A140  A(14,45,46)           118.9137         estimate D2E/DX2                !
 ! A141  A(20,45,46)           127.2582         estimate D2E/DX2                !
 ! A142  A(37,46,45)           128.0872         estimate D2E/DX2                !
 ! A143  A(37,46,48)           107.1309         estimate D2E/DX2                !
 ! A144  A(45,46,48)           118.1437         estimate D2E/DX2                !
 ! A145  A(18,47,44)           122.0955         estimate D2E/DX2                !
 ! A146  A(18,47,49)           109.1035         estimate D2E/DX2                !
 ! A147  A(44,47,49)           119.1075         estimate D2E/DX2                !
 ! A148  A(17,48,46)           120.9376         estimate D2E/DX2                !
 ! A149  A(17,48,50)           119.8856         estimate D2E/DX2                !
 ! A150  A(46,48,50)           110.0343         estimate D2E/DX2                !
 ! A151  A(47,49,51)           107.7076         estimate D2E/DX2                !
 ! A152  A(47,49,66)           121.2647         estimate D2E/DX2                !
 ! A153  A(51,49,66)           120.3753         estimate D2E/DX2                !
 ! A154  A(21,50,33)           120.8223         estimate D2E/DX2                !
 ! A155  A(21,50,48)           120.2791         estimate D2E/DX2                !
 ! A156  A(33,50,48)           107.8742         estimate D2E/DX2                !
 ! A157  A(19,51,49)           108.8115         estimate D2E/DX2                !
 ! A158  A(19,51,52)           122.7128         estimate D2E/DX2                !
 ! A159  A(49,51,52)           119.0161         estimate D2E/DX2                !
 ! A160  A(51,52,53)           118.8415         estimate D2E/DX2                !
 ! A161  A(51,52,64)           120.688          estimate D2E/DX2                !
 ! A162  A(53,52,64)           108.3421         estimate D2E/DX2                !
 ! A163  A(52,53,54)           118.8415         estimate D2E/DX2                !
 ! A164  A(52,53,62)           108.3421         estimate D2E/DX2                !
 ! A165  A(54,53,62)           120.688          estimate D2E/DX2                !
 ! A166  A(20,54,53)           122.7128         estimate D2E/DX2                !
 ! A167  A(20,54,55)           108.8115         estimate D2E/DX2                !
 ! A168  A(53,54,55)           119.0161         estimate D2E/DX2                !
 ! A169  A(14,55,54)           107.7076         estimate D2E/DX2                !
 ! A170  A(14,55,60)           121.2647         estimate D2E/DX2                !
 ! A171  A(54,55,60)           120.3754         estimate D2E/DX2                !
 ! A172  A(17,56,22)           119.9037         estimate D2E/DX2                !
 ! A173  A(17,56,57)           107.8681         estimate D2E/DX2                !
 ! A174  A(22,56,57)           119.2414         estimate D2E/DX2                !
 ! A175  A(15,57,56)           118.5658         estimate D2E/DX2                !
 ! A176  A(15,57,58)           119.5112         estimate D2E/DX2                !
 ! A177  A(56,57,58)           108.2241         estimate D2E/DX2                !
 ! A178  A(16,58,57)           106.8851         estimate D2E/DX2                !
 ! A179  A(16,58,59)           120.6593         estimate D2E/DX2                !
 ! A180  A(57,58,59)           120.1148         estimate D2E/DX2                !
 ! A181  A(11,59,58)           120.1146         estimate D2E/DX2                !
 ! A182  A(11,59,60)           107.7553         estimate D2E/DX2                !
 ! A183  A(58,59,60)           120.0743         estimate D2E/DX2                !
 ! A184  A(55,60,59)           118.9541         estimate D2E/DX2                !
 ! A185  A(55,60,61)           119.9336         estimate D2E/DX2                !
 ! A186  A(59,60,61)           107.9965         estimate D2E/DX2                !
 ! A187  A(9,61,60)            107.9263         estimate D2E/DX2                !
 ! A188  A(9,61,62)            119.7417         estimate D2E/DX2                !
 ! A189  A(60,61,62)           119.9279         estimate D2E/DX2                !
 ! A190  A(53,62,61)           119.5131         estimate D2E/DX2                !
 ! A191  A(53,62,63)           107.615          estimate D2E/DX2                !
 ! A192  A(61,62,63)           120.4128         estimate D2E/DX2                !
 ! A193  A(8,63,62)            119.6656         estimate D2E/DX2                !
 ! A194  A(8,63,64)            119.6656         estimate D2E/DX2                !
 ! A195  A(62,63,64)           107.9562         estimate D2E/DX2                !
 ! A196  A(52,64,63)           107.615          estimate D2E/DX2                !
 ! A197  A(52,64,65)           119.513          estimate D2E/DX2                !
 ! A198  A(63,64,65)           120.4127         estimate D2E/DX2                !
 ! A199  A(1,65,64)            119.7417         estimate D2E/DX2                !
 ! A200  A(1,65,66)            107.9263         estimate D2E/DX2                !
 ! A201  A(64,65,66)           119.9279         estimate D2E/DX2                !
 ! A202  A(42,66,49)           118.9541         estimate D2E/DX2                !
 ! A203  A(42,66,65)           107.9965         estimate D2E/DX2                !
 ! A204  A(49,66,65)           119.9336         estimate D2E/DX2                !
 ! D1    D(41,1,2,3)            -3.6208         estimate D2E/DX2                !
 ! D2    D(41,1,2,8)          -141.3805         estimate D2E/DX2                !
 ! D3    D(65,1,2,3)           133.9168         estimate D2E/DX2                !
 ! D4    D(65,1,2,8)            -3.8429         estimate D2E/DX2                !
 ! D5    D(2,1,41,39)            4.4817         estimate D2E/DX2                !
 ! D6    D(2,1,41,42)          145.1968         estimate D2E/DX2                !
 ! D7    D(65,1,41,39)        -137.4806         estimate D2E/DX2                !
 ! D8    D(65,1,41,42)           3.2345         estimate D2E/DX2                !
 ! D9    D(2,1,65,64)            0.1935         estimate D2E/DX2                !
 ! D10   D(2,1,65,66)         -141.8758         estimate D2E/DX2                !
 ! D11   D(41,1,65,64)         142.1914         estimate D2E/DX2                !
 ! D12   D(41,1,65,66)           0.1221         estimate D2E/DX2                !
 ! D13   D(1,2,3,4)             -2.6099         estimate D2E/DX2                !
 ! D14   D(1,2,3,5)           -144.5844         estimate D2E/DX2                !
 ! D15   D(8,2,3,4)            139.9323         estimate D2E/DX2                !
 ! D16   D(8,2,3,5)             -2.0421         estimate D2E/DX2                !
 ! D17   D(1,2,8,6)            145.5171         estimate D2E/DX2                !
 ! D18   D(1,2,8,63)             3.6891         estimate D2E/DX2                !
 ! D19   D(3,2,8,6)              3.2954         estimate D2E/DX2                !
 ! D20   D(3,2,8,63)          -138.5326         estimate D2E/DX2                !
 ! D21   D(2,3,4,26)          -135.311          estimate D2E/DX2                !
 ! D22   D(2,3,4,39)             7.8117         estimate D2E/DX2                !
 ! D23   D(5,3,4,26)             2.8127         estimate D2E/DX2                !
 ! D24   D(5,3,4,39)           145.9354         estimate D2E/DX2                !
 ! D25   D(2,3,5,6)              0.0            estimate D2E/DX2                !
 ! D26   D(2,3,5,13)           142.7845         estimate D2E/DX2                !
 ! D27   D(4,3,5,6)           -142.7845         estimate D2E/DX2                !
 ! D28   D(4,3,5,13)             0.0            estimate D2E/DX2                !
 ! D29   D(3,4,26,25)           -2.8006         estimate D2E/DX2                !
 ! D30   D(3,4,26,27)          150.2829         estimate D2E/DX2                !
 ! D31   D(39,4,26,25)        -148.9571         estimate D2E/DX2                !
 ! D32   D(39,4,26,27)           4.1264         estimate D2E/DX2                !
 ! D33   D(3,4,39,38)         -151.4932         estimate D2E/DX2                !
 ! D34   D(3,4,39,41)           -6.9355         estimate D2E/DX2                !
 ! D35   D(26,4,39,38)          -3.8245         estimate D2E/DX2                !
 ! D36   D(26,4,39,41)         140.7331         estimate D2E/DX2                !
 ! D37   D(3,5,6,8)              2.0421         estimate D2E/DX2                !
 ! D38   D(3,5,6,9)            144.5844         estimate D2E/DX2                !
 ! D39   D(13,5,6,8)          -139.9323         estimate D2E/DX2                !
 ! D40   D(13,5,6,9)             2.61           estimate D2E/DX2                !
 ! D41   D(3,5,13,12)         -145.9353         estimate D2E/DX2                !
 ! D42   D(3,5,13,25)           -2.8126         estimate D2E/DX2                !
 ! D43   D(6,5,13,12)           -7.8117         estimate D2E/DX2                !
 ! D44   D(6,5,13,25)          135.311          estimate D2E/DX2                !
 ! D45   D(5,6,8,2)             -3.2954         estimate D2E/DX2                !
 ! D46   D(5,6,8,63)           138.5326         estimate D2E/DX2                !
 ! D47   D(9,6,8,2)           -145.5171         estimate D2E/DX2                !
 ! D48   D(9,6,8,63)            -3.6891         estimate D2E/DX2                !
 ! D49   D(5,6,9,11)             3.6208         estimate D2E/DX2                !
 ! D50   D(5,6,9,61)          -133.9168         estimate D2E/DX2                !
 ! D51   D(8,6,9,11)           141.3804         estimate D2E/DX2                !
 ! D52   D(8,6,9,61)             3.8429         estimate D2E/DX2                !
 ! D53   D(23,7,10,21)          -7.4033         estimate D2E/DX2                !
 ! D54   D(23,7,10,30)         128.536          estimate D2E/DX2                !
 ! D55   D(28,7,10,21)        -128.536          estimate D2E/DX2                !
 ! D56   D(28,7,10,30)           7.4034         estimate D2E/DX2                !
 ! D57   D(67,7,10,21)         112.0304         estimate D2E/DX2                !
 ! D58   D(67,7,10,30)        -112.0303         estimate D2E/DX2                !
 ! D59   D(10,7,23,22)          12.3736         estimate D2E/DX2                !
 ! D60   D(10,7,23,24)        -146.6305         estimate D2E/DX2                !
 ! D61   D(28,7,23,22)         121.9422         estimate D2E/DX2                !
 ! D62   D(28,7,23,24)         -37.0619         estimate D2E/DX2                !
 ! D63   D(67,7,23,22)        -109.7236         estimate D2E/DX2                !
 ! D64   D(67,7,23,24)          91.2723         estimate D2E/DX2                !
 ! D65   D(10,7,28,27)         146.6305         estimate D2E/DX2                !
 ! D66   D(10,7,28,29)         -12.3736         estimate D2E/DX2                !
 ! D67   D(23,7,28,27)          37.0619         estimate D2E/DX2                !
 ! D68   D(23,7,28,29)        -121.9422         estimate D2E/DX2                !
 ! D69   D(67,7,28,27)         -91.2723         estimate D2E/DX2                !
 ! D70   D(67,7,28,29)         109.7236         estimate D2E/DX2                !
 ! D71   D(2,8,63,62)          137.2345         estimate D2E/DX2                !
 ! D72   D(2,8,63,64)            0.1173         estimate D2E/DX2                !
 ! D73   D(6,8,63,62)           -0.1173         estimate D2E/DX2                !
 ! D74   D(6,8,63,64)         -137.2345         estimate D2E/DX2                !
 ! D75   D(6,9,11,12)           -4.4817         estimate D2E/DX2                !
 ! D76   D(6,9,11,59)         -145.1967         estimate D2E/DX2                !
 ! D77   D(61,9,11,12)         137.4806         estimate D2E/DX2                !
 ! D78   D(61,9,11,59)          -3.2344         estimate D2E/DX2                !
 ! D79   D(6,9,61,60)          141.8758         estimate D2E/DX2                !
 ! D80   D(6,9,61,62)           -0.1935         estimate D2E/DX2                !
 ! D81   D(11,9,61,60)          -0.1221         estimate D2E/DX2                !
 ! D82   D(11,9,61,62)        -142.1913         estimate D2E/DX2                !
 ! D83   D(7,10,21,22)          -0.289          estimate D2E/DX2                !
 ! D84   D(7,10,21,50)         141.6035         estimate D2E/DX2                !
 ! D85   D(30,10,21,22)       -132.0484         estimate D2E/DX2                !
 ! D86   D(30,10,21,50)          9.8441         estimate D2E/DX2                !
 ! D87   D(7,10,30,29)           0.289          estimate D2E/DX2                !
 ! D88   D(7,10,30,31)        -141.6035         estimate D2E/DX2                !
 ! D89   D(21,10,30,29)        132.0484         estimate D2E/DX2                !
 ! D90   D(21,10,30,31)         -9.8441         estimate D2E/DX2                !
 ! D91   D(9,11,12,13)          -0.8221         estimate D2E/DX2                !
 ! D92   D(9,11,12,15)        -140.8282         estimate D2E/DX2                !
 ! D93   D(59,11,12,13)        135.655          estimate D2E/DX2                !
 ! D94   D(59,11,12,15)         -4.3512         estimate D2E/DX2                !
 ! D95   D(9,11,59,58)         147.894          estimate D2E/DX2                !
 ! D96   D(9,11,59,60)           5.3315         estimate D2E/DX2                !
 ! D97   D(12,11,59,58)          6.8704         estimate D2E/DX2                !
 ! D98   D(12,11,59,60)       -135.6921         estimate D2E/DX2                !
 ! D99   D(11,12,13,5)           6.9354         estimate D2E/DX2                !
 ! D100  D(11,12,13,25)       -140.7332         estimate D2E/DX2                !
 ! D101  D(15,12,13,5)         151.4932         estimate D2E/DX2                !
 ! D102  D(15,12,13,25)          3.8246         estimate D2E/DX2                !
 ! D103  D(11,12,15,24)        142.534          estimate D2E/DX2                !
 ! D104  D(11,12,15,57)         -4.7696         estimate D2E/DX2                !
 ! D105  D(13,12,15,24)         -1.9872         estimate D2E/DX2                !
 ! D106  D(13,12,15,57)       -149.2909         estimate D2E/DX2                !
 ! D107  D(5,13,25,24)        -150.2829         estimate D2E/DX2                !
 ! D108  D(5,13,25,26)           2.8006         estimate D2E/DX2                !
 ! D109  D(12,13,25,24)         -4.1264         estimate D2E/DX2                !
 ! D110  D(12,13,25,26)        148.957          estimate D2E/DX2                !
 ! D111  D(45,14,16,17)         -4.6012         estimate D2E/DX2                !
 ! D112  D(45,14,16,58)        131.5745         estimate D2E/DX2                !
 ! D113  D(55,14,16,17)       -146.9135         estimate D2E/DX2                !
 ! D114  D(55,14,16,58)        -10.7378         estimate D2E/DX2                !
 ! D115  D(16,14,45,20)       -144.8316         estimate D2E/DX2                !
 ! D116  D(16,14,45,46)          9.757          estimate D2E/DX2                !
 ! D117  D(55,14,45,20)          0.7468         estimate D2E/DX2                !
 ! D118  D(55,14,45,46)        155.3354         estimate D2E/DX2                !
 ! D119  D(16,14,55,54)        149.0349         estimate D2E/DX2                !
 ! D120  D(16,14,55,60)          4.4619         estimate D2E/DX2                !
 ! D121  D(45,14,55,54)          2.272          estimate D2E/DX2                !
 ! D122  D(45,14,55,60)       -142.301          estimate D2E/DX2                !
 ! D123  D(12,15,24,23)       -156.2195         estimate D2E/DX2                !
 ! D124  D(12,15,24,25)         -0.5573         estimate D2E/DX2                !
 ! D125  D(57,15,24,23)         -9.9162         estimate D2E/DX2                !
 ! D126  D(57,15,24,25)        145.7459         estimate D2E/DX2                !
 ! D127  D(12,15,57,56)        147.1384         estimate D2E/DX2                !
 ! D128  D(12,15,57,58)         11.3033         estimate D2E/DX2                !
 ! D129  D(24,15,57,56)          4.0363         estimate D2E/DX2                !
 ! D130  D(24,15,57,58)       -131.7988         estimate D2E/DX2                !
 ! D131  D(14,16,17,48)         -4.2003         estimate D2E/DX2                !
 ! D132  D(14,16,17,56)        135.8416         estimate D2E/DX2                !
 ! D133  D(58,16,17,48)       -144.4988         estimate D2E/DX2                !
 ! D134  D(58,16,17,56)         -4.457          estimate D2E/DX2                !
 ! D135  D(14,16,58,57)       -133.7197         estimate D2E/DX2                !
 ! D136  D(14,16,58,59)          8.4174         estimate D2E/DX2                !
 ! D137  D(17,16,58,57)          6.6716         estimate D2E/DX2                !
 ! D138  D(17,16,58,59)        148.8086         estimate D2E/DX2                !
 ! D139  D(16,17,48,46)          7.7369         estimate D2E/DX2                !
 ! D140  D(16,17,48,50)        151.359          estimate D2E/DX2                !
 ! D141  D(56,17,48,46)       -128.3197         estimate D2E/DX2                !
 ! D142  D(56,17,48,50)         15.3024         estimate D2E/DX2                !
 ! D143  D(16,17,56,22)       -140.5467         estimate D2E/DX2                !
 ! D144  D(16,17,56,57)          0.4832         estimate D2E/DX2                !
 ! D145  D(48,17,56,22)          0.1736         estimate D2E/DX2                !
 ! D146  D(48,17,56,57)        141.2035         estimate D2E/DX2                !
 ! D147  D(40,18,19,20)          4.9425         estimate D2E/DX2                !
 ! D148  D(40,18,19,51)        155.2598         estimate D2E/DX2                !
 ! D149  D(47,18,19,20)       -146.8971         estimate D2E/DX2                !
 ! D150  D(47,18,19,51)          3.4202         estimate D2E/DX2                !
 ! D151  D(19,18,40,32)       -143.0952         estimate D2E/DX2                !
 ! D152  D(19,18,40,37)          4.4344         estimate D2E/DX2                !
 ! D153  D(47,18,40,32)          6.0121         estimate D2E/DX2                !
 ! D154  D(47,18,40,37)        153.5417         estimate D2E/DX2                !
 ! D155  D(19,18,47,44)        144.8316         estimate D2E/DX2                !
 ! D156  D(19,18,47,49)         -0.7468         estimate D2E/DX2                !
 ! D157  D(40,18,47,44)         -9.757          estimate D2E/DX2                !
 ! D158  D(40,18,47,49)       -155.3354         estimate D2E/DX2                !
 ! D159  D(18,19,20,45)          0.0001         estimate D2E/DX2                !
 ! D160  D(18,19,20,54)        147.3204         estimate D2E/DX2                !
 ! D161  D(51,19,20,45)       -147.3203         estimate D2E/DX2                !
 ! D162  D(51,19,20,54)          0.0            estimate D2E/DX2                !
 ! D163  D(18,19,51,49)         -4.8504         estimate D2E/DX2                !
 ! D164  D(18,19,51,52)       -150.7266         estimate D2E/DX2                !
 ! D165  D(20,19,51,49)        149.0639         estimate D2E/DX2                !
 ! D166  D(20,19,51,52)          3.1878         estimate D2E/DX2                !
 ! D167  D(19,20,45,14)        146.897          estimate D2E/DX2                !
 ! D168  D(19,20,45,46)         -4.9426         estimate D2E/DX2                !
 ! D169  D(54,20,45,14)         -3.4202         estimate D2E/DX2                !
 ! D170  D(54,20,45,46)       -155.2598         estimate D2E/DX2                !
 ! D171  D(19,20,54,53)         -3.1877         estimate D2E/DX2                !
 ! D172  D(19,20,54,55)       -149.0639         estimate D2E/DX2                !
 ! D173  D(45,20,54,53)        150.7265         estimate D2E/DX2                !
 ! D174  D(45,20,54,55)          4.8504         estimate D2E/DX2                !
 ! D175  D(10,21,22,23)          8.6172         estimate D2E/DX2                !
 ! D176  D(10,21,22,56)        155.9618         estimate D2E/DX2                !
 ! D177  D(50,21,22,23)       -134.3394         estimate D2E/DX2                !
 ! D178  D(50,21,22,56)         13.0052         estimate D2E/DX2                !
 ! D179  D(10,21,50,33)          4.1747         estimate D2E/DX2                !
 ! D180  D(10,21,50,48)       -135.4863         estimate D2E/DX2                !
 ! D181  D(22,21,50,33)        142.044          estimate D2E/DX2                !
 ! D182  D(22,21,50,48)          2.383          estimate D2E/DX2                !
 ! D183  D(21,22,23,7)         -13.5077         estimate D2E/DX2                !
 ! D184  D(21,22,23,24)        148.084          estimate D2E/DX2                !
 ! D185  D(56,22,23,7)        -159.8236         estimate D2E/DX2                !
 ! D186  D(56,22,23,24)          1.7681         estimate D2E/DX2                !
 ! D187  D(21,22,56,17)        -14.1954         estimate D2E/DX2                !
 ! D188  D(21,22,56,57)       -150.8814         estimate D2E/DX2                !
 ! D189  D(23,22,56,17)        128.9559         estimate D2E/DX2                !
 ! D190  D(23,22,56,57)         -7.7301         estimate D2E/DX2                !
 ! D191  D(7,23,24,15)         163.9448         estimate D2E/DX2                !
 ! D192  D(7,23,24,25)          14.443          estimate D2E/DX2                !
 ! D193  D(22,23,24,15)          6.8276         estimate D2E/DX2                !
 ! D194  D(22,23,24,25)       -142.6741         estimate D2E/DX2                !
 ! D195  D(15,24,25,13)          2.8384         estimate D2E/DX2                !
 ! D196  D(15,24,25,26)       -146.8013         estimate D2E/DX2                !
 ! D197  D(23,24,25,13)        155.0427         estimate D2E/DX2                !
 ! D198  D(23,24,25,26)          5.403          estimate D2E/DX2                !
 ! D199  D(13,25,26,4)           0.0            estimate D2E/DX2                !
 ! D200  D(13,25,26,27)       -146.5934         estimate D2E/DX2                !
 ! D201  D(24,25,26,4)         146.5933         estimate D2E/DX2                !
 ! D202  D(24,25,26,27)          0.0            estimate D2E/DX2                !
 ! D203  D(4,26,27,28)        -155.0426         estimate D2E/DX2                !
 ! D204  D(4,26,27,38)          -2.8384         estimate D2E/DX2                !
 ! D205  D(25,26,27,28)         -5.4029         estimate D2E/DX2                !
 ! D206  D(25,26,27,38)        146.8013         estimate D2E/DX2                !
 ! D207  D(26,27,28,7)         -14.443          estimate D2E/DX2                !
 ! D208  D(26,27,28,29)        142.6741         estimate D2E/DX2                !
 ! D209  D(38,27,28,7)        -163.9447         estimate D2E/DX2                !
 ! D210  D(38,27,28,29)         -6.8276         estimate D2E/DX2                !
 ! D211  D(26,27,38,36)       -145.7459         estimate D2E/DX2                !
 ! D212  D(26,27,38,39)          0.5573         estimate D2E/DX2                !
 ! D213  D(28,27,38,36)          9.9162         estimate D2E/DX2                !
 ! D214  D(28,27,38,39)        156.2194         estimate D2E/DX2                !
 ! D215  D(7,28,29,30)          13.5077         estimate D2E/DX2                !
 ! D216  D(7,28,29,35)         159.8236         estimate D2E/DX2                !
 ! D217  D(27,28,29,30)       -148.084          estimate D2E/DX2                !
 ! D218  D(27,28,29,35)         -1.7682         estimate D2E/DX2                !
 ! D219  D(28,29,30,10)         -8.6172         estimate D2E/DX2                !
 ! D220  D(28,29,30,31)        134.3394         estimate D2E/DX2                !
 ! D221  D(35,29,30,10)       -155.9618         estimate D2E/DX2                !
 ! D222  D(35,29,30,31)        -13.0052         estimate D2E/DX2                !
 ! D223  D(28,29,35,34)       -128.9559         estimate D2E/DX2                !
 ! D224  D(28,29,35,36)          7.7302         estimate D2E/DX2                !
 ! D225  D(30,29,35,34)         14.1954         estimate D2E/DX2                !
 ! D226  D(30,29,35,36)        150.8814         estimate D2E/DX2                !
 ! D227  D(10,30,31,32)        135.4863         estimate D2E/DX2                !
 ! D228  D(10,30,31,33)         -4.1748         estimate D2E/DX2                !
 ! D229  D(29,30,31,32)         -2.3829         estimate D2E/DX2                !
 ! D230  D(29,30,31,33)       -142.0441         estimate D2E/DX2                !
 ! D231  D(30,31,32,34)         16.6509         estimate D2E/DX2                !
 ! D232  D(30,31,32,40)       -130.5638         estimate D2E/DX2                !
 ! D233  D(33,31,32,34)        160.9133         estimate D2E/DX2                !
 ! D234  D(33,31,32,40)         13.6986         estimate D2E/DX2                !
 ! D235  D(30,31,33,37)        127.3287         estimate D2E/DX2                !
 ! D236  D(30,31,33,50)         16.7205         estimate D2E/DX2                !
 ! D237  D(30,31,33,68)       -111.7896         estimate D2E/DX2                !
 ! D238  D(32,31,33,37)        -16.7021         estimate D2E/DX2                !
 ! D239  D(32,31,33,50)       -127.3102         estimate D2E/DX2                !
 ! D240  D(32,31,33,68)        104.1797         estimate D2E/DX2                !
 ! D241  D(31,32,34,35)        -15.3023         estimate D2E/DX2                !
 ! D242  D(31,32,34,44)       -151.359          estimate D2E/DX2                !
 ! D243  D(40,32,34,35)        128.3198         estimate D2E/DX2                !
 ! D244  D(40,32,34,44)         -7.7369         estimate D2E/DX2                !
 ! D245  D(31,32,40,18)        149.33           estimate D2E/DX2                !
 ! D246  D(31,32,40,37)         -4.4277         estimate D2E/DX2                !
 ! D247  D(34,32,40,18)          2.5161         estimate D2E/DX2                !
 ! D248  D(34,32,40,37)       -151.2416         estimate D2E/DX2                !
 ! D249  D(31,33,37,40)         14.2253         estimate D2E/DX2                !
 ! D250  D(31,33,37,46)       -132.2507         estimate D2E/DX2                !
 ! D251  D(50,33,37,40)        132.2507         estimate D2E/DX2                !
 ! D252  D(50,33,37,46)        -14.2253         estimate D2E/DX2                !
 ! D253  D(68,33,37,40)       -106.762          estimate D2E/DX2                !
 ! D254  D(68,33,37,46)        106.762          estimate D2E/DX2                !
 ! D255  D(31,33,50,21)        -16.7205         estimate D2E/DX2                !
 ! D256  D(31,33,50,48)        127.3102         estimate D2E/DX2                !
 ! D257  D(37,33,50,21)       -127.3286         estimate D2E/DX2                !
 ! D258  D(37,33,50,48)         16.702          estimate D2E/DX2                !
 ! D259  D(68,33,50,21)        111.7896         estimate D2E/DX2                !
 ! D260  D(68,33,50,48)       -104.1797         estimate D2E/DX2                !
 ! D261  D(32,34,35,29)         -0.1736         estimate D2E/DX2                !
 ! D262  D(32,34,35,36)       -141.2036         estimate D2E/DX2                !
 ! D263  D(44,34,35,29)        140.5468         estimate D2E/DX2                !
 ! D264  D(44,34,35,36)         -0.4832         estimate D2E/DX2                !
 ! D265  D(32,34,44,43)        144.4988         estimate D2E/DX2                !
 ! D266  D(32,34,44,47)          4.2003         estimate D2E/DX2                !
 ! D267  D(35,34,44,43)          4.457          estimate D2E/DX2                !
 ! D268  D(35,34,44,47)       -135.8415         estimate D2E/DX2                !
 ! D269  D(29,35,36,38)         -4.6904         estimate D2E/DX2                !
 ! D270  D(29,35,36,43)       -145.0214         estimate D2E/DX2                !
 ! D271  D(34,35,36,38)        136.6419         estimate D2E/DX2                !
 ! D272  D(34,35,36,43)         -3.689          estimate D2E/DX2                !
 ! D273  D(35,36,38,27)         -4.0362         estimate D2E/DX2                !
 ! D274  D(35,36,38,39)       -147.1384         estimate D2E/DX2                !
 ! D275  D(43,36,38,27)        131.7988         estimate D2E/DX2                !
 ! D276  D(43,36,38,39)        -11.3033         estimate D2E/DX2                !
 ! D277  D(35,36,43,42)        148.7328         estimate D2E/DX2                !
 ! D278  D(35,36,43,44)          6.3487         estimate D2E/DX2                !
 ! D279  D(38,36,43,42)          8.8406         estimate D2E/DX2                !
 ! D280  D(38,36,43,44)       -133.5436         estimate D2E/DX2                !
 ! D281  D(33,37,40,18)       -156.8754         estimate D2E/DX2                !
 ! D282  D(33,37,40,32)         -6.5693         estimate D2E/DX2                !
 ! D283  D(46,37,40,18)        -19.4534         estimate D2E/DX2                !
 ! D284  D(46,37,40,32)        130.8526         estimate D2E/DX2                !
 ! D285  D(33,37,46,45)        156.8754         estimate D2E/DX2                !
 ! D286  D(33,37,46,48)          6.5693         estimate D2E/DX2                !
 ! D287  D(40,37,46,45)         19.4535         estimate D2E/DX2                !
 ! D288  D(40,37,46,48)       -130.8526         estimate D2E/DX2                !
 ! D289  D(27,38,39,4)           1.9872         estimate D2E/DX2                !
 ! D290  D(27,38,39,41)       -142.534          estimate D2E/DX2                !
 ! D291  D(36,38,39,4)         149.2908         estimate D2E/DX2                !
 ! D292  D(36,38,39,41)          4.7697         estimate D2E/DX2                !
 ! D293  D(4,39,41,1)            0.8221         estimate D2E/DX2                !
 ! D294  D(4,39,41,42)        -135.6549         estimate D2E/DX2                !
 ! D295  D(38,39,41,1)         140.8282         estimate D2E/DX2                !
 ! D296  D(38,39,41,42)          4.3511         estimate D2E/DX2                !
 ! D297  D(1,41,42,43)        -147.894          estimate D2E/DX2                !
 ! D298  D(1,41,42,66)          -5.3315         estimate D2E/DX2                !
 ! D299  D(39,41,42,43)         -6.8703         estimate D2E/DX2                !
 ! D300  D(39,41,42,66)        135.6921         estimate D2E/DX2                !
 ! D301  D(41,42,43,36)          0.3481         estimate D2E/DX2                !
 ! D302  D(41,42,43,44)        137.5857         estimate D2E/DX2                !
 ! D303  D(66,42,43,36)       -137.6617         estimate D2E/DX2                !
 ! D304  D(66,42,43,44)         -0.4241         estimate D2E/DX2                !
 ! D305  D(41,42,66,49)       -135.7902         estimate D2E/DX2                !
 ! D306  D(41,42,66,65)          5.4101         estimate D2E/DX2                !
 ! D307  D(43,42,66,49)          6.7901         estimate D2E/DX2                !
 ! D308  D(43,42,66,65)        147.9904         estimate D2E/DX2                !
 ! D309  D(36,43,44,34)         -6.6715         estimate D2E/DX2                !
 ! D310  D(36,43,44,47)        133.7197         estimate D2E/DX2                !
 ! D311  D(42,43,44,34)       -148.8085         estimate D2E/DX2                !
 ! D312  D(42,43,44,47)         -8.4173         estimate D2E/DX2                !
 ! D313  D(34,44,47,18)          4.6011         estimate D2E/DX2                !
 ! D314  D(34,44,47,49)        146.9135         estimate D2E/DX2                !
 ! D315  D(43,44,47,18)       -131.5745         estimate D2E/DX2                !
 ! D316  D(43,44,47,49)         10.7379         estimate D2E/DX2                !
 ! D317  D(14,45,46,37)       -153.5417         estimate D2E/DX2                !
 ! D318  D(14,45,46,48)         -6.0121         estimate D2E/DX2                !
 ! D319  D(20,45,46,37)         -4.4344         estimate D2E/DX2                !
 ! D320  D(20,45,46,48)        143.0952         estimate D2E/DX2                !
 ! D321  D(37,46,48,17)        151.2416         estimate D2E/DX2                !
 ! D322  D(37,46,48,50)          4.4277         estimate D2E/DX2                !
 ! D323  D(45,46,48,17)         -2.5161         estimate D2E/DX2                !
 ! D324  D(45,46,48,50)       -149.33           estimate D2E/DX2                !
 ! D325  D(18,47,49,51)         -2.2719         estimate D2E/DX2                !
 ! D326  D(18,47,49,66)        142.301          estimate D2E/DX2                !
 ! D327  D(44,47,49,51)       -149.0349         estimate D2E/DX2                !
 ! D328  D(44,47,49,66)         -4.462          estimate D2E/DX2                !
 ! D329  D(17,48,50,21)        -16.651          estimate D2E/DX2                !
 ! D330  D(17,48,50,33)       -160.9133         estimate D2E/DX2                !
 ! D331  D(46,48,50,21)        130.5638         estimate D2E/DX2                !
 ! D332  D(46,48,50,33)        -13.6986         estimate D2E/DX2                !
 ! D333  D(47,49,51,19)          4.4555         estimate D2E/DX2                !
 ! D334  D(47,49,51,52)        151.7886         estimate D2E/DX2                !
 ! D335  D(66,49,51,19)       -140.4922         estimate D2E/DX2                !
 ! D336  D(66,49,51,52)          6.8409         estimate D2E/DX2                !
 ! D337  D(47,49,66,42)         -4.3579         estimate D2E/DX2                !
 ! D338  D(47,49,66,65)       -140.9114         estimate D2E/DX2                !
 ! D339  D(51,49,66,42)        135.8455         estimate D2E/DX2                !
 ! D340  D(51,49,66,65)         -0.708          estimate D2E/DX2                !
 ! D341  D(19,51,52,53)         -3.2021         estimate D2E/DX2                !
 ! D342  D(19,51,52,64)        134.921          estimate D2E/DX2                !
 ! D343  D(49,51,52,53)       -145.8121         estimate D2E/DX2                !
 ! D344  D(49,51,52,64)         -7.689          estimate D2E/DX2                !
 ! D345  D(51,52,53,54)          0.0            estimate D2E/DX2                !
 ! D346  D(51,52,53,62)        142.7872         estimate D2E/DX2                !
 ! D347  D(64,52,53,54)       -142.7872         estimate D2E/DX2                !
 ! D348  D(64,52,53,62)          0.0            estimate D2E/DX2                !
 ! D349  D(51,52,64,63)       -139.777          estimate D2E/DX2                !
 ! D350  D(51,52,64,65)          2.4136         estimate D2E/DX2                !
 ! D351  D(53,52,64,63)          2.1963         estimate D2E/DX2                !
 ! D352  D(53,52,64,65)        144.3869         estimate D2E/DX2                !
 ! D353  D(52,53,54,20)          3.202          estimate D2E/DX2                !
 ! D354  D(52,53,54,55)        145.8121         estimate D2E/DX2                !
 ! D355  D(62,53,54,20)       -134.921          estimate D2E/DX2                !
 ! D356  D(62,53,54,55)          7.689          estimate D2E/DX2                !
 ! D357  D(52,53,62,61)       -144.3869         estimate D2E/DX2                !
 ! D358  D(52,53,62,63)         -2.1963         estimate D2E/DX2                !
 ! D359  D(54,53,62,61)         -2.4136         estimate D2E/DX2                !
 ! D360  D(54,53,62,63)        139.777          estimate D2E/DX2                !
 ! D361  D(20,54,55,14)         -4.4555         estimate D2E/DX2                !
 ! D362  D(20,54,55,60)        140.4922         estimate D2E/DX2                !
 ! D363  D(53,54,55,14)       -151.7886         estimate D2E/DX2                !
 ! D364  D(53,54,55,60)         -6.8408         estimate D2E/DX2                !
 ! D365  D(14,55,60,59)          4.358          estimate D2E/DX2                !
 ! D366  D(14,55,60,61)        140.9114         estimate D2E/DX2                !
 ! D367  D(54,55,60,59)       -135.8455         estimate D2E/DX2                !
 ! D368  D(54,55,60,61)          0.7079         estimate D2E/DX2                !
 ! D369  D(17,56,57,15)       -136.6419         estimate D2E/DX2                !
 ! D370  D(17,56,57,58)          3.6891         estimate D2E/DX2                !
 ! D371  D(22,56,57,15)          4.6904         estimate D2E/DX2                !
 ! D372  D(22,56,57,58)        145.0213         estimate D2E/DX2                !
 ! D373  D(15,57,58,16)        133.5436         estimate D2E/DX2                !
 ! D374  D(15,57,58,59)         -8.8406         estimate D2E/DX2                !
 ! D375  D(56,57,58,16)         -6.3487         estimate D2E/DX2                !
 ! D376  D(56,57,58,59)       -148.7329         estimate D2E/DX2                !
 ! D377  D(16,58,59,11)       -137.5857         estimate D2E/DX2                !
 ! D378  D(16,58,59,60)          0.424          estimate D2E/DX2                !
 ! D379  D(57,58,59,11)         -0.348          estimate D2E/DX2                !
 ! D380  D(57,58,59,60)        137.6617         estimate D2E/DX2                !
 ! D381  D(11,59,60,55)        135.7902         estimate D2E/DX2                !
 ! D382  D(11,59,60,61)         -5.4101         estimate D2E/DX2                !
 ! D383  D(58,59,60,55)         -6.7901         estimate D2E/DX2                !
 ! D384  D(58,59,60,61)       -147.9904         estimate D2E/DX2                !
 ! D385  D(55,60,61,9)        -137.3363         estimate D2E/DX2                !
 ! D386  D(55,60,61,62)          4.6495         estimate D2E/DX2                !
 ! D387  D(59,60,61,9)           3.4158         estimate D2E/DX2                !
 ! D388  D(59,60,61,62)        145.4017         estimate D2E/DX2                !
 ! D389  D(9,61,62,53)         133.7381         estimate D2E/DX2                !
 ! D390  D(9,61,62,63)          -3.6119         estimate D2E/DX2                !
 ! D391  D(60,61,62,53)         -3.8189         estimate D2E/DX2                !
 ! D392  D(60,61,62,63)       -141.1689         estimate D2E/DX2                !
 ! D393  D(53,62,63,8)        -138.0219         estimate D2E/DX2                !
 ! D394  D(53,62,63,64)          3.5463         estimate D2E/DX2                !
 ! D395  D(61,62,63,8)           3.7633         estimate D2E/DX2                !
 ! D396  D(61,62,63,64)        145.3315         estimate D2E/DX2                !
 ! D397  D(8,63,64,52)         138.0219         estimate D2E/DX2                !
 ! D398  D(8,63,64,65)          -3.7633         estimate D2E/DX2                !
 ! D399  D(62,63,64,52)         -3.5463         estimate D2E/DX2                !
 ! D400  D(62,63,64,65)       -145.3315         estimate D2E/DX2                !
 ! D401  D(52,64,65,1)        -133.7381         estimate D2E/DX2                !
 ! D402  D(52,64,65,66)          3.8189         estimate D2E/DX2                !
 ! D403  D(63,64,65,1)           3.6119         estimate D2E/DX2                !
 ! D404  D(63,64,65,66)        141.1689         estimate D2E/DX2                !
 ! D405  D(1,65,66,42)          -3.4158         estimate D2E/DX2                !
 ! D406  D(1,65,66,49)         137.3363         estimate D2E/DX2                !
 ! D407  D(64,65,66,42)       -145.4017         estimate D2E/DX2                !
 ! D408  D(64,65,66,49)         -4.6496         estimate D2E/DX2                !
 --------------------------------------------------------------------------------
 Trust Radius=3.00D-01 FncErr=1.00D-07 GrdErr=1.00D-06 EigMax=2.50D+02 EigMin=1.00D-04
 Number of steps in this run=    408 maximum allowed number of steps=    408.
 GradGradGradGradGradGradGradGradGradGradGradGradGradGradGradGradGradGrad

 Leave Link  103 at Wed Jul 20 14:03:02 2022, MaxMem=  1342177280 cpu:               1.7 elap:               0.1
 (Enter /home/mkliu/g16/l202.exe)
 Stoichiometry    C66H2
 Framework group  C1[X(C66H2)]
 Deg. of freedom   198
 Full point group                 C1      NOp   1
 Largest Abelian subgroup         C1      NOp   1
 Largest concise Abelian subgroup C1      NOp   1
                         Standard orientation:                         
 ---------------------------------------------------------------------
 Center     Atomic      Atomic             Coordinates (Angstroms)
 Number     Number       Type             X           Y           Z
 ---------------------------------------------------------------------
      1          6           0       -3.067208    2.313396    0.746976
      2          6           0       -3.422461    1.166570    1.438192
      3          6           0       -2.607027    0.712834    2.537091
      4          6           0       -1.439357    1.382560    2.876493
      5          6           0       -2.607028   -0.712829    2.537092
      6          6           0       -3.422462   -1.166565    1.438193
      7          6           0        2.958580   -0.000001    2.595280
      8          6           0       -3.888144    0.000003    0.728412
      9          6           0       -3.067212   -2.313392    0.746978
     10          6           0        3.842689   -0.000002    1.355899
     11          6           0       -1.934417   -3.085651    1.177595
     12          6           0       -1.144338   -2.625921    2.230340
     13          6           0       -1.439359   -1.382556    2.876494
     14          6           0        0.232258   -2.772546   -2.223691
     15          6           0        0.275406   -2.773049    2.196399
     16          6           0        0.852878   -3.472279   -1.173088
     17          6           0        2.136199   -3.074701   -0.747916
     18          6           0        0.816912    1.612851   -2.810490
     19          6           0       -0.272293    0.695973   -3.172390
     20          6           0       -0.272294   -0.695975   -3.172390
     21          6           0        3.737335   -1.215234    0.656837
     22          6           0        2.815984   -2.057101    1.374675
     23          6           0        2.186249   -1.296153    2.418609
     24          6           0        0.894069   -1.601929    2.779020
     25          6           0       -0.199316   -0.693198    3.174594
     26          6           0       -0.199316    0.693201    3.174594
     27          6           0        0.894071    1.601930    2.779020
     28          6           0        2.186250    1.296152    2.418609
     29          6           0        2.815986    2.057098    1.374674
     30          6           0        3.737337    1.215230    0.656837
     31          6           0        3.733399    1.249501   -0.742555
     32          6           0        2.811355    2.053901   -1.427527
     33          6           0        3.934543   -0.000003   -1.540557
     34          6           0        2.136203    3.074697   -0.747918
     35          6           0        2.148734    3.064461    0.696853
     36          6           0        0.863680    3.470651    1.146864
     37          6           0        2.740845   -0.000003   -2.486263
     38          6           0        0.275410    2.773051    2.196398
     39          6           0       -1.144334    2.625924    2.230339
     40          6           0        2.141480    1.272357   -2.472190
     41          6           0       -1.934412    3.085654    1.177593
     42          6           0       -1.294219    3.627732    0.008726
     43          6           0        0.071763    3.819597   -0.006059
     44          6           0        0.852883    3.472278   -1.173090
     45          6           0        0.816910   -1.612853   -2.810489
     46          6           0        2.141479   -1.272361   -2.472190
     47          6           0        0.232262    2.772544   -2.223692
     48          6           0        2.811352   -2.053906   -1.427526
     49          6           0       -1.193777    2.627314   -2.218139
     50          6           0        3.733398   -1.249507   -0.742554
     51          6           0       -1.507653    1.384449   -2.857500
[...]
 Alpha virt. eigenvalues --    0.82857   0.83134   0.83296   0.83539   0.84205
 Alpha virt. eigenvalues --    0.84409   0.84799   0.84839   0.85463   0.85568
 Alpha virt. eigenvalues --    0.86048   0.86783   0.86873   0.87461   0.88212
 Alpha virt. eigenvalues --    0.89183   0.89567   0.90011   0.90145   0.90961
 Alpha virt. eigenvalues --    0.91726   0.92038   0.92345   0.92487   0.92692
 Alpha virt. eigenvalues --    0.93148   0.93373   0.93829   0.94160   0.94397
 Alpha virt. eigenvalues --    0.94487   0.94620   0.95670   0.95948   0.96094
 Alpha virt. eigenvalues --    0.96577   0.96834   0.97457   0.97653   0.98290
 Alpha virt. eigenvalues --    0.98345   0.98926   0.99525   1.01034   1.01171
 Alpha virt. eigenvalues --    1.01748   1.01989   1.02918   1.03166   1.03390
 Alpha virt. eigenvalues --    1.04156   1.04217   1.04528   1.04772   1.05159
 Alpha virt. eigenvalues --    1.05481   1.05925   1.05964   1.06510   1.06521
 Alpha virt. eigenvalues --    1.06982   1.07418   1.07946   1.08824   1.08937
 Alpha virt. eigenvalues --    1.09017   1.09597   1.10458   1.10547   1.11218
 Alpha virt. eigenvalues --    1.11255   1.12091   1.12259   1.12878   1.13538
 Alpha virt. eigenvalues --    1.13846   1.14072   1.14249   1.15535   1.15757
 Alpha virt. eigenvalues --    1.16381   1.16632   1.17011   1.18070   1.18425
 Alpha virt. eigenvalues --    1.18976   1.19676   1.19835   1.20344   1.20738
 Alpha virt. eigenvalues --    1.21026   1.21313   1.21666   1.22405   1.22776
 Alpha virt. eigenvalues --    1.23257   1.23722   1.24140   1.24704   1.25340
 Alpha virt. eigenvalues --    1.25490   1.25859   1.26153   1.26167   1.26872
 Alpha virt. eigenvalues --    1.27450   1.28110   1.28365   1.29126   1.29599
 Alpha virt. eigenvalues --    1.30285   1.31217   1.31374   1.31428   1.32239
 Alpha virt. eigenvalues --    1.33145   1.33191   1.33524   1.33639   1.34061
 Alpha virt. eigenvalues --    1.34128   1.34769   1.34883   1.35267   1.35350
 Alpha virt. eigenvalues --    1.35550   1.35895   1.36736   1.36988   1.37667
 Alpha virt. eigenvalues --    1.38145   1.38156   1.38429   1.38567   1.38947
 Alpha virt. eigenvalues --    1.39509   1.39528   1.39935   1.40339   1.40526
 Alpha virt. eigenvalues --    1.41142   1.41221   1.42017   1.42567   1.42695
 Alpha virt. eigenvalues --    1.42875   1.42953   1.43391   1.43611   1.43957
 Alpha virt. eigenvalues --    1.44065   1.44685   1.44761   1.45133   1.45496
 Alpha virt. eigenvalues --    1.45739   1.46083   1.46236   1.46670   1.46804
 Alpha virt. eigenvalues --    1.46915   1.47119   1.47164   1.47323   1.47358
 Alpha virt. eigenvalues --    1.47413   1.48369   1.48445   1.48764   1.49034
 Alpha virt. eigenvalues --    1.49102   1.49441   1.49800   1.49976   1.50508
 Alpha virt. eigenvalues --    1.50946   1.50987   1.51045   1.51141   1.51455
 Alpha virt. eigenvalues --    1.51655   1.52011   1.52330   1.52732   1.53035
 Alpha virt. eigenvalues --    1.53322   1.53444   1.53937   1.54630   1.55190
 Alpha virt. eigenvalues --    1.55468   1.55764   1.55841   1.56274   1.56346
 Alpha virt. eigenvalues --    1.56692   1.56966   1.57747   1.58016   1.58534
 Alpha virt. eigenvalues --    1.59546   1.60337   1.60533   1.60923   1.61162
 Alpha virt. eigenvalues --    1.61591   1.62625   1.62659   1.62990   1.63133
 Alpha virt. eigenvalues --    1.64216   1.64346   1.64671   1.65161   1.65376
 Alpha virt. eigenvalues --    1.65881   1.66253   1.66705   1.67549   1.67759
 Alpha virt. eigenvalues --    1.67884   1.68471   1.68520   1.68913   1.69749
 Alpha virt. eigenvalues --    1.69987   1.70410   1.70684   1.70709   1.71571
 Alpha virt. eigenvalues --    1.72124   1.72406   1.73286   1.73296   1.73569
 Alpha virt. eigenvalues --    1.74547   1.75099   1.75394   1.75710   1.76111
 Alpha virt. eigenvalues --    1.76221   1.76330   1.77032   1.77536   1.77887
 Alpha virt. eigenvalues --    1.78236   1.78579   1.78613   1.78991   1.79519
 Alpha virt. eigenvalues --    1.80214   1.80442   1.80818   1.81099   1.81317
 Alpha virt. eigenvalues --    1.81638   1.82282   1.82663   1.83090   1.83209
 Alpha virt. eigenvalues --    1.83794   1.84584   1.85489   1.85941   1.85980
 Alpha virt. eigenvalues --    1.86549   1.86611   1.87902   1.88574   1.89084
 Alpha virt. eigenvalues --    1.89484   1.89768   1.90112   1.90268   1.91229
 Alpha virt. eigenvalues --    1.91708   1.92073   1.92585   1.92601   1.92821
 Alpha virt. eigenvalues --    1.92936   1.93437   1.94259   1.95002   1.95453
 Alpha virt. eigenvalues --    1.95522   1.95975   1.97622   1.97839   1.98119
 Alpha virt. eigenvalues --    1.99383   1.99989   2.00728   2.00873   2.01538
 Alpha virt. eigenvalues --    2.01555   2.02030   2.02390   2.02573   2.02651
 Alpha virt. eigenvalues --    2.03292   2.03780   2.03894   2.04141   2.04256
 Alpha virt. eigenvalues --    2.04675   2.05214   2.05381   2.06798   2.07327
 Alpha virt. eigenvalues --    2.07483   2.07803   2.08373   2.08546   2.09663
 Alpha virt. eigenvalues --    2.09707   2.10258   2.10674   2.10871   2.11477
 Alpha virt. eigenvalues --    2.11801   2.11973   2.13013   2.13556   2.14437
 Alpha virt. eigenvalues --    2.15332   2.15997   2.16700   2.17789   2.18058
 Alpha virt. eigenvalues --    2.18397   2.19288   2.20041   2.20641   2.20780
 Alpha virt. eigenvalues --    2.20838   2.21572   2.22131   2.22896   2.23638
 Alpha virt. eigenvalues --    2.24367   2.24752   2.25059   2.25148   2.25297
 Alpha virt. eigenvalues --    2.26009   2.26582   2.26892   2.28456   2.28771
 Alpha virt. eigenvalues --    2.29219   2.29660   2.29724   2.29881   2.31196
 Alpha virt. eigenvalues --    2.31711   2.31974   2.32134   2.32382   2.33554
 Alpha virt. eigenvalues --    2.34352   2.35072   2.36019   2.37204   2.37253
 Alpha virt. eigenvalues --    2.37955   2.39078   2.39391   2.39540   2.39742
 Alpha virt. eigenvalues --    2.40138   2.40391   2.40858   2.41133   2.41741
 Alpha virt. eigenvalues --    2.42114   2.42535   2.43261   2.43465   2.44708
 Alpha virt. eigenvalues --    2.44889   2.45072   2.45804   2.45859   2.46307
 Alpha virt. eigenvalues --    2.47079   2.47531   2.48080   2.48150   2.48868
 Alpha virt. eigenvalues --    2.50509   2.51118   2.51548   2.52756   2.52986
 Alpha virt. eigenvalues --    2.53156   2.53531   2.54177   2.55525   2.55662
 Alpha virt. eigenvalues --    2.55794   2.56215   2.56441   2.56574   2.56767
 Alpha virt. eigenvalues --    2.57437   2.57583   2.57803   2.58406   2.58517
 Alpha virt. eigenvalues --    2.59291   2.60175   2.60274   2.60317   2.60742
 Alpha virt. eigenvalues --    2.61566   2.62344   2.63284   2.63578   2.64771
 Alpha virt. eigenvalues --    2.64780   2.64928   2.65647   2.66100   2.66219
 Alpha virt. eigenvalues --    2.66488   2.69473   2.69603   2.70217   2.70384
 Alpha virt. eigenvalues --    2.70809   2.70840   2.72285   2.72939   2.74181
 Alpha virt. eigenvalues --    2.74984   2.75641   2.76132   2.78378   2.78976
 Alpha virt. eigenvalues --    2.79365   2.79742   2.80214   2.80439   2.80909
 Alpha virt. eigenvalues --    2.82894   2.84025   2.84051   2.84119   2.84358
 Alpha virt. eigenvalues --    2.84746   2.85944   2.86542   2.87867   2.88814
 Alpha virt. eigenvalues --    2.88862   2.90055   2.90984   2.91454   2.92431
 Alpha virt. eigenvalues --    2.92513   2.93318   2.93463   2.93987   2.95268
 Alpha virt. eigenvalues --    2.96713   2.97109   2.97854   2.98301   2.98380
 Alpha virt. eigenvalues --    2.98714   2.99132   2.99485   2.99810   3.00496
 Alpha virt. eigenvalues --    3.00743   3.01450   3.01460   3.01758   3.01759
 Alpha virt. eigenvalues --    3.01978   3.03434   3.03543   3.03620   3.04072
 Alpha virt. eigenvalues --    3.04330   3.04467   3.04666   3.05352   3.05399
 Alpha virt. eigenvalues --    3.05612   3.05663   3.06072   3.06392   3.06706
 Alpha virt. eigenvalues --    3.07309   3.07407   3.07788   3.08242   3.08693
 Alpha virt. eigenvalues --    3.09057   3.09723   3.10306   3.10427   3.11135
 Alpha virt. eigenvalues --    3.11136   3.11221   3.12018   3.12926   3.13023
 Alpha virt. eigenvalues --    3.13205   3.13325   3.13505   3.13817   3.14048
 Alpha virt. eigenvalues --    3.14340   3.14726   3.14732   3.14988   3.15221
 Alpha virt. eigenvalues --    3.15696   3.16168   3.16399   3.16715   3.17057
 Alpha virt. eigenvalues --    3.17583   3.18072   3.18367   3.19594   3.19995
 Alpha virt. eigenvalues --    3.20123   3.20318   3.21048   3.21471   3.21571
 Alpha virt. eigenvalues --    3.21750   3.25103   3.26940   3.27835   3.33596
 Alpha virt. eigenvalues --    3.35929   3.38466   3.39280   3.41340   3.43436
 Alpha virt. eigenvalues --    3.43737   3.47071   3.47473   3.48715   3.49475
 Alpha virt. eigenvalues --    3.50974   3.51172   3.51338   3.53188   3.54003
 Alpha virt. eigenvalues --    3.55718   3.55769   3.56067   3.56149   3.57725
 Alpha virt. eigenvalues --    3.58389   3.59234   3.59455   3.60735   3.61889
 Alpha virt. eigenvalues --    3.63173   3.64942   3.65281   3.65357   3.66936
 Alpha virt. eigenvalues --    3.68014   3.68664   3.69857   3.70072   3.70097
 Alpha virt. eigenvalues --    3.70611   3.72093   3.74158   3.74320   3.75150
 Alpha virt. eigenvalues --    3.76133   3.77342   3.78202   3.80910   3.81450
 Alpha virt. eigenvalues --    3.83512   3.83917   3.84505   3.86158   3.87027
 Alpha virt. eigenvalues --    3.87397   3.87922   3.88944   3.89398   3.90243
 Alpha virt. eigenvalues --    3.90719   3.90982   3.91711   3.92546   3.92555
 Alpha virt. eigenvalues --    3.94129   3.95381   3.97340   4.01832   4.01918
 Alpha virt. eigenvalues --    4.07736   4.21197   4.23585   4.23989   4.27177
 Alpha virt. eigenvalues --    4.31177   4.35753   4.36945   4.38287   4.40432
 Alpha virt. eigenvalues --    4.41473   4.41710   4.44329   4.46061   4.56292
 Alpha virt. eigenvalues --    4.59691   4.61615   4.61749   4.63488   4.65355
 Alpha virt. eigenvalues --    4.65908   4.68779   4.73509   4.76928   4.78208
 Alpha virt. eigenvalues --    4.83511   4.88829   4.91053   4.94921   4.98653
 Alpha virt. eigenvalues --    4.99637   5.02981   5.04107   5.04537   5.05148
 Alpha virt. eigenvalues --   23.01533  23.20855  23.23210  23.24223  23.44415
 Alpha virt. eigenvalues --   23.46841  23.47679  23.48302  23.50458  23.63951
 Alpha virt. eigenvalues --   23.64740  23.66413  23.67962  23.73006  23.73971
 Alpha virt. eigenvalues --   23.75541  23.78792  23.82590  23.83051  23.84525
 Alpha virt. eigenvalues --   23.84689  23.86677  23.87449  23.89291  23.90338
 Alpha virt. eigenvalues --   23.91323  23.92038  23.93779  23.93783  23.94532
 Alpha virt. eigenvalues --   23.95996  23.96705  23.97305  23.97377  23.98205
 Alpha virt. eigenvalues --   23.98767  23.99278  23.99336  23.99565  24.00179
 Alpha virt. eigenvalues --   24.00348  24.01887  24.01968  24.02293  24.02939
 Alpha virt. eigenvalues --   24.05216  24.05797  24.06929  24.07471  24.08867
 Alpha virt. eigenvalues --   24.09175  24.09281  24.10052  24.10165  24.10487
 Alpha virt. eigenvalues --   24.10933  24.11206  24.11564  24.11656  24.12004
 Alpha virt. eigenvalues --   24.12257  24.12757  24.13364  24.13583  24.13901
 Alpha virt. eigenvalues --   24.14079
          Condensed to atoms (all electrons):
 Mulliken charges:
               1
     1  C   -0.000422
     2  C   -0.002113
     3  C   -0.003667
     4  C   -0.002985
     5  C   -0.003667
     6  C   -0.002113
     7  C   -0.132714
     8  C   -0.000631
     9  C   -0.000422
    10  C   -0.069583
    11  C    0.001866
    12  C   -0.003024
    13  C   -0.002985
    14  C   -0.006090
    15  C   -0.001642
    16  C   -0.007577
    17  C   -0.005658
    18  C   -0.007459
    19  C    0.011776
    20  C    0.011776
    21  C    0.059152
    22  C    0.012359
    23  C   -0.032424
    24  C    0.018355
    25  C   -0.001826
    26  C   -0.001826
    27  C    0.018355
    28  C   -0.032424
    29  C    0.012359
    30  C    0.059152
    31  C   -0.029081
    32  C    0.014323
    33  C   -0.195783
    34  C   -0.005658
    35  C   -0.010078
    36  C   -0.004224
    37  C   -0.023270
    38  C   -0.001642
    39  C   -0.003024
    40  C    0.042071
    41  C    0.001866
    42  C   -0.000851
    43  C   -0.006156
    44  C   -0.007577
    45  C   -0.007459
    46  C    0.042071
    47  C   -0.006090
    48  C    0.014323
    49  C   -0.002178
    50  C   -0.029081
    51  C   -0.006884
    52  C   -0.000887
    53  C   -0.000887
    54  C   -0.006884
    55  C   -0.002178
    56  C   -0.010078
    57  C   -0.004224
    58  C   -0.006156
    59  C   -0.000851
    60  C    0.005758
    61  C   -0.004544
    62  C    0.000300
    63  C    0.000583
    64  C    0.000300
    65  C   -0.004544
    66  C    0.005758
    67  H    0.177960
    68  H    0.191062
 Sum of Mulliken charges =  -0.00000
 Mulliken charges with hydrogens summed into heavy atoms:
               1
     1  C   -0.000422
     2  C   -0.002113
     3  C   -0.003667
     4  C   -0.002985
     5  C   -0.003667
     6  C   -0.002113
     7  C    0.045246
     8  C   -0.000631
     9  C   -0.000422
    10  C   -0.069583
    11  C    0.001866
    12  C   -0.003024
    13  C   -0.002985
    14  C   -0.006090
    15  C   -0.001642
    16  C   -0.007577
    17  C   -0.005658
    18  C   -0.007459
    19  C    0.011776
    20  C    0.011776
    21  C    0.059152
    22  C    0.012359
    23  C   -0.032424
    24  C    0.018355
    25  C   -0.001826
    26  C   -0.001826
    27  C    0.018355
    28  C   -0.032424
    29  C    0.012359
    30  C    0.059152
    31  C   -0.029081
    32  C    0.014323
    33  C   -0.004721
    34  C   -0.005658
    35  C   -0.010078
    36  C   -0.004224
    37  C   -0.023270
    38  C   -0.001642
    39  C   -0.003024
    40  C    0.042071
    41  C    0.001866
    42  C   -0.000851
    43  C   -0.006156
    44  C   -0.007577
    45  C   -0.007459
    46  C    0.042071
    47  C   -0.006090
    48  C    0.014323
    49  C   -0.002178
    50  C   -0.029081
    51  C   -0.006884
    52  C   -0.000887
    53  C   -0.000887
    54  C   -0.006884
    55  C   -0.002178
    56  C   -0.010078
    57  C   -0.004224
    58  C   -0.006156
    59  C   -0.000851
    60  C    0.005758
    61  C   -0.004544
    62  C    0.000300
    63  C    0.000583
    64  C    0.000300
    65  C   -0.004544
    66  C    0.005758
 Electronic spatial extent (au):  <R**2>=          20814.9285
 Charge=             -0.0000 electrons
 Dipole moment (field-independent basis, Debye):
    X=              2.4168    Y=             -0.0000    Z=             -0.0015  Tot=              2.4168
 Quadrupole moment (field-independent basis, Debye-Ang):
   XX=           -359.2839   YY=           -376.2267   ZZ=           -364.9074
   XY=             -0.0000   XZ=             -0.0252   YZ=              0.0000
 Traceless Quadrupole moment (field-independent basis, Debye-Ang):
   XX=              7.5221   YY=             -9.4207   ZZ=              1.8986
   XY=             -0.0000   XZ=             -0.0252   YZ=              0.0000
 Octapole moment (field-independent basis, Debye-Ang**2):
  XXX=             68.1409  YYY=             -0.0000  ZZZ=             15.1684  XYY=             -8.1276
  XXY=             -0.0000  XXZ=             -8.8136  XZZ=             36.7955  YZZ=             -0.0000
  YYZ=             -0.8273  XYZ=              0.0000
 Hexadecapole moment (field-independent basis, Debye-Ang**3):
 XXXX=         -12217.6878 YYYY=         -11197.4970 ZZZZ=          -8722.0226 XXXY=             -0.0000
 XXXZ=            -72.4377 YYYX=             -0.0000 YYYZ=              0.0000 ZZZX=             60.8861
 ZZZY=              0.0000 XXYY=          -3964.4215 XXZZ=          -3415.3547 YYZZ=          -3339.0540
 XXYZ=              0.0000 YYXZ=             -0.2189 ZZXY=             -0.0000
 N-N= 9.741745433052D+03 E-N=-2.531828292772D+04  KE= 2.506277137082D+03
 No NMR shielding tensors so no spin-rotation constants.
 Leave Link  601 at Wed Jul 20 14:35:51 2022, MaxMem=  1342177280 cpu:              58.6 elap:               1.4
 (Enter /home/mkliu/g16/l9999.exe)
 1\1\GINC-NODE01\FOpt\RB3LYP\6-311G(d,p)\C66H2\MKLIU\20-Jul-2022\0\\#P 
 opt b3lyp/6-311G(d, p) empiricaldispersion=GD3\\force\\0,1\C,12.801416
 5518,12.0834345979,21.8898830609\C,12.8108584152,13.0276812656,22.9075
 922737\C,12.6873122475,14.4389372638,22.5863467116\C,12.6103773932,14.
 8555268247,21.2599224658\C,13.4937650647,15.1833565345,23.504076967\C,
 14.1343501217,14.2493680285,24.4137044288\C,15.6367504983,17.340085768
 1,18.7563802195\C,13.7445893266,12.9080331217,24.0141823596\C,15.42083
 43687,14.5013629125,24.8707381613\C,16.9067258761,16.8154559874,18.065
 947795\C,16.0889448117,15.7272145147,24.49949896\C,15.4692194933,16.61
 42448247,23.6078141519\C,14.1806105361,16.3049752902,23.0468223674\C,1
 9.2626640103,14.0353467665,22.5965769552\C,16.2378323382,17.3042550102
 ,22.6148787708\C,19.2209067708,15.4537324783,22.5721280436\C,19.302312
 4368,16.1335465967,21.3433650016\C,17.4493893656,11.5679171863,19.3105
 925659\C,17.7153022541,11.2906221265,20.7457509393\C,18.5044185361,12.
 0190384633,21.6437524861\C,18.0231098434,16.9012235634,18.9206931137\C
 ,17.5843566644,17.4588167711,20.1841494327\C,16.1378063595,17.54978618
 35,20.1907355821\C,15.4603734618,17.4048320461,21.3865837265\C,14.1538
 73271,16.7242087109,21.645491764\C,13.3681406836,15.9989158603,20.7513
 408132\C,13.632318939,15.7173942357,19.3062872867\C,14.6590398838,16.1
 847686401,18.507923283\C,15.2444217497,15.2988731481,17.5213413842\C,1
 6.6451723748,15.6292791347,17.35262258\C,17.5861358723,14.580684383,17
 .3194268405\C,17.1690371763,13.2554768167,17.5002811513\C,18.933308838
 5,14.7418342135,17.9671175527\C,15.8096929631,12.9095846038,17.3688205
 387\C,14.8223902373,13.9833866458,17.3784541338\C,13.6896977368,13.529
 632896,18.1129418439\C,19.0374291344,13.5120036463,18.8732023855\C,13.
 0863939174,14.3952299429,19.02859286\C,12.4929288036,13.866894833,20.2
 208435045\C,18.0284016929,12.5916534669,18.5146737407\C,12.5943010453,
 12.5013839392,20.5226508982\C,13.390583894,11.650571895,19.6660655149\
 C,13.9233595052,12.1495223555,18.4939594979\C,15.2901766142,11.8253599
 289,18.0990206786\C,19.282733431,13.2602376937,21.3969084613\C,19.4688
 365824,13.9212879572,20.1538653426\C,16.1197760767,11.1342144067,19.02
 00213059\C,19.499799161,15.4069531061,20.1526506013\C,15.5357589173,10
 .5780839314,20.215002119\C,19.0052212618,15.8906116416,18.9343230903\C
 ,16.5283762798,10.6084893872,21.2564514154\C,16.1224481689,10.71488379
 52,22.5845267011\C,16.9317792,11.4619598725,23.5055323028\C,18.1026131
 886,12.0616336874,23.0479075869\C,18.5118258857,13.3252274194,23.60171
 82006\C,18.305563691,17.1986292041,21.3422491594\C,17.6277102649,17.16
 47276402,22.5943363673\C,18.2469335572,16.1405206587,23.4141168117\C,1
 7.4977722604,15.4418292367,24.339979442\C,17.678270965,14.0039286201,2
 4.4945862387\C,16.4101282008,13.4321528669,24.8698250538\C,16.05612955
 46,12.1636025003,24.4180462486\C,14.6887254554,11.8819866777,24.016805
 6853\C,14.7317513323,10.9410973996,22.9109252286\C,13.7898906437,11.01
 34678506,21.8880370821\C,14.1880710957,10.78220008,20.5227952578\H,15.
 2473635904,18.2769019248,18.3386519919\H,19.751072857,14.7646348097,17
 .2300150203\\Version=ES64L-G16RevA.03\State=1-A\HF=-2516.5460288\RMSD=
 9.835e-09\RMSF=5.815e-05\Dipole=0.4385588,0.4240336,-0.7293372\Quadrup
 ole=-0.3628558,-0.045977,0.4088328,-1.6088925,-4.5309008,-4.2302775\PG
 =C01 [X(C66H2)]\\@


 KEEP CLOSE TO NATURES HEART, YOURSELF;
 AND BREAK CLEAR AWAY, ONCE IN A WHILE, AND
 CLIMB A MOUNTAIN OR SPEND A WEEK IN THE
 WOODS.  WASH YOUR SPIRIT CLEAN...
                                         -- JOHN MUIR
 Job cpu time:       1 days  2 hours  8 minutes 48.1 seconds.
 Elapsed time:       0 days  0 hours 32 minutes 45.9 seconds.
 File lengths (MBytes):  RWF=    884 Int=      0 D2E=      0 Chk=    109 Scr=      1
 Normal termination of Gaussian 16 at Wed Jul 20 14:35:51 2022.
