 Entering Gaussian System, Link 0=g16
 Input=dihept_6_addons_8.gjf
 Output=dihept_6_addons_8.log
 Initial command:
 /home/mkliu/g16/l1.exe "/data/scratch/Gau-146947.inp" -scrdir="/data/scratch/"
 Entering Link 1 = /home/mkliu/g16/l1.exe PID=    146948.
  
 Copyright (c) 1988,1990,1992,1993,1995,1998,2003,2009,2016,
            Gaussian, Inc.  All Rights Reserved.
  
 This is part of the Gaussian(R) 16 program.  It is based on
 the Gaussian(R) 09 system (copyright 2009, Gaussian, Inc.),
 the Gaussian(R) 03 system (copyright 2003, Gaussian, Inc.),
 the Gaussian(R) 98 system (copyright 1998, Gaussian, Inc.),
 the Gaussian(R) 94 system (copyright 1995, Gaussian, Inc.),
 the Gaussian 92(TM) system (copyright 1992, Gaussian, Inc.),
 the Gaussian 90(TM) system (copyright 1990, Gaussian, Inc.),
 the Gaussian 88(TM) system (copyright 1988, Gaussian, Inc.),
 the Gaussian 86(TM) system (copyright 1986, Carnegie Mellon
 University), and the Gaussian 82(TM) system (copyright 1983,
 Carnegie Mellon University). Gaussian is a federally registered
 trademark of Gaussian, Inc.
  
 This software contains proprietary and confidential information,
 including trade secrets, belonging to Gaussian, Inc.
  
 This software is provided under written license and may be
 used, copied, transmitted, or stored only in accord with that
 written license.
  
 The following legend is applicable only to US Government
 contracts under FAR:
  
                    RESTRICTED RIGHTS LEGEND
  
 Use, reproduction and disclosure by the US Government is
 subject to restrictions as set forth in subparagraphs (a)
 and (c) of the Commercial Computer Software - Restricted
 Rights clause in FAR 52.227-19.
  
 Gaussian, Inc.
 340 Quinnipiac St., Bldg. 40, Wallingford CT 06492
  
  
 ---------------------------------------------------------------
 Warning -- This program may not be used in any manner that
 competes with the business of Gaussian, Inc. or will provide
 assistance to any competitor of Gaussian, Inc.  The licensee
 of this program is prohibited from giving any competitor of
 Gaussian, Inc. access to this program.  By using this program,
 the user acknowledges that Gaussian, Inc. is engaged in the
 business of creating and licensing software in the field of
 computational chemistry and represents and warrants to the
 licensee that it is not a competitor of Gaussian, Inc. and that
 it will not use this program in any manner prohibited above.
 ---------------------------------------------------------------
  

 Cite this work as:
 Gaussian 16, Revision A.03,
 M. J. Frisch, G. W. Trucks, H. B. Schlegel, G. E. Scuseria, 
 M. A. Robb, J. R. Cheeseman, G. Scalmani, V. Barone, 
 G. A. Petersson, H. Nakatsuji, X. Li, M. Caricato, A. V. Marenich, 
 J. Bloino, B. G. Janesko, R. Gomperts, B. Mennucci, H. P. Hratchian, 
 J. V. Ortiz, A. F. Izmaylov, J. L. Sonnenberg, D. Williams-Young, 
 F. Ding, F. Lipparini, F. Egidi, J. Goings, B. Peng, A. Petrone, 
 T. Henderson, D. Ranasinghe, V. G. Zakrzewski, J. Gao, N. Rega, 
 G. Zheng, W. Liang, M. Hada, M. Ehara, K. Toyota, R. Fukuda, 
 J. Hasegawa, M. Ishida, T. Nakajima, Y. Honda, O. Kitao, H. Nakai, 
 T. Vreven, K. Throssell, J. A. Montgomery, Jr., J. E. Peralta, 
 F. Ogliaro, M. J. Bearpark, J. J. Heyd, E. N. Brothers, K. N. Kudin, 
 V. N. Staroverov, T. A. Keith, R. Kobayashi, J. Normand, 
 K. Raghavachari, A. P. Rendell, J. C. Burant, S. S. Iyengar, 
 J. Tomasi, M. Cossi, J. M. Millam, M. Klene, C. Adamo, R. Cammi, 
 J. W. Ochterski, R. L. Martin, K. Morokuma, O. Farkas, 
 J. B. Foresman, and D. J. Fox, Gaussian, Inc., Wallingford CT, 2016.
 
 ******************************************
 Gaussian 16:  ES64L-G16RevA.03 25-Dec-2016
                21-Jul-2022 
 ******************************************
 %mem=10GB
 %chk=dihept_6_addons_8.chk
 %nprocshared=48
 Will use up to   48 processors via shared memory.
 -------------------------------------------------
 #P opt b3lyp/6-311G(d, p) empiricaldispersion=GD3
 -------------------------------------------------
 1/18=20,19=15,26=3,38=1/1,3;
 2/9=110,12=2,17=6,18=5,40=1/2;
 3/5=4,6=6,7=101,11=2,25=1,30=1,71=1,74=-5,124=31/1,2,3;
 4//1;
 5/5=2,38=5/2;
 6/7=2,8=2,9=2,10=2,28=1/1;
 7//1,2,3,16;
 1/18=20,19=15,26=3/3(2);
 2/9=110/2;
 99//99;
 2/9=110/2;
 3/5=4,6=6,7=101,11=2,25=1,30=1,71=1,74=-5,124=31/1,2,3;
 4/5=5,16=3,69=1/1;
 5/5=2,38=5/2;
 7//1,2,3,16;
 1/18=20,19=15,26=3/3(-5);
 2/9=110/2;
 6/7=2,8=2,9=2,10=2,19=2,28=1/1;
 99/9=1/99;
 Leave Link    1 at Thu Jul 21 04:43:05 2022, MaxMem=  1342177280 cpu:               2.9 elap:               0.1
 (Enter /home/mkliu/g16/l101.exe)
 -----
 force
 -----
 Symbolic Z-matrix:
 Charge =  0 Multiplicity = 1
 C                     12.80903   12.08858   21.88978 
 C                     12.82459   13.03553   22.90059 
 C                     12.69631   14.4349   22.57691 
 C                     12.61476   14.84574   21.2465 
 C                     13.49549   15.1765   23.48658 
 C                     14.14441   14.24088   24.40437 
 C                     15.63069   17.34399   18.75125 
 C                     13.75752   12.92077   23.99411 
 C                     15.40903   14.49274   24.87969 
 C                     16.91461   16.97849   17.92398 
 C                     16.08744   15.84686   24.74708 
 C                     15.50865   16.56879   23.55702 
 C                     14.21789   16.2466   23.00224 
 C                     19.18949   14.02877   22.57468 
 C                     16.24014   17.19673   22.60146 
 C                     19.12861   15.4158   22.57703 
 C                     19.19879   16.08404   21.32361 
 C                     17.44701   11.60275   19.31835 
 C                     17.70069   11.29088   20.73581 
 C                     18.4816   12.01432   21.62498 
 C                     18.00398   16.84389   18.94874 
 C                     17.57735   17.39993   20.17873 
 C                     16.12917   17.50126   20.17428 
 C                     15.48154   17.29105   21.35623 
 C                     14.18959   16.65023   21.62008 
 C                     13.37677   15.9587   20.73552 
 C                     13.659    15.69163   19.3169 
 C                     14.68816   16.16942   18.53512 
 C                     15.27813   15.28352   17.57797 
 C                     16.65202   15.59652   17.39914 
 C                     17.58115   14.58942   17.393 
 C                     17.16007   13.2446   17.57277 
 C                     18.98385   14.73932   17.90553 
 C                     15.81829   12.92194   17.42358 
 C                     14.84832   13.97143   17.42459 
 C                     13.70289   13.51274   18.13262 
 C                     19.24809   13.42726   18.73209 
 C                     13.10763   14.38174   19.03592 
 C                     12.50132   13.85372   20.22067 
 C                     18.00135   12.58459   18.52567 
 C                     12.59704   12.49824   20.52595 
 C                     13.38463   11.64259   19.67774 
 C                     13.91652   12.13434   18.49967 
 C                     15.27404   11.81606   18.13397 
 C                     19.228    13.25094   21.35097 
 C                     19.4286   13.90859   20.15966 
 C                     16.09649   11.15778   19.03781 
 C                     19.41873   15.33946   20.16217 
 C                     15.52331   10.59116   20.21856 
 C                     18.93751   15.8336   18.9323 
 C                     16.52123   10.62228   21.24434 
 C                     16.11445   10.71956   22.5703 
 C                     16.91593   11.46508   23.48135 
 C                     18.07553   12.06447   23.01528 
 C                     18.46878   13.32443   23.5702 
 C                     18.30196   17.16727   21.33216 
 C                     17.72811   17.3559   22.70779 
 C                     18.23968   16.12333   23.43838 
 C                     17.49756   15.43665   24.35466 
 C                     17.63871   14.02096   24.45059 
 C                     16.37704   13.44777   24.8284 
 C                     16.03934   12.17143   24.38632 
 C                     14.69202   11.88538   23.9973 
 C                     14.72857   10.95155   22.89941 
 C                     13.78588   11.02597   21.88723 
 C                     14.17838   10.79028   20.52432 
 H                     15.1638   18.27398   18.40962 
 H                     17.14235   17.70574   17.1416 
 H                     19.72195   14.90661   17.11871 
 H                     20.13811   12.88857   18.39102 
 H                     16.03582   16.4396   25.66604 
 H                     18.00926   18.30403   23.17725 
 
 ITRead=  0  0  0  0  0  0  0  0  0  0  0  0  0  0  0  0  0  0  0  0
 ITRead=  0  0  0  0  0  0  0  0  0  0  0  0  0  0  0  0  0  0  0  0
 ITRead=  0  0  0  0  0  0  0  0  0  0  0  0  0  0  0  0  0  0  0  0
 ITRead=  0  0  0  0  0  0  0  0  0  0  0  0
 MicOpt= -1 -1 -1 -1 -1 -1 -1 -1 -1 -1 -1 -1 -1 -1 -1 -1 -1 -1 -1 -1
 MicOpt= -1 -1 -1 -1 -1 -1 -1 -1 -1 -1 -1 -1 -1 -1 -1 -1 -1 -1 -1 -1
 MicOpt= -1 -1 -1 -1 -1 -1 -1 -1 -1 -1 -1 -1 -1 -1 -1 -1 -1 -1 -1 -1
 MicOpt= -1 -1 -1 -1 -1 -1 -1 -1 -1 -1 -1 -1
 NAtoms=     72 NQM=       72 NQMF=       0 NMMI=      0 NMMIF=      0
                NMic=       0 NMicF=      0.
                    Isotopes and Nuclear Properties:
 (Nuclear quadrupole moments (NQMom) in fm**2, nuclear magnetic moments (NMagM)
  in nuclear magnetons)

  Atom         1           2           3           4           5           6           7           8           9          10
 IAtWgt=          12          12          12          12          12          12          12          12          12          12
 AtmWgt=  12.0000000  12.0000000  12.0000000  12.0000000  12.0000000  12.0000000  12.0000000  12.0000000  12.0000000  12.0000000
 NucSpn=           0           0           0           0           0           0           0           0           0           0
 AtZEff=  -0.0000000  -0.0000000  -0.0000000  -0.0000000  -0.0000000  -0.0000000  -0.0000000  -0.0000000  -0.0000000  -0.0000000
 NQMom=    0.0000000   0.0000000   0.0000000   0.0000000   0.0000000   0.0000000   0.0000000   0.0000000   0.0000000   0.0000000
 NMagM=    0.0000000   0.0000000   0.0000000   0.0000000   0.0000000   0.0000000   0.0000000   0.0000000   0.0000000   0.0000000
 AtZNuc=   6.0000000   6.0000000   6.0000000   6.0000000   6.0000000   6.0000000   6.0000000   6.0000000   6.0000000   6.0000000

  Atom        11          12          13          14          15          16          17          18          19          20
 IAtWgt=          12          12          12          12          12          12          12          12          12          12
 AtmWgt=  12.0000000  12.0000000  12.0000000  12.0000000  12.0000000  12.0000000  12.0000000  12.0000000  12.0000000  12.0000000
 NucSpn=           0           0           0           0           0           0           0           0           0           0
 AtZEff=  -0.0000000  -0.0000000  -0.0000000  -0.0000000  -0.0000000  -0.0000000  -0.0000000  -0.0000000  -0.0000000  -0.0000000
 NQMom=    0.0000000   0.0000000   0.0000000   0.0000000   0.0000000   0.0000000   0.0000000   0.0000000   0.0000000   0.0000000
 NMagM=    0.0000000   0.0000000   0.0000000   0.0000000   0.0000000   0.0000000   0.0000000   0.0000000   0.0000000   0.0000000
 AtZNuc=   6.0000000   6.0000000   6.0000000   6.0000000   6.0000000   6.0000000   6.0000000   6.0000000   6.0000000   6.0000000

  Atom        21          22          23          24          25          26          27          28          29          30
 IAtWgt=          12          12          12          12          12          12          12          12          12          12
 AtmWgt=  12.0000000  12.0000000  12.0000000  12.0000000  12.0000000  12.0000000  12.0000000  12.0000000  12.0000000  12.0000000
 NucSpn=           0           0           0           0           0           0           0           0           0           0
 AtZEff=  -0.0000000  -0.0000000  -0.0000000  -0.0000000  -0.0000000  -0.0000000  -0.0000000  -0.0000000  -0.0000000  -0.0000000
 NQMom=    0.0000000   0.0000000   0.0000000   0.0000000   0.0000000   0.0000000   0.0000000   0.0000000   0.0000000   0.0000000
 NMagM=    0.0000000   0.0000000   0.0000000   0.0000000   0.0000000   0.0000000   0.0000000   0.0000000   0.0000000   0.0000000
 AtZNuc=   6.0000000   6.0000000   6.0000000   6.0000000   6.0000000   6.0000000   6.0000000   6.0000000   6.0000000   6.0000000

  Atom        31          32          33          34          35          36          37          38          39          40
 IAtWgt=          12          12          12          12          12          12          12          12          12          12
 AtmWgt=  12.0000000  12.0000000  12.0000000  12.0000000  12.0000000  12.0000000  12.0000000  12.0000000  12.0000000  12.0000000
 NucSpn=           0           0           0           0           0           0           0           0           0           0
 AtZEff=  -0.0000000  -0.0000000  -0.0000000  -0.0000000  -0.0000000  -0.0000000  -0.0000000  -0.0000000  -0.0000000  -0.0000000
 NQMom=    0.0000000   0.0000000   0.0000000   0.0000000   0.0000000   0.0000000   0.0000000   0.0000000   0.0000000   0.0000000
 NMagM=    0.0000000   0.0000000   0.0000000   0.0000000   0.0000000   0.0000000   0.0000000   0.0000000   0.0000000   0.0000000
 AtZNuc=   6.0000000   6.0000000   6.0000000   6.0000000   6.0000000   6.0000000   6.0000000   6.0000000   6.0000000   6.0000000

  Atom        41          42          43          44          45          46          47          48          49          50
 IAtWgt=          12          12          12          12          12          12          12          12          12          12
 AtmWgt=  12.0000000  12.0000000  12.0000000  12.0000000  12.0000000  12.0000000  12.0000000  12.0000000  12.0000000  12.0000000
 NucSpn=           0           0           0           0           0           0           0           0           0           0
 AtZEff=  -0.0000000  -0.0000000  -0.0000000  -0.0000000  -0.0000000  -0.0000000  -0.0000000  -0.0000000  -0.0000000  -0.0000000
 NQMom=    0.0000000   0.0000000   0.0000000   0.0000000   0.0000000   0.0000000   0.0000000   0.0000000   0.0000000   0.0000000
 NMagM=    0.0000000   0.0000000   0.0000000   0.0000000   0.0000000   0.0000000   0.0000000   0.0000000   0.0000000   0.0000000
 AtZNuc=   6.0000000   6.0000000   6.0000000   6.0000000   6.0000000   6.0000000   6.0000000   6.0000000   6.0000000   6.0000000

  Atom        51          52          53          54          55          56          57          58          59          60
 IAtWgt=          12          12          12          12          12          12          12          12          12          12
 AtmWgt=  12.0000000  12.0000000  12.0000000  12.0000000  12.0000000  12.0000000  12.0000000  12.0000000  12.0000000  12.0000000
 NucSpn=           0           0           0           0           0           0           0           0           0           0
 AtZEff=  -0.0000000  -0.0000000  -0.0000000  -0.0000000  -0.0000000  -0.0000000  -0.0000000  -0.0000000  -0.0000000  -0.0000000
 NQMom=    0.0000000   0.0000000   0.0000000   0.0000000   0.0000000   0.0000000   0.0000000   0.0000000   0.0000000   0.0000000
 NMagM=    0.0000000   0.0000000   0.0000000   0.0000000   0.0000000   0.0000000   0.0000000   0.0000000   0.0000000   0.0000000
 AtZNuc=   6.0000000   6.0000000   6.0000000   6.0000000   6.0000000   6.0000000   6.0000000   6.0000000   6.0000000   6.0000000

  Atom        61          62          63          64          65          66          67          68          69          70
 IAtWgt=          12          12          12          12          12          12           1           1           1           1
 AtmWgt=  12.0000000  12.0000000  12.0000000  12.0000000  12.0000000  12.0000000   1.0078250   1.0078250   1.0078250   1.0078250
 NucSpn=           0           0           0           0           0           0           1           1           1           1
 AtZEff=  -0.0000000  -0.0000000  -0.0000000  -0.0000000  -0.0000000  -0.0000000  -0.0000000  -0.0000000  -0.0000000  -0.0000000
 NQMom=    0.0000000   0.0000000   0.0000000   0.0000000   0.0000000   0.0000000   0.0000000   0.0000000   0.0000000   0.0000000
 NMagM=    0.0000000   0.0000000   0.0000000   0.0000000   0.0000000   0.0000000   2.7928460   2.7928460   2.7928460   2.7928460
 AtZNuc=   6.0000000   6.0000000   6.0000000   6.0000000   6.0000000   6.0000000   1.0000000   1.0000000   1.0000000   1.0000000

  Atom        71          72
 IAtWgt=           1           1
 AtmWgt=   1.0078250   1.0078250
 NucSpn=           1           1
 AtZEff=  -0.0000000  -0.0000000
 NQMom=    0.0000000   0.0000000
 NMagM=    2.7928460   2.7928460
 AtZNuc=   1.0000000   1.0000000
 Leave Link  101 at Thu Jul 21 04:43:06 2022, MaxMem=  1342177280 cpu:              30.2 elap:               0.6
 (Enter /home/mkliu/g16/l103.exe)

 GradGradGradGradGradGradGradGradGradGradGradGradGradGradGradGradGradGrad
 Berny optimization.
 Initialization pass.
                           ----------------------------
                           !    Initial Parameters    !
                           ! (Angstroms and Degrees)  !
 --------------------------                            --------------------------
 ! Name  Definition              Value          Derivative Info.                !
 --------------------------------------------------------------------------------
 ! R1    R(1,2)                  1.3852         estimate D2E/DX2                !
 ! R2    R(1,41)                 1.4397         estimate D2E/DX2                !
 ! R3    R(1,65)                 1.4434         estimate D2E/DX2                !
 ! R4    R(2,3)                  1.442          estimate D2E/DX2                !
 ! R5    R(2,8)                  1.442          estimate D2E/DX2                !
 ! R6    R(3,4)                  1.3948         estimate D2E/DX2                !
 ! R7    R(3,5)                  1.4199         estimate D2E/DX2                !
 ! R8    R(4,26)                 1.4424         estimate D2E/DX2                !
 ! R9    R(4,39)                 1.4315         estimate D2E/DX2                !
 ! R10   R(5,6)                  1.4625         estimate D2E/DX2                !
 ! R11   R(5,13)                 1.379          estimate D2E/DX2                !
 ! R12   R(6,8)                  1.4355         estimate D2E/DX2                !
 ! R13   R(6,9)                  1.3743         estimate D2E/DX2                !
 ! R14   R(7,10)                 1.5705         estimate D2E/DX2                !
 ! R15   R(7,23)                 1.516          estimate D2E/DX2                !
 ! R16   R(7,28)                 1.5214         estimate D2E/DX2                !
 ! R17   R(7,67)                 1.0952         estimate D2E/DX2                !
 ! R18   R(8,63)                 1.3947         estimate D2E/DX2                !
 ! R19   R(9,11)                 1.5204         estimate D2E/DX2                !
 ! R20   R(9,61)                 1.4254         estimate D2E/DX2                !
 ! R21   R(10,21)                1.5017         estimate D2E/DX2                !
 ! R22   R(10,30)                1.5014         estimate D2E/DX2                !
 ! R23   R(10,68)                1.0922         estimate D2E/DX2                !
 ! R24   R(11,12)                1.5074         estimate D2E/DX2                !
 ! R25   R(11,59)                1.5201         estimate D2E/DX2                !
 ! R26   R(11,71)                1.0948         estimate D2E/DX2                !
 ! R27   R(12,13)                1.4414         estimate D2E/DX2                !
 ! R28   R(12,15)                1.3574         estimate D2E/DX2                !
 ! R29   R(13,25)                1.4402         estimate D2E/DX2                !
 ! R30   R(14,16)                1.3884         estimate D2E/DX2                !
 ! R31   R(14,45)                1.4505         estimate D2E/DX2                !
 ! R32   R(14,55)                1.4165         estimate D2E/DX2                !
 ! R33   R(15,24)                1.4612         estimate D2E/DX2                !
 ! R34   R(15,57)                1.5002         estimate D2E/DX2                !
 ! R35   R(16,17)                1.4222         estimate D2E/DX2                !
 ! R36   R(16,58)                1.4257         estimate D2E/DX2                !
 ! R37   R(17,48)                1.397          estimate D2E/DX2                !
 ! R38   R(17,56)                1.4063         estimate D2E/DX2                !
 ! R39   R(18,19)                1.4734         estimate D2E/DX2                !
 ! R40   R(18,40)                1.3783         estimate D2E/DX2                !
 ! R41   R(18,47)                1.4493         estimate D2E/DX2                !
 ! R42   R(19,20)                1.387          estimate D2E/DX2                !
 ! R43   R(19,51)                1.448          estimate D2E/DX2                !
 ! R44   R(20,45)                1.4702         estimate D2E/DX2                !
 ! R45   R(20,54)                1.4493         estimate D2E/DX2                !
 ! R46   R(21,22)                1.4157         estimate D2E/DX2                !
 ! R47   R(21,50)                1.3757         estimate D2E/DX2                !
 ! R48   R(22,23)                1.4517         estimate D2E/DX2                !
 ! R49   R(22,56)                1.3819         estimate D2E/DX2                !
 ! R50   R(23,24)                1.364          estimate D2E/DX2                !
 ! R51   R(24,25)                1.4661         estimate D2E/DX2                !
 ! R52   R(25,26)                1.3861         estimate D2E/DX2                !
 ! R53   R(26,27)                1.4709         estimate D2E/DX2                !
 ! R54   R(27,28)                1.3779         estimate D2E/DX2                !
 ! R55   R(27,38)                1.4487         estimate D2E/DX2                !
 ! R56   R(28,29)                1.4314         estimate D2E/DX2                !
 ! R57   R(29,30)                1.4204         estimate D2E/DX2                !
 ! R58   R(29,35)                1.3892         estimate D2E/DX2                !
 ! R59   R(30,31)                1.3702         estimate D2E/DX2                !
 ! R60   R(31,32)                1.4206         estimate D2E/DX2                !
 ! R61   R(31,33)                1.5009         estimate D2E/DX2                !
 ! R62   R(32,34)                1.3881         estimate D2E/DX2                !
 ! R63   R(32,40)                1.4323         estimate D2E/DX2                !
 ! R64   R(33,37)                1.5731         estimate D2E/DX2                !
 ! R65   R(33,50)                1.5013         estimate D2E/DX2                !
 ! R66   R(33,69)                1.0917         estimate D2E/DX2                !
 ! R67   R(34,35)                1.4291         estimate D2E/DX2                !
 ! R68   R(34,44)                1.4226         estimate D2E/DX2                !
 ! R69   R(35,36)                1.4226         estimate D2E/DX2                !
 ! R70   R(36,38)                1.3876         estimate D2E/DX2                !
 ! R71   R(36,43)                1.4423         estimate D2E/DX2                !
 ! R72   R(37,40)                1.5189         estimate D2E/DX2                !
 ! R73   R(37,46)                1.5173         estimate D2E/DX2                !
 ! R74   R(37,70)                1.0948         estimate D2E/DX2                !
 ! R75   R(38,39)                1.4318         estimate D2E/DX2                !
 ! R76   R(39,41)                1.3927         estimate D2E/DX2                !
 ! R77   R(41,42)                1.4394         estimate D2E/DX2                !
 ! R78   R(42,43)                1.383          estimate D2E/DX2                !
 ! R79   R(42,66)                1.4399         estimate D2E/DX2                !
 ! R80   R(43,44)                1.4415         estimate D2E/DX2                !
 ! R81   R(44,47)                1.3881         estimate D2E/DX2                !
 ! R82   R(45,46)                1.3755         estimate D2E/DX2                !
 ! R83   R(46,48)                1.4309         estimate D2E/DX2                !
 ! R84   R(47,49)                1.4296         estimate D2E/DX2                !
 ! R85   R(48,50)                1.4101         estimate D2E/DX2                !
 ! R86   R(49,51)                1.4314         estimate D2E/DX2                !
 ! R87   R(49,66)                1.3935         estimate D2E/DX2                !
 ! R88   R(51,52)                1.3904         estimate D2E/DX2                !
 ! R89   R(52,53)                1.4241         estimate D2E/DX2                !
 ! R90   R(52,64)                1.4432         estimate D2E/DX2                !
 ! R91   R(53,54)                1.3861         estimate D2E/DX2                !
 ! R92   R(53,62)                1.4444         estimate D2E/DX2                !
 ! R93   R(54,55)                1.4318         estimate D2E/DX2                !
 ! R94   R(55,60)                1.3962         estimate D2E/DX2                !
 ! R95   R(56,57)                1.5024         estimate D2E/DX2                !
 ! R96   R(57,58)                1.5214         estimate D2E/DX2                !
 ! R97   R(57,72)                1.0947         estimate D2E/DX2                !
 ! R98   R(58,59)                1.3645         estimate D2E/DX2                !
 ! R99   R(59,60)                1.4259         estimate D2E/DX2                !
 ! R100  R(60,61)                1.4363         estimate D2E/DX2                !
 ! R101  R(61,62)                1.3923         estimate D2E/DX2                !
 ! R102  R(62,63)                1.4312         estimate D2E/DX2                !
 ! R103  R(63,64)                1.4418         estimate D2E/DX2                !
 ! R104  R(64,65)                1.3852         estimate D2E/DX2                !
 ! R105  R(65,66)                1.4378         estimate D2E/DX2                !
 ! A1    A(2,1,41)             119.8947         estimate D2E/DX2                !
 ! A2    A(2,1,65)             119.7998         estimate D2E/DX2                !
 ! A3    A(41,1,65)            107.906          estimate D2E/DX2                !
 ! A4    A(1,2,3)              119.908          estimate D2E/DX2                !
 ! A5    A(1,2,8)              120.4144         estimate D2E/DX2                !
 ! A6    A(3,2,8)              107.7583         estimate D2E/DX2                !
 ! A7    A(2,3,4)              120.3408         estimate D2E/DX2                !
 ! A8    A(2,3,5)              108.238          estimate D2E/DX2                !
 ! A9    A(4,3,5)              119.35           estimate D2E/DX2                !
 ! A10   A(3,4,26)             122.2969         estimate D2E/DX2                !
 ! A11   A(3,4,39)             118.949          estimate D2E/DX2                !
 ! A12   A(26,4,39)            108.827          estimate D2E/DX2                !
 ! A13   A(3,5,6)              108.521          estimate D2E/DX2                !
 ! A14   A(3,5,13)             118.3688         estimate D2E/DX2                !
 ! A15   A(6,5,13)             118.9748         estimate D2E/DX2                !
 ! A16   A(5,6,8)              106.8209         estimate D2E/DX2                !
 ! A17   A(5,6,9)              120.5387         estimate D2E/DX2                !
 ! A18   A(8,6,9)              121.0234         estimate D2E/DX2                !
 ! A19   A(10,7,23)            104.4648         estimate D2E/DX2                !
 ! A20   A(10,7,28)            104.5938         estimate D2E/DX2                !
 ! A21   A(10,7,67)            112.4462         estimate D2E/DX2                !
 ! A22   A(23,7,28)            114.6542         estimate D2E/DX2                !
 ! A23   A(23,7,67)            110.1741         estimate D2E/DX2                !
 ! A24   A(28,7,67)            110.312          estimate D2E/DX2                !
 ! A25   A(2,8,6)              108.5368         estimate D2E/DX2                !
 ! A26   A(2,8,63)             119.6236         estimate D2E/DX2                !
 ! A27   A(6,8,63)             120.0955         estimate D2E/DX2                !
 ! A28   A(6,9,11)             122.9339         estimate D2E/DX2                !
 ! A29   A(6,9,61)             118.5644         estimate D2E/DX2                !
 ! A30   A(11,9,61)            110.2912         estimate D2E/DX2                !
 ! A31   A(7,10,21)            104.7421         estimate D2E/DX2                !
 ! A32   A(7,10,30)            104.7956         estimate D2E/DX2                !
 ! A33   A(7,10,68)            113.1314         estimate D2E/DX2                !
 ! A34   A(21,10,30)           106.4346         estimate D2E/DX2                !
 ! A35   A(21,10,68)           113.4074         estimate D2E/DX2                !
 ! A36   A(30,10,68)           113.5123         estimate D2E/DX2                !
 ! A37   A(9,11,12)            108.9098         estimate D2E/DX2                !
 ! A38   A(9,11,59)            101.3087         estimate D2E/DX2                !
 ! A39   A(9,11,71)            112.8286         estimate D2E/DX2                !
 ! A40   A(12,11,59)           106.3563         estimate D2E/DX2                !
 ! A41   A(12,11,71)           112.6616         estimate D2E/DX2                !
 ! A42   A(59,11,71)           113.9879         estimate D2E/DX2                !
 ! A43   A(11,12,13)           122.7263         estimate D2E/DX2                !
 ! A44   A(11,12,15)           124.7774         estimate D2E/DX2                !
 ! A45   A(13,12,15)           108.3627         estimate D2E/DX2                !
 ! A46   A(5,13,12)            120.4905         estimate D2E/DX2                !
 ! A47   A(5,13,25)            122.975          estimate D2E/DX2                !
 ! A48   A(12,13,25)           108.9255         estimate D2E/DX2                !
 ! A49   A(16,14,45)           122.5698         estimate D2E/DX2                !
 ! A50   A(16,14,55)           118.2454         estimate D2E/DX2                !
 ! A51   A(45,14,55)           109.8626         estimate D2E/DX2                !
 ! A52   A(12,15,24)           110.4883         estimate D2E/DX2                !
 ! A53   A(12,15,57)           122.2545         estimate D2E/DX2                !
 ! A54   A(24,15,57)           124.6452         estimate D2E/DX2                !
 ! A55   A(14,16,17)           117.7597         estimate D2E/DX2                !
 ! A56   A(14,16,58)           121.6104         estimate D2E/DX2                !
 ! A57   A(17,16,58)           109.2722         estimate D2E/DX2                !
 ! A58   A(16,17,48)           119.3445         estimate D2E/DX2                !
 ! A59   A(16,17,56)           108.9714         estimate D2E/DX2                !
 ! A60   A(48,17,56)           121.0624         estimate D2E/DX2                !
 ! A61   A(19,18,40)           129.4084         estimate D2E/DX2                !
 ! A62   A(19,18,47)           106.3593         estimate D2E/DX2                !
 ! A63   A(40,18,47)           118.8266         estimate D2E/DX2                !
 ! A64   A(18,19,20)           127.1046         estimate D2E/DX2                !
 ! A65   A(18,19,51)           107.1793         estimate D2E/DX2                !
 ! A66   A(20,19,51)           118.3128         estimate D2E/DX2                !
 ! A67   A(19,20,45)           127.2347         estimate D2E/DX2                !
 ! A68   A(19,20,54)           118.3782         estimate D2E/DX2                !
 ! A69   A(45,20,54)           106.9739         estimate D2E/DX2                !
 ! A70   A(10,21,22)           109.821          estimate D2E/DX2                !
 ! A71   A(10,21,50)           123.3646         estimate D2E/DX2                !
 ! A72   A(22,21,50)           120.2222         estimate D2E/DX2                !
 ! A73   A(21,22,23)           108.9894         estimate D2E/DX2                !
 ! A74   A(21,22,56)           120.0698         estimate D2E/DX2                !
 ! A75   A(23,22,56)           122.5064         estimate D2E/DX2                !
 ! A76   A(7,23,22)            108.8832         estimate D2E/DX2                !
 ! A77   A(7,23,24)            129.8858         estimate D2E/DX2                !
 ! A78   A(22,23,24)           117.4015         estimate D2E/DX2                !
 ! A79   A(15,24,23)           120.1254         estimate D2E/DX2                !
 ! A80   A(15,24,25)           106.0171         estimate D2E/DX2                !
 ! A81   A(23,24,25)           129.9193         estimate D2E/DX2                !
 ! A82   A(13,25,24)           106.1354         estimate D2E/DX2                !
 ! A83   A(13,25,26)           118.9572         estimate D2E/DX2                !
 ! A84   A(24,25,26)           128.3129         estimate D2E/DX2                !
 ! A85   A(4,26,25)            117.9483         estimate D2E/DX2                !
 ! A86   A(4,26,27)            107.6349         estimate D2E/DX2                !
 ! A87   A(25,26,27)           126.4098         estimate D2E/DX2                !
 ! A88   A(26,27,28)           128.8711         estimate D2E/DX2                !
 ! A89   A(26,27,38)           106.1532         estimate D2E/DX2                !
 ! A90   A(28,27,38)           119.1921         estimate D2E/DX2                !
 ! A91   A(7,28,27)            130.5273         estimate D2E/DX2                !
 ! A92   A(7,28,29)            108.5091         estimate D2E/DX2                !
 ! A93   A(27,28,29)           118.2041         estimate D2E/DX2                !
 ! A94   A(28,29,30)           110.2713         estimate D2E/DX2                !
 ! A95   A(28,29,35)           122.0631         estimate D2E/DX2                !
 ! A96   A(30,29,35)           119.5705         estimate D2E/DX2                !
 ! A97   A(10,30,29)           109.1466         estimate D2E/DX2                !
 ! A98   A(10,30,31)           124.0199         estimate D2E/DX2                !
 ! A99   A(29,30,31)           119.6351         estimate D2E/DX2                !
 ! A100  A(30,31,32)           119.6178         estimate D2E/DX2                !
 ! A101  A(30,31,33)           123.9709         estimate D2E/DX2                !
 ! A102  A(32,31,33)           109.1684         estimate D2E/DX2                !
 ! A103  A(31,32,34)           119.5359         estimate D2E/DX2                !
 ! A104  A(31,32,40)           110.2619         estimate D2E/DX2                !
 ! A105  A(34,32,40)           122.1527         estimate D2E/DX2                !
 ! A106  A(31,33,37)           104.6619         estimate D2E/DX2                !
 ! A107  A(31,33,50)           106.1108         estimate D2E/DX2                !
 ! A108  A(31,33,69)           113.643          estimate D2E/DX2                !
 ! A109  A(37,33,50)           104.7014         estimate D2E/DX2                !
 ! A110  A(37,33,69)           113.1374         estimate D2E/DX2                !
 ! A111  A(50,33,69)           113.7093         estimate D2E/DX2                !
 ! A112  A(32,34,35)           119.0334         estimate D2E/DX2                !
 ! A113  A(32,34,44)           119.791          estimate D2E/DX2                !
 ! A114  A(35,34,44)           108.1108         estimate D2E/DX2                !
 ! A115  A(29,35,34)           118.9277         estimate D2E/DX2                !
 ! A116  A(29,35,36)           119.9146         estimate D2E/DX2                !
 ! A117  A(34,35,36)           108.0636         estimate D2E/DX2                !
 ! A118  A(35,36,38)           117.8705         estimate D2E/DX2                !
 ! A119  A(35,36,43)           108.3933         estimate D2E/DX2                !
 ! A120  A(38,36,43)           119.7605         estimate D2E/DX2                !
 ! A121  A(33,37,40)           104.6818         estimate D2E/DX2                !
 ! A122  A(33,37,46)           104.4633         estimate D2E/DX2                !
 ! A123  A(33,37,70)           112.5355         estimate D2E/DX2                !
 ! A124  A(40,37,46)           113.6721         estimate D2E/DX2                !
 ! A125  A(40,37,70)           110.6072         estimate D2E/DX2                !
 ! A126  A(46,37,70)           110.6392         estimate D2E/DX2                !
 ! A127  A(27,38,36)           121.9545         estimate D2E/DX2                !
 ! A128  A(27,38,39)           109.5189         estimate D2E/DX2                !
 ! A129  A(36,38,39)           119.2982         estimate D2E/DX2                !
 ! A130  A(4,39,38)            107.6882         estimate D2E/DX2                !
 ! A131  A(4,39,41)            120.7922         estimate D2E/DX2                !
 ! A132  A(38,39,41)           120.743          estimate D2E/DX2                !
 ! A133  A(18,40,32)           118.3377         estimate D2E/DX2                !
 ! A134  A(18,40,37)           130.3298         estimate D2E/DX2                !
 ! A135  A(32,40,37)           108.4749         estimate D2E/DX2                !
 ! A136  A(1,41,39)            119.6494         estimate D2E/DX2                !
 ! A137  A(1,41,42)            107.969          estimate D2E/DX2                !
 ! A138  A(39,41,42)           119.1429         estimate D2E/DX2                !
 ! A139  A(41,42,43)           120.0688         estimate D2E/DX2                !
 ! A140  A(41,42,66)           107.881          estimate D2E/DX2                !
 ! A141  A(43,42,66)           119.9548         estimate D2E/DX2                !
 ! A142  A(36,43,42)           119.9756         estimate D2E/DX2                !
 ! A143  A(36,43,44)           106.615          estimate D2E/DX2                !
 ! A144  A(42,43,44)           119.9866         estimate D2E/DX2                !
 ! A145  A(34,44,43)           108.3805         estimate D2E/DX2                !
 ! A146  A(34,44,47)           117.8487         estimate D2E/DX2                !
 ! A147  A(43,44,47)           119.836          estimate D2E/DX2                !
 ! A148  A(14,45,20)           106.2808         estimate D2E/DX2                !
 ! A149  A(14,45,46)           118.5655         estimate D2E/DX2                !
 ! A150  A(20,45,46)           129.615          estimate D2E/DX2                !
 ! A151  A(37,46,45)           130.2301         estimate D2E/DX2                !
 ! A152  A(37,46,48)           108.5447         estimate D2E/DX2                !
 ! A153  A(45,46,48)           118.3974         estimate D2E/DX2                !
 ! A154  A(18,47,44)           122.1784         estimate D2E/DX2                !
 ! A155  A(18,47,49)           109.5983         estimate D2E/DX2                !
 ! A156  A(44,47,49)           119.2232         estimate D2E/DX2                !
 ! A157  A(17,48,46)           122.3777         estimate D2E/DX2                !
 ! A158  A(17,48,50)           118.9871         estimate D2E/DX2                !
 ! A159  A(46,48,50)           110.5637         estimate D2E/DX2                !
 ! A160  A(47,49,51)           107.6819         estimate D2E/DX2                !
 ! A161  A(47,49,66)           120.7662         estimate D2E/DX2                !
 ! A162  A(51,49,66)           120.829          estimate D2E/DX2                !
 ! A163  A(21,50,33)           124.3628         estimate D2E/DX2                !
 ! A164  A(21,50,48)           118.5891         estimate D2E/DX2                !
 ! A165  A(33,50,48)           109.3024         estimate D2E/DX2                !
 ! A166  A(19,51,49)           109.0393         estimate D2E/DX2                !
 ! A167  A(19,51,52)           122.7471         estimate D2E/DX2                !
 ! A168  A(49,51,52)           118.7489         estimate D2E/DX2                !
 ! A169  A(51,52,53)           118.8199         estimate D2E/DX2                !
 ! A170  A(51,52,64)           120.6422         estimate D2E/DX2                !
 ! A171  A(53,52,64)           108.0837         estimate D2E/DX2                !
 ! A172  A(52,53,54)           118.823          estimate D2E/DX2                !
 ! A173  A(52,53,62)           108.3764         estimate D2E/DX2                !
 ! A174  A(54,53,62)           120.4596         estimate D2E/DX2                !
 ! A175  A(20,54,53)           122.8213         estimate D2E/DX2                !
 ! A176  A(20,54,55)           108.9838         estimate D2E/DX2                !
 ! A177  A(53,54,55)           118.6851         estimate D2E/DX2                !
 ! A178  A(14,55,54)           107.7529         estimate D2E/DX2                !
 ! A179  A(14,55,60)           119.8404         estimate D2E/DX2                !
 ! A180  A(54,55,60)           121.3401         estimate D2E/DX2                !
 ! A181  A(17,56,22)           117.3226         estimate D2E/DX2                !
 ! A182  A(17,56,57)           110.2334         estimate D2E/DX2                !
 ! A183  A(22,56,57)           122.876          estimate D2E/DX2                !
 ! A184  A(15,57,56)           107.4948         estimate D2E/DX2                !
 ! A185  A(15,57,58)           106.3544         estimate D2E/DX2                !
 ! A186  A(15,57,72)           112.1487         estimate D2E/DX2                !
 ! A187  A(56,57,58)           102.0955         estimate D2E/DX2                !
 ! A188  A(56,57,72)           113.7844         estimate D2E/DX2                !
 ! A189  A(58,57,72)           114.166          estimate D2E/DX2                !
 ! A190  A(16,58,57)           108.7578         estimate D2E/DX2                !
 ! A191  A(16,58,59)           119.6736         estimate D2E/DX2                !
 ! A192  A(57,58,59)           123.1819         estimate D2E/DX2                !
 ! A193  A(11,59,58)           122.8251         estimate D2E/DX2                !
 ! A194  A(11,59,60)           110.0217         estimate D2E/DX2                !
 ! A195  A(58,59,60)           119.4046         estimate D2E/DX2                !
 ! A196  A(55,60,59)           120.7795         estimate D2E/DX2                !
 ! A197  A(55,60,61)           119.2755         estimate D2E/DX2                !
 ! A198  A(59,60,61)           109.0831         estimate D2E/DX2                !
 ! A199  A(9,61,60)            108.2671         estimate D2E/DX2                !
 ! A200  A(9,61,62)            121.2497         estimate D2E/DX2                !
 ! A201  A(60,61,62)           119.6931         estimate D2E/DX2                !
 ! A202  A(53,62,61)           120.0018         estimate D2E/DX2                !
 ! A203  A(53,62,63)           107.654          estimate D2E/DX2                !
 ! A204  A(61,62,63)           119.8577         estimate D2E/DX2                !
 ! A205  A(8,63,62)            118.8801         estimate D2E/DX2                !
 ! A206  A(8,63,64)            119.7392         estimate D2E/DX2                !
 ! A207  A(62,63,64)           108.2137         estimate D2E/DX2                !
 ! A208  A(52,64,63)           107.5841         estimate D2E/DX2                !
 ! A209  A(52,64,65)           119.7053         estimate D2E/DX2                !
 ! A210  A(63,64,65)           120.2901         estimate D2E/DX2                !
 ! A211  A(1,65,64)            119.924          estimate D2E/DX2                !
 ! A212  A(1,65,66)            107.8856         estimate D2E/DX2                !
 ! A213  A(64,65,66)           119.8733         estimate D2E/DX2                !
 ! A214  A(42,66,49)           119.184          estimate D2E/DX2                !
 ! A215  A(42,66,65)           108.0485         estimate D2E/DX2                !
 ! A216  A(49,66,65)           119.6625         estimate D2E/DX2                !
 ! D1    D(41,1,2,3)            -3.1414         estimate D2E/DX2                !
 ! D2    D(41,1,2,8)          -141.3586         estimate D2E/DX2                !
 ! D3    D(65,1,2,3)           134.4142         estimate D2E/DX2                !
 ! D4    D(65,1,2,8)            -3.8031         estimate D2E/DX2                !
 ! D5    D(2,1,41,39)            4.4311         estimate D2E/DX2                !
 ! D6    D(2,1,41,42)          145.1187         estimate D2E/DX2                !
 ! D7    D(65,1,41,39)        -137.5846         estimate D2E/DX2                !
 ! D8    D(65,1,41,42)           3.103          estimate D2E/DX2                !
 ! D9    D(2,1,65,64)            0.4467         estimate D2E/DX2                !
 ! D10   D(2,1,65,66)         -141.7043         estimate D2E/DX2                !
 ! D11   D(41,1,65,64)         142.5049         estimate D2E/DX2                !
 ! D12   D(41,1,65,66)           0.3539         estimate D2E/DX2                !
 ! D13   D(1,2,3,4)             -2.7893         estimate D2E/DX2                !
 ! D14   D(1,2,3,5)           -145.0532         estimate D2E/DX2                !
 ! D15   D(8,2,3,4)            140.0995         estimate D2E/DX2                !
 ! D16   D(8,2,3,5)             -2.1644         estimate D2E/DX2                !
 ! D17   D(1,2,8,6)            146.183          estimate D2E/DX2                !
 ! D18   D(1,2,8,63)             3.1416         estimate D2E/DX2                !
 ! D19   D(3,2,8,6)              3.5177         estimate D2E/DX2                !
 ! D20   D(3,2,8,63)          -139.5236         estimate D2E/DX2                !
 ! D21   D(2,3,4,26)          -134.5089         estimate D2E/DX2                !
 ! D22   D(2,3,4,39)             7.2981         estimate D2E/DX2                !
 ! D23   D(5,3,4,26)             3.6644         estimate D2E/DX2                !
 ! D24   D(5,3,4,39)           145.4714         estimate D2E/DX2                !
 ! D25   D(2,3,5,6)              0.0198         estimate D2E/DX2                !
 ! D26   D(2,3,5,13)           139.6174         estimate D2E/DX2                !
 ! D27   D(4,3,5,6)           -142.6807         estimate D2E/DX2                !
 ! D28   D(4,3,5,13)            -3.083          estimate D2E/DX2                !
 ! D29   D(3,4,26,25)           -1.4919         estimate D2E/DX2                !
 ! D30   D(3,4,26,27)          149.401          estimate D2E/DX2                !
 ! D31   D(39,4,26,25)        -146.6273         estimate D2E/DX2                !
 ! D32   D(39,4,26,27)           4.2656         estimate D2E/DX2                !
 ! D33   D(3,4,39,38)         -150.565          estimate D2E/DX2                !
 ! D34   D(3,4,39,41)           -6.0116         estimate D2E/DX2                !
 ! D35   D(26,4,39,38)          -4.083          estimate D2E/DX2                !
 ! D36   D(26,4,39,41)         140.4705         estimate D2E/DX2                !
 ! D37   D(3,5,6,8)              2.1313         estimate D2E/DX2                !
 ! D38   D(3,5,6,9)            145.5963         estimate D2E/DX2                !
 ! D39   D(13,5,6,8)          -137.1829         estimate D2E/DX2                !
 ! D40   D(13,5,6,9)             6.2822         estimate D2E/DX2                !
 ! D41   D(3,5,13,12)         -145.6837         estimate D2E/DX2                !
 ! D42   D(3,5,13,25)            0.4854         estimate D2E/DX2                !
 ! D43   D(6,5,13,12)          -10.3127         estimate D2E/DX2                !
 ! D44   D(6,5,13,25)          135.8564         estimate D2E/DX2                !
 ! D45   D(5,6,8,2)             -3.4652         estimate D2E/DX2                !
 ! D46   D(5,6,8,63)           139.3715         estimate D2E/DX2                !
 ! D47   D(9,6,8,2)           -146.7155         estimate D2E/DX2                !
 ! D48   D(9,6,8,63)            -3.8788         estimate D2E/DX2                !
 ! D49   D(5,6,9,11)            13.5339         estimate D2E/DX2                !
 ! D50   D(5,6,9,61)          -131.8636         estimate D2E/DX2                !
 ! D51   D(8,6,9,11)           151.8546         estimate D2E/DX2                !
 ! D52   D(8,6,9,61)             6.4572         estimate D2E/DX2                !
 ! D53   D(23,7,10,21)           4.6291         estimate D2E/DX2                !
 ! D54   D(23,7,10,30)         116.4733         estimate D2E/DX2                !
 ! D55   D(23,7,10,68)        -119.3649         estimate D2E/DX2                !
 ! D56   D(28,7,10,21)        -116.1897         estimate D2E/DX2                !
 ! D57   D(28,7,10,30)          -4.3455         estimate D2E/DX2                !
 ! D58   D(28,7,10,68)         119.8163         estimate D2E/DX2                !
 ! D59   D(67,7,10,21)         124.0964         estimate D2E/DX2                !
 ! D60   D(67,7,10,30)        -124.0594         estimate D2E/DX2                !
 ! D61   D(67,7,10,68)           0.1024         estimate D2E/DX2                !
 ! D62   D(10,7,23,22)           6.094          estimate D2E/DX2                !
 ! D63   D(10,7,23,24)        -150.7952         estimate D2E/DX2                !
 ! D64   D(28,7,23,22)         119.9672         estimate D2E/DX2                !
 ! D65   D(28,7,23,24)         -36.922          estimate D2E/DX2                !
 ! D66   D(67,7,23,22)        -114.8946         estimate D2E/DX2                !
 ! D67   D(67,7,23,24)          88.2163         estimate D2E/DX2                !
 ! D68   D(10,7,28,27)         154.7062         estimate D2E/DX2                !
 ! D69   D(10,7,28,29)          -5.6666         estimate D2E/DX2                !
 ! D70   D(23,7,28,27)          40.9087         estimate D2E/DX2                !
 ! D71   D(23,7,28,29)        -119.4641         estimate D2E/DX2                !
 ! D72   D(67,7,28,27)         -84.1572         estimate D2E/DX2                !
 ! D73   D(67,7,28,29)         115.4699         estimate D2E/DX2                !
 ! D74   D(2,8,63,62)          137.4251         estimate D2E/DX2                !
 ! D75   D(2,8,63,64)            0.855          estimate D2E/DX2                !
 ! D76   D(6,8,63,62)           -1.3613         estimate D2E/DX2                !
 ! D77   D(6,8,63,64)         -137.9314         estimate D2E/DX2                !
 ! D78   D(6,9,11,12)          -25.811          estimate D2E/DX2                !
 ! D79   D(6,9,11,59)         -137.6546         estimate D2E/DX2                !
 ! D80   D(6,9,11,71)          100.0687         estimate D2E/DX2                !
 ! D81   D(61,9,11,12)         122.0647         estimate D2E/DX2                !
 ! D82   D(61,9,11,59)          10.2211         estimate D2E/DX2                !
 ! D83   D(61,9,11,71)        -112.0556         estimate D2E/DX2                !
 ! D84   D(6,9,61,60)          140.181          estimate D2E/DX2                !
 ! D85   D(6,9,61,62)           -3.9604         estimate D2E/DX2                !
 ! D86   D(11,9,61,60)          -9.2779         estimate D2E/DX2                !
 ! D87   D(11,9,61,62)        -153.4193         estimate D2E/DX2                !
 ! D88   D(7,10,21,22)         -14.2607         estimate D2E/DX2                !
 ! D89   D(7,10,21,50)         137.1394         estimate D2E/DX2                !
 ! D90   D(30,10,21,22)       -124.9273         estimate D2E/DX2                !
 ! D91   D(30,10,21,50)         26.4729         estimate D2E/DX2                !
 ! D92   D(68,10,21,22)        109.5567         estimate D2E/DX2                !
 ! D93   D(68,10,21,50)        -99.0432         estimate D2E/DX2                !
 ! D94   D(7,10,30,29)          13.1081         estimate D2E/DX2                !
 ! D95   D(7,10,30,31)        -136.8748         estimate D2E/DX2                !
 ! D96   D(21,10,30,29)        123.7372         estimate D2E/DX2                !
 ! D97   D(21,10,30,31)        -26.2457         estimate D2E/DX2                !
 ! D98   D(68,10,30,29)       -110.8106         estimate D2E/DX2                !
 ! D99   D(68,10,30,31)         99.2065         estimate D2E/DX2                !
 ! D100  D(9,11,12,13)          21.536          estimate D2E/DX2                !
 ! D101  D(9,11,12,15)        -132.91           estimate D2E/DX2                !
 ! D102  D(59,11,12,13)        129.9912         estimate D2E/DX2                !
 ! D103  D(59,11,12,15)        -24.4548         estimate D2E/DX2                !
 ! D104  D(71,11,12,13)       -104.4403         estimate D2E/DX2                !
 ! D105  D(71,11,12,15)        101.1137         estimate D2E/DX2                !
 ! D106  D(9,11,59,58)         141.3114         estimate D2E/DX2                !
 ! D107  D(9,11,59,60)          -7.66           estimate D2E/DX2                !
 ! D108  D(12,11,59,58)         27.5377         estimate D2E/DX2                !
 ! D109  D(12,11,59,60)       -121.4338         estimate D2E/DX2                !
 ! D110  D(71,11,59,58)        -97.219          estimate D2E/DX2                !
 ! D111  D(71,11,59,60)        113.8095         estimate D2E/DX2                !
 ! D112  D(11,12,13,5)          -5.0766         estimate D2E/DX2                !
 ! D113  D(11,12,13,25)       -155.4894         estimate D2E/DX2                !
 ! D114  D(15,12,13,5)         153.003          estimate D2E/DX2                !
 ! D115  D(15,12,13,25)          2.5902         estimate D2E/DX2                !
 ! D116  D(11,12,15,24)        156.0911         estimate D2E/DX2                !
 ! D117  D(11,12,15,57)         -6.3518         estimate D2E/DX2                !
 ! D118  D(13,12,15,24)         -1.4291         estimate D2E/DX2                !
 ! D119  D(13,12,15,57)       -163.872          estimate D2E/DX2                !
 ! D120  D(5,13,25,24)        -152.1916         estimate D2E/DX2                !
 ! D121  D(5,13,25,26)           1.6624         estimate D2E/DX2                !
 ! D122  D(12,13,25,24)         -2.6672         estimate D2E/DX2                !
 ! D123  D(12,13,25,26)        151.1869         estimate D2E/DX2                !
 ! D124  D(45,14,16,17)         -4.3267         estimate D2E/DX2                !
 ! D125  D(45,14,16,58)        135.3055         estimate D2E/DX2                !
 ! D126  D(55,14,16,17)       -147.5358         estimate D2E/DX2                !
 ! D127  D(55,14,16,58)         -7.9036         estimate D2E/DX2                !
 ! D128  D(16,14,45,20)       -145.52           estimate D2E/DX2                !
 ! D129  D(16,14,45,46)         10.7337         estimate D2E/DX2                !
 ! D130  D(55,14,45,20)          0.3581         estimate D2E/DX2                !
 ! D131  D(55,14,45,46)        156.6118         estimate D2E/DX2                !
 ! D132  D(16,14,55,54)        149.5745         estimate D2E/DX2                !
 ! D133  D(16,14,55,60)          5.1594         estimate D2E/DX2                !
 ! D134  D(45,14,55,54)          2.0294         estimate D2E/DX2                !
 ! D135  D(45,14,55,60)       -142.3857         estimate D2E/DX2                !
 ! D136  D(12,15,24,23)       -160.026          estimate D2E/DX2                !
 ! D137  D(12,15,24,25)         -0.231          estimate D2E/DX2                !
 ! D138  D(57,15,24,23)          1.9094         estimate D2E/DX2                !
 ! D139  D(57,15,24,25)        161.7045         estimate D2E/DX2                !
 ! D140  D(12,15,57,56)        141.5754         estimate D2E/DX2                !
 ! D141  D(12,15,57,58)         32.8239         estimate D2E/DX2                !
 ! D142  D(12,15,57,72)        -92.6325         estimate D2E/DX2                !
 ! D143  D(24,15,57,56)        -18.3358         estimate D2E/DX2                !
 ! D144  D(24,15,57,58)       -127.0873         estimate D2E/DX2                !
 ! D145  D(24,15,57,72)        107.4563         estimate D2E/DX2                !
 ! D146  D(14,16,17,48)         -4.4667         estimate D2E/DX2                !
 ! D147  D(14,16,17,56)        140.5368         estimate D2E/DX2                !
 ! D148  D(58,16,17,48)       -148.7102         estimate D2E/DX2                !
 ! D149  D(58,16,17,56)         -3.7067         estimate D2E/DX2                !
 ! D150  D(14,16,58,57)       -144.2864         estimate D2E/DX2                !
 ! D151  D(14,16,58,59)          4.8889         estimate D2E/DX2                !
 ! D152  D(17,16,58,57)         -1.6719         estimate D2E/DX2                !
 ! D153  D(17,16,58,59)        147.5034         estimate D2E/DX2                !
 ! D154  D(16,17,48,46)          7.1764         estimate D2E/DX2                !
 ! D155  D(16,17,48,50)        152.9435         estimate D2E/DX2                !
 ! D156  D(56,17,48,46)       -133.5396         estimate D2E/DX2                !
 ! D157  D(56,17,48,50)         12.2275         estimate D2E/DX2                !
 ! D158  D(16,17,56,22)       -139.5823         estimate D2E/DX2                !
 ! D159  D(16,17,56,57)          7.7267         estimate D2E/DX2                !
 ! D160  D(48,17,56,22)          4.7118         estimate D2E/DX2                !
 ! D161  D(48,17,56,57)        152.0208         estimate D2E/DX2                !
 ! D162  D(40,18,19,20)          6.4629         estimate D2E/DX2                !
 ! D163  D(40,18,19,51)        155.3676         estimate D2E/DX2                !
 ! D164  D(47,18,19,20)       -146.6078         estimate D2E/DX2                !
 ! D165  D(47,18,19,51)          2.2969         estimate D2E/DX2                !
 ! D166  D(19,18,40,32)       -142.2078         estimate D2E/DX2                !
 ! D167  D(19,18,40,37)         16.2449         estimate D2E/DX2                !
 ! D168  D(47,18,40,32)          8.0551         estimate D2E/DX2                !
 ! D169  D(47,18,40,37)        166.5078         estimate D2E/DX2                !
 ! D170  D(19,18,47,44)        146.7096         estimate D2E/DX2                !
 ! D171  D(19,18,47,49)         -0.0435         estimate D2E/DX2                !
 ! D172  D(40,18,47,44)         -9.7487         estimate D2E/DX2                !
 ! D173  D(40,18,47,49)       -156.5018         estimate D2E/DX2                !
 ! D174  D(18,19,20,45)          0.0145         estimate D2E/DX2                !
 ! D175  D(18,19,20,54)        145.8386         estimate D2E/DX2                !
 ! D176  D(51,19,20,45)       -145.8973         estimate D2E/DX2                !
 ! D177  D(51,19,20,54)         -0.0732         estimate D2E/DX2                !
 ! D178  D(18,19,51,49)         -3.744          estimate D2E/DX2                !
 ! D179  D(18,19,51,52)       -149.5257         estimate D2E/DX2                !
 ! D180  D(20,19,51,49)        148.36           estimate D2E/DX2                !
 ! D181  D(20,19,51,52)          2.5783         estimate D2E/DX2                !
 ! D182  D(19,20,45,14)        146.3193         estimate D2E/DX2                !
 ! D183  D(19,20,45,46)         -6.3513         estimate D2E/DX2                !
 ! D184  D(54,20,45,14)         -2.5667         estimate D2E/DX2                !
 ! D185  D(54,20,45,46)       -155.2374         estimate D2E/DX2                !
 ! D186  D(19,20,54,53)         -2.5676         estimate D2E/DX2                !
 ! D187  D(19,20,54,55)       -148.2482         estimate D2E/DX2                !
 ! D188  D(45,20,54,53)        149.5536         estimate D2E/DX2                !
 ! D189  D(45,20,54,55)          3.873          estimate D2E/DX2                !
 ! D190  D(10,21,22,23)         18.7496         estimate D2E/DX2                !
 ! D191  D(10,21,22,56)        167.6136         estimate D2E/DX2                !
 ! D192  D(50,21,22,23)       -133.69           estimate D2E/DX2                !
 ! D193  D(50,21,22,56)         15.1741         estimate D2E/DX2                !
 ! D194  D(10,21,50,33)         -0.4644         estimate D2E/DX2                !
 ! D195  D(10,21,50,48)       -146.4269         estimate D2E/DX2                !
 ! D196  D(22,21,50,33)        148.125          estimate D2E/DX2                !
 ! D197  D(22,21,50,48)          2.1625         estimate D2E/DX2                !
 ! D198  D(21,22,23,7)         -15.4073         estimate D2E/DX2                !
 ! D199  D(21,22,23,24)        144.7618         estimate D2E/DX2                !
 ! D200  D(56,22,23,7)        -163.3605         estimate D2E/DX2                !
 ! D201  D(56,22,23,24)         -3.1914         estimate D2E/DX2                !
 ! D202  D(21,22,56,17)        -18.2976         estimate D2E/DX2                !
 ! D203  D(21,22,56,57)       -161.1826         estimate D2E/DX2                !
 ! D204  D(23,22,56,17)        126.2686         estimate D2E/DX2                !
 ! D205  D(23,22,56,57)        -16.6164         estimate D2E/DX2                !
 ! D206  D(7,23,24,15)         165.3616         estimate D2E/DX2                !
 ! D207  D(7,23,24,25)          11.01           estimate D2E/DX2                !
 ! D208  D(22,23,24,15)         10.0902         estimate D2E/DX2                !
 ! D209  D(22,23,24,25)       -144.2614         estimate D2E/DX2                !
 ! D210  D(15,24,25,13)          1.7765         estimate D2E/DX2                !
 ! D211  D(15,24,25,26)       -148.791          estimate D2E/DX2                !
 ! D212  D(23,24,25,13)        158.853          estimate D2E/DX2                !
 ! D213  D(23,24,25,26)          8.2854         estimate D2E/DX2                !
 ! D214  D(13,25,26,4)          -1.1437         estimate D2E/DX2                !
 ! D215  D(13,25,26,27)       -145.972          estimate D2E/DX2                !
 ! D216  D(24,25,26,4)         146.2077         estimate D2E/DX2                !
 ! D217  D(24,25,26,27)          1.3794         estimate D2E/DX2                !
 ! D218  D(4,26,27,28)        -155.1042         estimate D2E/DX2                !
 ! D219  D(4,26,27,38)          -2.7685         estimate D2E/DX2                !
 ! D220  D(25,26,27,28)         -7.3761         estimate D2E/DX2                !
 ! D221  D(25,26,27,38)        144.9596         estimate D2E/DX2                !
 ! D222  D(26,27,28,7)         -16.9346         estimate D2E/DX2                !
 ! D223  D(26,27,28,29)        141.8769         estimate D2E/DX2                !
 ! D224  D(38,27,28,7)        -166.2146         estimate D2E/DX2                !
 ! D225  D(38,27,28,29)         -7.4031         estimate D2E/DX2                !
 ! D226  D(26,27,38,36)       -146.1247         estimate D2E/DX2                !
 ! D227  D(26,27,38,39)          0.2872         estimate D2E/DX2                !
 ! D228  D(28,27,38,36)          9.4146         estimate D2E/DX2                !
 ! D229  D(28,27,38,39)        155.8265         estimate D2E/DX2                !
 ! D230  D(7,28,29,30)          14.4359         estimate D2E/DX2                !
 ! D231  D(7,28,29,35)         162.8794         estimate D2E/DX2                !
 ! D232  D(27,28,29,30)       -148.7233         estimate D2E/DX2                !
 ! D233  D(27,28,29,35)         -0.2799         estimate D2E/DX2                !
 ! D234  D(28,29,30,10)        -17.545          estimate D2E/DX2                !
 ! D235  D(28,29,30,31)        133.963          estimate D2E/DX2                !
 ! D236  D(35,29,30,10)       -166.8858         estimate D2E/DX2                !
 ! D237  D(35,29,30,31)        -15.3778         estimate D2E/DX2                !
 ! D238  D(28,29,35,34)       -130.1181         estimate D2E/DX2                !
 ! D239  D(28,29,35,36)          6.4933         estimate D2E/DX2                !
 ! D240  D(30,29,35,34)         15.5182         estimate D2E/DX2                !
 ! D241  D(30,29,35,36)        152.1295         estimate D2E/DX2                !
 ! D242  D(10,30,31,32)        146.7282         estimate D2E/DX2                !
 ! D243  D(10,30,31,33)         -0.2494         estimate D2E/DX2                !
 ! D244  D(29,30,31,32)         -0.3355         estimate D2E/DX2                !
 ! D245  D(29,30,31,33)       -147.3131         estimate D2E/DX2                !
 ! D246  D(30,31,32,34)         15.8076         estimate D2E/DX2                !
 ! D247  D(30,31,32,40)       -133.6414         estimate D2E/DX2                !
 ! D248  D(33,31,32,34)        167.2214         estimate D2E/DX2                !
 ! D249  D(33,31,32,40)         17.7724         estimate D2E/DX2                !
 ! D250  D(30,31,33,37)        136.6217         estimate D2E/DX2                !
 ! D251  D(30,31,33,50)         26.2189         estimate D2E/DX2                !
 ! D252  D(30,31,33,69)        -99.4663         estimate D2E/DX2                !
 ! D253  D(32,31,33,37)        -13.2743         estimate D2E/DX2                !
 ! D254  D(32,31,33,50)       -123.6771         estimate D2E/DX2                !
 ! D255  D(32,31,33,69)        110.6377         estimate D2E/DX2                !
 ! D256  D(31,32,34,35)        -15.4654         estimate D2E/DX2                !
 ! D257  D(31,32,34,44)       -152.1385         estimate D2E/DX2                !
 ! D258  D(40,32,34,35)        130.2549         estimate D2E/DX2                !
 ! D259  D(40,32,34,44)         -6.4181         estimate D2E/DX2                !
 ! D260  D(31,32,40,18)        148.2275         estimate D2E/DX2                !
 ! D261  D(31,32,40,37)        -14.6033         estimate D2E/DX2                !
 ! D262  D(34,32,40,18)         -0.2816         estimate D2E/DX2                !
 ! D263  D(34,32,40,37)       -163.1123         estimate D2E/DX2                !
 ! D264  D(31,33,37,40)          4.4102         estimate D2E/DX2                !
 ! D265  D(31,33,37,46)       -115.34           estimate D2E/DX2                !
 ! D266  D(31,33,37,70)        124.5846         estimate D2E/DX2                !
 ! D267  D(50,33,37,40)        115.8294         estimate D2E/DX2                !
 ! D268  D(50,33,37,46)         -3.9208         estimate D2E/DX2                !
 ! D269  D(50,33,37,70)       -123.9962         estimate D2E/DX2                !
 ! D270  D(69,33,37,40)       -119.8252         estimate D2E/DX2                !
 ! D271  D(69,33,37,46)        120.4246         estimate D2E/DX2                !
 ! D272  D(69,33,37,70)          0.3492         estimate D2E/DX2                !
 ! D273  D(31,33,50,21)        -25.9009         estimate D2E/DX2                !
 ! D274  D(31,33,50,48)        122.7156         estimate D2E/DX2                !
 ! D275  D(37,33,50,21)       -136.2758         estimate D2E/DX2                !
 ! D276  D(37,33,50,48)         12.3407         estimate D2E/DX2                !
 ! D277  D(69,33,50,21)         99.7438         estimate D2E/DX2                !
 ! D278  D(69,33,50,48)       -111.6397         estimate D2E/DX2                !
 ! D279  D(32,34,35,29)         -0.1405         estimate D2E/DX2                !
 ! D280  D(32,34,35,36)       -141.3636         estimate D2E/DX2                !
 ! D281  D(44,34,35,29)        141.0657         estimate D2E/DX2                !
 ! D282  D(44,34,35,36)         -0.1574         estimate D2E/DX2                !
 ! D283  D(32,34,44,43)        145.0548         estimate D2E/DX2                !
 ! D284  D(32,34,44,47)          4.8364         estimate D2E/DX2                !
 ! D285  D(35,34,44,43)          4.1941         estimate D2E/DX2                !
 ! D286  D(35,34,44,47)       -136.0243         estimate D2E/DX2                !
 ! D287  D(29,35,36,38)         -4.5724         estimate D2E/DX2                !
 ! D288  D(29,35,36,43)       -144.7097         estimate D2E/DX2                !
 ! D289  D(34,35,36,38)        136.1999         estimate D2E/DX2                !
 ! D290  D(34,35,36,43)         -3.9373         estimate D2E/DX2                !
 ! D291  D(35,36,38,27)         -3.2303         estimate D2E/DX2                !
 ! D292  D(35,36,38,39)       -146.5101         estimate D2E/DX2                !
 ! D293  D(43,36,38,27)        132.2936         estimate D2E/DX2                !
 ! D294  D(43,36,38,39)        -10.9862         estimate D2E/DX2                !
 ! D295  D(35,36,43,42)        147.1633         estimate D2E/DX2                !
 ! D296  D(35,36,43,44)          6.4284         estimate D2E/DX2                !
 ! D297  D(38,36,43,42)          7.908          estimate D2E/DX2                !
 ! D298  D(38,36,43,44)       -132.8269         estimate D2E/DX2                !
 ! D299  D(33,37,40,18)       -154.3517         estimate D2E/DX2                !
 ! D300  D(33,37,40,32)          5.7213         estimate D2E/DX2                !
 ! D301  D(46,37,40,18)        -40.9752         estimate D2E/DX2                !
 ! D302  D(46,37,40,32)        119.0978         estimate D2E/DX2                !
 ! D303  D(70,37,40,18)         84.1956         estimate D2E/DX2                !
 ! D304  D(70,37,40,32)       -115.7314         estimate D2E/DX2                !
 ! D305  D(33,37,46,45)        154.6488         estimate D2E/DX2                !
 ! D306  D(33,37,46,48)         -5.5449         estimate D2E/DX2                !
 ! D307  D(40,37,46,45)         41.1412         estimate D2E/DX2                !
 ! D308  D(40,37,46,48)       -119.0524         estimate D2E/DX2                !
 ! D309  D(70,37,46,45)        -84.0125         estimate D2E/DX2                !
 ! D310  D(70,37,46,48)        115.7939         estimate D2E/DX2                !
 ! D311  D(27,38,39,4)           2.3234         estimate D2E/DX2                !
 ! D312  D(27,38,39,41)       -142.2509         estimate D2E/DX2                !
 ! D313  D(36,38,39,4)         149.7597         estimate D2E/DX2                !
 ! D314  D(36,38,39,41)          5.1854         estimate D2E/DX2                !
 ! D315  D(4,39,41,1)            0.1677         estimate D2E/DX2                !
 ! D316  D(4,39,41,42)        -136.2026         estimate D2E/DX2                !
 ! D317  D(38,39,41,1)         140.1617         estimate D2E/DX2                !
 ! D318  D(38,39,41,42)          3.7913         estimate D2E/DX2                !
 ! D319  D(1,41,42,43)        -147.842          estimate D2E/DX2                !
 ! D320  D(1,41,42,66)          -5.3725         estimate D2E/DX2                !
 ! D321  D(39,41,42,43)         -6.9218         estimate D2E/DX2                !
 ! D322  D(39,41,42,66)        135.5478         estimate D2E/DX2                !
 ! D323  D(41,42,43,36)          1.155          estimate D2E/DX2                !
 ! D324  D(41,42,43,44)        136.7108         estimate D2E/DX2                !
 ! D325  D(66,42,43,36)       -136.8442         estimate D2E/DX2                !
 ! D326  D(66,42,43,44)         -1.2883         estimate D2E/DX2                !
 ! D327  D(41,42,66,49)       -135.496          estimate D2E/DX2                !
 ! D328  D(41,42,66,65)          5.5979         estimate D2E/DX2                !
 ! D329  D(43,42,66,49)          7.024          estimate D2E/DX2                !
 ! D330  D(43,42,66,65)        148.1179         estimate D2E/DX2                !
 ! D331  D(36,43,44,34)         -6.5243         estimate D2E/DX2                !
 ! D332  D(36,43,44,47)        132.7677         estimate D2E/DX2                !
 ! D333  D(42,43,44,34)       -147.2539         estimate D2E/DX2                !
 ! D334  D(42,43,44,47)         -7.962          estimate D2E/DX2                !
 ! D335  D(34,44,47,18)          3.1091         estimate D2E/DX2                !
 ! D336  D(34,44,47,49)        146.8236         estimate D2E/DX2                !
 ! D337  D(43,44,47,18)       -132.4637         estimate D2E/DX2                !
 ! D338  D(43,44,47,49)         11.2508         estimate D2E/DX2                !
 ! D339  D(14,45,46,37)       -166.4567         estimate D2E/DX2                !
 ! D340  D(14,45,46,48)         -7.876          estimate D2E/DX2                !
 ! D341  D(20,45,46,37)        -16.5741         estimate D2E/DX2                !
 ! D342  D(20,45,46,48)        142.0065         estimate D2E/DX2                !
 ! D343  D(37,46,48,17)        162.1689         estimate D2E/DX2                !
 ! D344  D(37,46,48,50)         13.8759         estimate D2E/DX2                !
 ! D345  D(45,46,48,17)         -0.7288         estimate D2E/DX2                !
 ! D346  D(45,46,48,50)       -149.0219         estimate D2E/DX2                !
 ! D347  D(18,47,49,51)         -2.2593         estimate D2E/DX2                !
 ! D348  D(18,47,49,66)        142.4047         estimate D2E/DX2                !
 ! D349  D(44,47,49,51)       -150.1385         estimate D2E/DX2                !
 ! D350  D(44,47,49,66)         -5.4745         estimate D2E/DX2                !
 ! D351  D(17,48,50,21)        -15.5156         estimate D2E/DX2                !
 ! D352  D(17,48,50,33)       -166.2032         estimate D2E/DX2                !
 ! D353  D(46,48,50,21)        133.9914         estimate D2E/DX2                !
 ! D354  D(46,48,50,33)        -16.6962         estimate D2E/DX2                !
 ! D355  D(47,49,51,19)          3.7282         estimate D2E/DX2                !
 ! D356  D(47,49,51,52)        151.0807         estimate D2E/DX2                !
 ! D357  D(66,49,51,19)       -140.9093         estimate D2E/DX2                !
 ! D358  D(66,49,51,52)          6.4433         estimate D2E/DX2                !
 ! D359  D(47,49,66,42)         -3.6818         estimate D2E/DX2                !
 ! D360  D(47,49,66,65)       -140.2732         estimate D2E/DX2                !
 ! D361  D(51,49,66,42)        136.3979         estimate D2E/DX2                !
 ! D362  D(51,49,66,65)         -0.1935         estimate D2E/DX2                !
 ! D363  D(19,51,52,53)         -2.4623         estimate D2E/DX2                !
 ! D364  D(19,51,52,64)        135.0757         estimate D2E/DX2                !
 ! D365  D(49,51,52,53)       -145.1384         estimate D2E/DX2                !
 ! D366  D(49,51,52,64)         -7.6003         estimate D2E/DX2                !
 ! D367  D(51,52,53,54)         -0.1831         estimate D2E/DX2                !
 ! D368  D(51,52,53,62)        142.2371         estimate D2E/DX2                !
 ! D369  D(64,52,53,54)       -142.5201         estimate D2E/DX2                !
 ! D370  D(64,52,53,62)         -0.0999         estimate D2E/DX2                !
 ! D371  D(51,52,64,63)       -139.6411         estimate D2E/DX2                !
 ! D372  D(51,52,64,65)          2.54           estimate D2E/DX2                !
 ! D373  D(53,52,64,63)          1.8806         estimate D2E/DX2                !
 ! D374  D(53,52,64,65)        144.0618         estimate D2E/DX2                !
 ! D375  D(52,53,54,20)          2.707          estimate D2E/DX2                !
 ! D376  D(52,53,54,55)        145.2817         estimate D2E/DX2                !
 ! D377  D(62,53,54,20)       -135.1153         estimate D2E/DX2                !
 ! D378  D(62,53,54,55)          7.4594         estimate D2E/DX2                !
 ! D379  D(52,53,62,61)       -143.6434         estimate D2E/DX2                !
 ! D380  D(52,53,62,63)         -1.7331         estimate D2E/DX2                !
 ! D381  D(54,53,62,61)         -1.9493         estimate D2E/DX2                !
 ! D382  D(54,53,62,63)        139.961          estimate D2E/DX2                !
 ! D383  D(20,54,55,14)         -3.6746         estimate D2E/DX2                !
 ! D384  D(20,54,55,60)        140.0985         estimate D2E/DX2                !
 ! D385  D(53,54,55,14)       -150.9851         estimate D2E/DX2                !
 ! D386  D(53,54,55,60)         -7.2119         estimate D2E/DX2                !
 ! D387  D(14,55,60,59)          0.4923         estimate D2E/DX2                !
 ! D388  D(14,55,60,61)        140.8624         estimate D2E/DX2                !
 ! D389  D(54,55,60,59)       -139.0511         estimate D2E/DX2                !
 ! D390  D(54,55,60,61)          1.319          estimate D2E/DX2                !
 ! D391  D(17,56,57,15)       -119.9211         estimate D2E/DX2                !
 ! D392  D(17,56,57,58)         -8.2372         estimate D2E/DX2                !
 ! D393  D(17,56,57,72)        115.2659         estimate D2E/DX2                !
 ! D394  D(22,56,57,15)         25.2342         estimate D2E/DX2                !
 ! D395  D(22,56,57,58)        136.918          estimate D2E/DX2                !
 ! D396  D(22,56,57,72)        -99.5789         estimate D2E/DX2                !
 ! D397  D(15,57,58,16)        118.4173         estimate D2E/DX2                !
 ! D398  D(15,57,58,59)        -29.4449         estimate D2E/DX2                !
 ! D399  D(56,57,58,16)          5.8793         estimate D2E/DX2                !
 ! D400  D(56,57,58,59)       -141.9829         estimate D2E/DX2                !
 ! D401  D(72,57,58,16)       -117.3661         estimate D2E/DX2                !
 ! D402  D(72,57,58,59)         94.7717         estimate D2E/DX2                !
 ! D403  D(16,58,59,11)       -145.2492         estimate D2E/DX2                !
 ! D404  D(16,58,59,60)          0.976          estimate D2E/DX2                !
 ! D405  D(57,58,59,11)         -0.6807         estimate D2E/DX2                !
 ! D406  D(57,58,59,60)        145.5446         estimate D2E/DX2                !
 ! D407  D(11,59,60,55)        146.5777         estimate D2E/DX2                !
 ! D408  D(11,59,60,61)          2.6436         estimate D2E/DX2                !
 ! D409  D(58,59,60,55)         -3.6065         estimate D2E/DX2                !
 ! D410  D(58,59,60,61)       -147.5406         estimate D2E/DX2                !
 ! D411  D(55,60,61,9)        -140.4766         estimate D2E/DX2                !
 ! D412  D(55,60,61,62)          4.3189         estimate D2E/DX2                !
 ! D413  D(59,60,61,9)           4.0834         estimate D2E/DX2                !
 ! D414  D(59,60,61,62)        148.8788         estimate D2E/DX2                !
 ! D415  D(9,61,62,53)         136.1393         estimate D2E/DX2                !
 ! D416  D(9,61,62,63)          -1.1879         estimate D2E/DX2                !
 ! D417  D(60,61,62,53)         -4.0428         estimate D2E/DX2                !
 ! D418  D(60,61,62,63)       -141.3699         estimate D2E/DX2                !
 ! D419  D(53,62,63,8)        -138.1708         estimate D2E/DX2                !
 ! D420  D(53,62,63,64)          2.8965         estimate D2E/DX2                !
 ! D421  D(61,62,63,8)           3.8044         estimate D2E/DX2                !
 ! D422  D(61,62,63,64)        144.8717         estimate D2E/DX2                !
 ! D423  D(8,63,64,52)         137.7148         estimate D2E/DX2                !
 ! D424  D(8,63,64,65)          -4.2031         estimate D2E/DX2                !
 ! D425  D(62,63,64,52)         -2.9602         estimate D2E/DX2                !
 ! D426  D(62,63,64,65)       -144.8781         estimate D2E/DX2                !
 ! D427  D(52,64,65,1)        -133.8423         estimate D2E/DX2                !
 ! D428  D(52,64,65,66)          3.8272         estimate D2E/DX2                !
 ! D429  D(63,64,65,1)           3.5536         estimate D2E/DX2                !
 ! D430  D(63,64,65,66)        141.2231         estimate D2E/DX2                !
 ! D431  D(1,65,66,42)          -3.6765         estimate D2E/DX2                !
 ! D432  D(1,65,66,49)         137.1988         estimate D2E/DX2                !
 ! D433  D(64,65,66,42)       -145.8501         estimate D2E/DX2                !
 ! D434  D(64,65,66,49)         -4.9748         estimate D2E/DX2                !
 --------------------------------------------------------------------------------
 Trust Radius=3.00D-01 FncErr=1.00D-07 GrdErr=1.00D-06 EigMax=2.50D+02 EigMin=1.00D-04
 Number of steps in this run=    432 maximum allowed number of steps=    432.
 GradGradGradGradGradGradGradGradGradGradGradGradGradGradGradGradGradGrad

 Leave Link  103 at Thu Jul 21 04:43:10 2022, MaxMem=  1342177280 cpu:               1.9 elap:               0.0
 (Enter /home/mkliu/g16/l202.exe)
 Stoichiometry    C66H6
 Framework group  C1[X(C66H6)]
 Deg. of freedom   210
[...]
 Alpha virt. eigenvalues --    1.00048   1.00500   1.01033   1.01427   1.01813
 Alpha virt. eigenvalues --    1.02234   1.02378   1.02838   1.03240   1.03428
 Alpha virt. eigenvalues --    1.03964   1.04293   1.05109   1.05128   1.05519
 Alpha virt. eigenvalues --    1.05818   1.05923   1.06384   1.06549   1.06973
 Alpha virt. eigenvalues --    1.07194   1.07781   1.08683   1.09000   1.09264
 Alpha virt. eigenvalues --    1.09570   1.10137   1.10488   1.10735   1.11442
 Alpha virt. eigenvalues --    1.11661   1.11836   1.12549   1.12919   1.13811
 Alpha virt. eigenvalues --    1.14456   1.14746   1.15646   1.15719   1.16192
 Alpha virt. eigenvalues --    1.16352   1.17067   1.17336   1.18057   1.18594
 Alpha virt. eigenvalues --    1.19509   1.19604   1.20322   1.20468   1.21209
 Alpha virt. eigenvalues --    1.21404   1.21811   1.21931   1.22828   1.23373
 Alpha virt. eigenvalues --    1.23566   1.24042   1.24313   1.24897   1.25357
 Alpha virt. eigenvalues --    1.26110   1.26541   1.26857   1.27025   1.27751
 Alpha virt. eigenvalues --    1.28189   1.28619   1.29731   1.30048   1.30507
 Alpha virt. eigenvalues --    1.30555   1.31335   1.31881   1.33010   1.33291
 Alpha virt. eigenvalues --    1.33419   1.33957   1.34318   1.34687   1.34923
 Alpha virt. eigenvalues --    1.35220   1.35367   1.35521   1.35973   1.36395
 Alpha virt. eigenvalues --    1.36798   1.37086   1.37360   1.37860   1.38121
 Alpha virt. eigenvalues --    1.38551   1.38963   1.39282   1.39600   1.39897
 Alpha virt. eigenvalues --    1.40637   1.40733   1.41223   1.41452   1.41609
 Alpha virt. eigenvalues --    1.42222   1.42572   1.42813   1.43378   1.43596
 Alpha virt. eigenvalues --    1.43748   1.44102   1.44453   1.44660   1.44991
 Alpha virt. eigenvalues --    1.45163   1.45647   1.45736   1.46065   1.46196
 Alpha virt. eigenvalues --    1.46369   1.46688   1.47056   1.47183   1.47286
 Alpha virt. eigenvalues --    1.47682   1.47893   1.48092   1.48373   1.48725
 Alpha virt. eigenvalues --    1.49065   1.49315   1.49333   1.49443   1.50029
 Alpha virt. eigenvalues --    1.50125   1.50409   1.50772   1.50990   1.51129
 Alpha virt. eigenvalues --    1.51645   1.51916   1.52093   1.52181   1.52442
 Alpha virt. eigenvalues --    1.52748   1.53054   1.53307   1.53536   1.53812
 Alpha virt. eigenvalues --    1.54152   1.54265   1.54929   1.55160   1.55540
 Alpha virt. eigenvalues --    1.55681   1.55821   1.55975   1.56477   1.57111
 Alpha virt. eigenvalues --    1.57596   1.57671   1.57847   1.58151   1.58907
 Alpha virt. eigenvalues --    1.59050   1.59580   1.59856   1.60032   1.60368
 Alpha virt. eigenvalues --    1.60731   1.61370   1.61592   1.62285   1.62798
 Alpha virt. eigenvalues --    1.63269   1.63676   1.64206   1.64520   1.64776
 Alpha virt. eigenvalues --    1.64914   1.65851   1.66086   1.66510   1.66733
 Alpha virt. eigenvalues --    1.67220   1.67481   1.68301   1.68342   1.68701
 Alpha virt. eigenvalues --    1.69153   1.69408   1.69691   1.69990   1.70256
 Alpha virt. eigenvalues --    1.71369   1.71572   1.71830   1.71935   1.72319
 Alpha virt. eigenvalues --    1.72667   1.73160   1.73514   1.73754   1.74668
 Alpha virt. eigenvalues --    1.75314   1.75491   1.75918   1.76289   1.76838
 Alpha virt. eigenvalues --    1.77270   1.77412   1.77862   1.78088   1.78765
 Alpha virt. eigenvalues --    1.78996   1.79372   1.79800   1.80307   1.80487
 Alpha virt. eigenvalues --    1.80797   1.81209   1.81451   1.81848   1.82502
 Alpha virt. eigenvalues --    1.82973   1.83464   1.83782   1.84249   1.84570
 Alpha virt. eigenvalues --    1.85198   1.85967   1.86550   1.86844   1.87723
 Alpha virt. eigenvalues --    1.88106   1.88144   1.88307   1.88716   1.89487
 Alpha virt. eigenvalues --    1.89951   1.90044   1.90477   1.91094   1.91251
 Alpha virt. eigenvalues --    1.91549   1.91937   1.92008   1.92500   1.93314
 Alpha virt. eigenvalues --    1.93394   1.93987   1.94402   1.95081   1.95785
 Alpha virt. eigenvalues --    1.96627   1.96749   1.97025   1.97601   1.98364
 Alpha virt. eigenvalues --    1.98668   1.98885   1.99388   1.99812   2.00211
 Alpha virt. eigenvalues --    2.00701   2.01510   2.01736   2.01989   2.02474
 Alpha virt. eigenvalues --    2.03494   2.03642   2.03930   2.04278   2.04788
 Alpha virt. eigenvalues --    2.04916   2.05363   2.05776   2.06307   2.07032
 Alpha virt. eigenvalues --    2.07286   2.07731   2.08187   2.08966   2.09062
 Alpha virt. eigenvalues --    2.09312   2.09639   2.10066   2.10698   2.11275
 Alpha virt. eigenvalues --    2.11346   2.11571   2.11626   2.12279   2.12913
 Alpha virt. eigenvalues --    2.13203   2.13626   2.14278   2.14394   2.15428
 Alpha virt. eigenvalues --    2.16037   2.16339   2.16879   2.17113   2.17993
 Alpha virt. eigenvalues --    2.18644   2.19520   2.20087   2.20415   2.20729
 Alpha virt. eigenvalues --    2.21653   2.22003   2.22511   2.23273   2.23453
 Alpha virt. eigenvalues --    2.23738   2.24041   2.25127   2.25756   2.25937
 Alpha virt. eigenvalues --    2.26366   2.26521   2.27598   2.28251   2.28463
 Alpha virt. eigenvalues --    2.29297   2.29817   2.31101   2.31320   2.31784
 Alpha virt. eigenvalues --    2.32331   2.32682   2.33731   2.33826   2.34436
 Alpha virt. eigenvalues --    2.35228   2.35440   2.36132   2.36391   2.36924
 Alpha virt. eigenvalues --    2.37221   2.38274   2.38681   2.39372   2.40069
 Alpha virt. eigenvalues --    2.40846   2.40927   2.41740   2.41846   2.42337
 Alpha virt. eigenvalues --    2.42486   2.43027   2.43119   2.43527   2.44163
 Alpha virt. eigenvalues --    2.44697   2.45092   2.45443   2.45741   2.46194
 Alpha virt. eigenvalues --    2.46331   2.46810   2.46977   2.48247   2.48349
 Alpha virt. eigenvalues --    2.49035   2.49587   2.50015   2.50246   2.51015
 Alpha virt. eigenvalues --    2.52178   2.53620   2.54457   2.54664   2.55103
 Alpha virt. eigenvalues --    2.55806   2.56367   2.57025   2.57393   2.57456
 Alpha virt. eigenvalues --    2.57681   2.58216   2.58439   2.58669   2.58915
 Alpha virt. eigenvalues --    2.59130   2.59650   2.59809   2.60486   2.60736
 Alpha virt. eigenvalues --    2.61434   2.61605   2.62529   2.63453   2.64435
 Alpha virt. eigenvalues --    2.64953   2.65327   2.66117   2.66702   2.67055
 Alpha virt. eigenvalues --    2.67268   2.67718   2.68176   2.69268   2.70156
 Alpha virt. eigenvalues --    2.70619   2.71274   2.71840   2.72780   2.73307
 Alpha virt. eigenvalues --    2.74173   2.74534   2.74664   2.75375   2.75833
 Alpha virt. eigenvalues --    2.76398   2.78080   2.78575   2.79671   2.80192
 Alpha virt. eigenvalues --    2.80530   2.81782   2.81881   2.82720   2.83375
 Alpha virt. eigenvalues --    2.84253   2.84543   2.85471   2.86166   2.86499
 Alpha virt. eigenvalues --    2.86702   2.87323   2.88767   2.89519   2.90189
 Alpha virt. eigenvalues --    2.90659   2.91409   2.92019   2.92546   2.93354
 Alpha virt. eigenvalues --    2.93642   2.94365   2.94953   2.95954   2.96220
 Alpha virt. eigenvalues --    2.96941   2.97310   2.97870   2.98216   2.98519
 Alpha virt. eigenvalues --    2.99195   2.99462   2.99959   3.00467   3.00586
 Alpha virt. eigenvalues --    3.00996   3.01042   3.01573   3.01960   3.02774
 Alpha virt. eigenvalues --    3.03197   3.03706   3.04155   3.04214   3.04792
 Alpha virt. eigenvalues --    3.05320   3.05525   3.05635   3.06067   3.06343
 Alpha virt. eigenvalues --    3.06784   3.06839   3.07295   3.07441   3.07775
 Alpha virt. eigenvalues --    3.08271   3.08568   3.09278   3.09526   3.10237
 Alpha virt. eigenvalues --    3.10338   3.10752   3.11008   3.11545   3.11811
 Alpha virt. eigenvalues --    3.12307   3.12568   3.13078   3.13529   3.13682
 Alpha virt. eigenvalues --    3.14360   3.14439   3.14628   3.15265   3.15341
 Alpha virt. eigenvalues --    3.15559   3.15815   3.16360   3.16767   3.17029
 Alpha virt. eigenvalues --    3.17114   3.17569   3.17954   3.18336   3.19173
 Alpha virt. eigenvalues --    3.19589   3.20486   3.20655   3.21181   3.21397
 Alpha virt. eigenvalues --    3.21913   3.22252   3.22597   3.23096   3.23499
 Alpha virt. eigenvalues --    3.26350   3.26813   3.28744   3.32615   3.33081
 Alpha virt. eigenvalues --    3.34266   3.35869   3.37086   3.39229   3.40390
 Alpha virt. eigenvalues --    3.41785   3.44444   3.45664   3.46588   3.46686
 Alpha virt. eigenvalues --    3.49315   3.51298   3.52176   3.52870   3.53450
 Alpha virt. eigenvalues --    3.53822   3.55715   3.56066   3.57282   3.57390
 Alpha virt. eigenvalues --    3.58050   3.59381   3.59904   3.60171   3.62508
 Alpha virt. eigenvalues --    3.62809   3.64128   3.64857   3.66010   3.67149
 Alpha virt. eigenvalues --    3.68697   3.69091   3.70178   3.71009   3.71678
 Alpha virt. eigenvalues --    3.72208   3.73552   3.74133   3.74706   3.75977
 Alpha virt. eigenvalues --    3.76883   3.79263   3.80362   3.81449   3.82395
 Alpha virt. eigenvalues --    3.83938   3.84326   3.85641   3.86789   3.87379
 Alpha virt. eigenvalues --    3.87790   3.88177   3.88473   3.89214   3.90404
 Alpha virt. eigenvalues --    3.91023   3.91963   3.92917   3.93455   3.95006
 Alpha virt. eigenvalues --    3.95814   3.98669   4.01602   4.03887   4.08548
 Alpha virt. eigenvalues --    4.10668   4.11858   4.16904   4.21154   4.24460
 Alpha virt. eigenvalues --    4.26122   4.28826   4.35477   4.36554   4.37758
 Alpha virt. eigenvalues --    4.38635   4.40185   4.40504   4.41779   4.42244
 Alpha virt. eigenvalues --    4.46169   4.50451   4.53350   4.55933   4.59864
 Alpha virt. eigenvalues --    4.62499   4.64403   4.64560   4.67916   4.69069
 Alpha virt. eigenvalues --    4.72034   4.74731   4.78174   4.82257   4.85732
 Alpha virt. eigenvalues --    4.90037   4.94072   4.96060   5.00734   5.02841
 Alpha virt. eigenvalues --    5.04480   5.05959  23.05300  23.22794  23.26695
 Alpha virt. eigenvalues --   23.28157  23.45106  23.46603  23.49189  23.53283
 Alpha virt. eigenvalues --   23.54565  23.64061  23.67053  23.67790  23.68697
 Alpha virt. eigenvalues --   23.72763  23.76461  23.79053  23.80274  23.81687
 Alpha virt. eigenvalues --   23.83973  23.84867  23.84963  23.85217  23.86158
 Alpha virt. eigenvalues --   23.87287  23.88933  23.90766  23.92999  23.94094
 Alpha virt. eigenvalues --   23.94488  23.95488  23.95894  23.97416  23.97578
 Alpha virt. eigenvalues --   23.98345  23.99032  23.99376  24.00178  24.00516
 Alpha virt. eigenvalues --   24.01151  24.01373  24.01779  24.03170  24.03560
 Alpha virt. eigenvalues --   24.03832  24.04019  24.04853  24.05718  24.08013
 Alpha virt. eigenvalues --   24.09102  24.09278  24.09942  24.10391  24.10852
 Alpha virt. eigenvalues --   24.11077  24.11500  24.12000  24.12666  24.12877
 Alpha virt. eigenvalues --   24.13510  24.14072  24.14785  24.16175  24.16229
 Alpha virt. eigenvalues --   24.16943  24.18187  24.18944
          Condensed to atoms (all electrons):
 Mulliken charges:
               1
     1  C   -0.006009
     2  C   -0.001357
     3  C   -0.004540
     4  C   -0.005713
     5  C   -0.029701
     6  C    0.018200
     7  C   -0.119634
     8  C   -0.003193
     9  C   -0.038327
    10  C   -0.171330
    11  C   -0.150606
    12  C   -0.026565
    13  C    0.023471
    14  C   -0.008685
    15  C   -0.044449
    16  C    0.016949
    17  C    0.023354
    18  C    0.015923
    19  C   -0.003223
    20  C   -0.002199
    21  C   -0.010137
    22  C    0.048840
    23  C   -0.046875
    24  C    0.039669
    25  C   -0.000974
    26  C    0.002016
    27  C    0.016921
    28  C   -0.025455
    29  C    0.033136
    30  C   -0.005015
    31  C   -0.005535
    32  C    0.034209
    33  C   -0.171720
    34  C   -0.009907
    35  C   -0.010724
    36  C   -0.005720
    37  C   -0.124081
    38  C   -0.002634
    39  C   -0.002445
    40  C   -0.028276
    41  C    0.001528
    42  C   -0.003763
    43  C   -0.011764
    44  C   -0.005894
    45  C    0.013230
    46  C   -0.022518
    47  C   -0.002054
    48  C    0.030781
    49  C   -0.002801
    50  C    0.001657
    51  C   -0.005002
    52  C   -0.006140
    53  C   -0.004827
    54  C   -0.006450
    55  C   -0.007641
    56  C   -0.040490
    57  C   -0.145644
    58  C   -0.012568
    59  C   -0.005626
    60  C    0.027786
    61  C    0.021132
    62  C   -0.011020
    63  C   -0.000734
    64  C   -0.006225
    65  C   -0.002986
    66  C    0.001133
    67  H    0.167565
    68  H    0.159954
    69  H    0.159767
    70  H    0.165638
    71  H    0.173192
    72  H    0.173127
 Sum of Mulliken charges =  -0.00000
 Mulliken charges with hydrogens summed into heavy atoms:
               1
     1  C   -0.006009
     2  C   -0.001357
     3  C   -0.004540
     4  C   -0.005713
     5  C   -0.029701
     6  C    0.018200
     7  C    0.047931
     8  C   -0.003193
     9  C   -0.038327
    10  C   -0.011376
    11  C    0.022586
    12  C   -0.026565
    13  C    0.023471
    14  C   -0.008685
    15  C   -0.044449
    16  C    0.016949
    17  C    0.023354
    18  C    0.015923
    19  C   -0.003223
    20  C   -0.002199
    21  C   -0.010137
    22  C    0.048840
    23  C   -0.046875
    24  C    0.039669
    25  C   -0.000974
    26  C    0.002016
    27  C    0.016921
    28  C   -0.025455
    29  C    0.033136
    30  C   -0.005015
    31  C   -0.005535
    32  C    0.034209
    33  C   -0.011953
    34  C   -0.009907
    35  C   -0.010724
    36  C   -0.005720
    37  C    0.041556
    38  C   -0.002634
    39  C   -0.002445
    40  C   -0.028276
    41  C    0.001528
    42  C   -0.003763
    43  C   -0.011764
    44  C   -0.005894
    45  C    0.013230
    46  C   -0.022518
    47  C   -0.002054
    48  C    0.030781
    49  C   -0.002801
    50  C    0.001657
    51  C   -0.005002
    52  C   -0.006140
    53  C   -0.004827
    54  C   -0.006450
    55  C   -0.007641
    56  C   -0.040490
    57  C    0.027484
    58  C   -0.012568
    59  C   -0.005626
    60  C    0.027786
    61  C    0.021132
    62  C   -0.011020
    63  C   -0.000734
    64  C   -0.006225
    65  C   -0.002986
    66  C    0.001133
 Electronic spatial extent (au):  <R**2>=          21294.8692
 Charge=             -0.0000 electrons
 Dipole moment (field-independent basis, Debye):
    X=              4.4258    Y=              2.9529    Z=             -0.7772  Tot=              5.3769
 Quadrupole moment (field-independent basis, Debye-Ang):
   XX=           -354.9553   YY=           -367.8593   ZZ=           -367.2140
   XY=             -0.9776   XZ=              1.0008   YZ=             -6.2458
 Traceless Quadrupole moment (field-independent basis, Debye-Ang):
   XX=              8.3876   YY=             -4.5164   ZZ=             -3.8712
   XY=             -0.9776   XZ=              1.0008   YZ=             -6.2458
 Octapole moment (field-independent basis, Debye-Ang**2):
  XXX=            131.4454  YYY=             85.6750  ZZZ=              0.1706  XYY=            -15.4685
  XXY=             21.3899  XXZ=             -5.0315  XZZ=             60.9296  YZZ=             10.5907
  YYZ=            -29.2662  XYZ=              1.5986
 Hexadecapole moment (field-independent basis, Debye-Ang**3):
 XXXX=         -12253.8874 YYYY=         -11097.0385 ZZZZ=          -8801.0093 XXXY=            -17.1664
 XXXZ=             23.5491 YYYX=            -39.3035 YYYZ=           -157.9211 ZZZX=             -1.6068
 ZZZY=            -27.0441 XXYY=          -4002.4864 XXZZ=          -3407.5890 YYZZ=          -3368.5169
 XXYZ=            -40.0886 YYXZ=             22.9774 ZZXY=              2.2422
 N-N= 9.882690726721D+03 E-N=-2.560824227574D+04  KE= 2.508678636846D+03
 No NMR shielding tensors so no spin-rotation constants.
 Leave Link  601 at Thu Jul 21 05:17:55 2022, MaxMem=  1342177280 cpu:              57.6 elap:               1.4
 (Enter /home/mkliu/g16/l9999.exe)
 1\1\GINC-NODE02\FOpt\RB3LYP\6-311G(d,p)\C66H6\MKLIU\21-Jul-2022\0\\#P 
 opt b3lyp/6-311G(d, p) empiricaldispersion=GD3\\force\\0,1\C,12.793071
 6406,12.0809999891,21.8963191851\C,12.8105564371,13.032068214,22.90760
 03725\C,12.6776811883,14.4428894492,22.583207705\C,12.5898160137,14.84
 91396798,21.2466688705\C,13.4775556015,15.1898925242,23.4946696349\C,1
 4.1348099891,14.2415810549,24.4233211987\C,15.6241159269,17.3530872587
 ,18.7481484272\C,13.7484216892,12.9150733883,24.0091016652\C,15.403105
 6398,14.4870309109,24.8995997936\C,16.925175828,16.979838414,17.912051
 4458\C,16.088729781,15.855392914,24.7613250787\C,15.4939456223,16.6022
 405557,23.574233391\C,14.1931167258,16.2693185918,23.015058256\C,19.21
 60022851,14.0295966738,22.5965840166\C,16.229882487,17.2306296077,22.6
 238711977\C,19.1531613363,15.4213762083,22.5915999778\C,19.221327072,1
 6.0971708477,21.333019456\C,17.4525943112,11.5770301419,19.2973388865\
 C,17.7145756717,11.2686528277,20.7338430156\C,18.4987626257,11.9981274
 856,21.6282476517\C,18.0243174918,16.8696521954,18.9445390488\C,17.603
 1381694,17.4297381006,20.1788895369\C,16.1342760007,17.5217295836,20.1
 831902857\C,15.4706296292,17.3303219837,21.3631045214\C,14.1631848611,
 16.6766267064,21.6217068804\C,13.3530587373,15.9732848326,20.732407032
 7\C,13.6338427978,15.6975817456,19.2955355463\C,14.6723861972,16.17055
 41165,18.5113665089\C,15.268581595,15.2792916026,17.5448716409\C,16.64
 77142581,15.597082953,17.368720117\C,17.5816004404,14.5848762085,17.36
 24297589\C,17.155769864,13.2348748294,17.5401235863\C,18.9863024885,14
 .7497509144,17.8930496342\C,15.8102215482,12.9064203172,17.3943199332\
 C,14.8335264132,13.962917291,17.3950471184\C,13.6865070625,13.50633620
 32,18.1114231395\C,19.2591993591,13.4181334553,18.7273232246\C,13.0848
 176314,14.3746763143,19.018904734\C,12.481346653,13.8506744659,20.2147
 506246\C,18.0029703247,12.5681526532,18.5020753885\C,12.5787585194,12.
 4894289841,20.5229609397\C,13.3705816644,11.62880831,19.6686761437\C,1
 3.9030000908,12.12006956,18.487405723\C,15.2677440056,11.7987151104,18
 .1137605508\C,19.259498027,13.2491958348,21.3600657412\C,19.4545044303
 ,13.913101676,20.1640639391\C,16.0890629064,11.1339558006,19.022167880
 8\C,19.4446372748,15.3561057453,20.1612090568\C,15.5202838482,10.57126
 00613,20.2140044865\C,18.9623447024,15.8502409336,18.9295181124\C,16.5
 224600293,10.5992228807,21.246614569\C,16.1198397582,10.6995089586,22.
 5784624916\C,16.9237157056,11.4469586315,23.4927019348\C,18.0864808386
 ,12.0521398371,23.0304699704\C,18.4874865605,13.318613245,23.587422806
 6\C,18.3242265869,17.1841206993,21.336298012\C,17.7320305431,17.364367
 4258,22.7199589772\C,18.2632134298,16.1284263118,23.4644536396\C,17.51
 97758389,15.4414064132,24.3831300848\C,17.6504242959,14.0169401865,24.
 4720122342\C,16.3787931599,13.4392764973,24.8472211019\C,16.0399009894
 ,12.1578091958,24.4062902418\C,14.6864249671,11.8734022647,24.01520791
 24\C,14.7229981232,10.9350621004,22.9084035961\C,13.7774476792,11.0102
 430927,21.8945007262\C,14.1689066002,10.7731891008,20.5229295355\H,15.
 1718276634,18.285697727,18.3986671461\H,17.137792313,17.7162201588,17.
 1324354388\H,19.7321399979,14.9054528902,17.1094916508\H,20.1509511331
 ,12.8924970371,18.3758563338\H,16.0354836414,16.4385676714,25.68841872
 86\H,18.0222205838,18.3163573549,23.1819093101\\Version=ES64L-G16RevA.
 03\State=1-A\HF=-2519.0367691\RMSD=6.617e-09\RMSF=7.231e-05\Dipole=1.2
 035397,1.6008177,-0.6811424\Quadrupole=-4.6220002,1.5059107,3.1160895,
 1.0715547,-5.7984517,-0.6537628\PG=C01 [X(C66H6)]\\@


 CHARLIE BROWN -- WHICH DO YOU THINK LASTS LONGER IN LIFE, THE GOOD THINGS 
                  OR THE BAD THINGS?
 LINUS --         GOOD THINGS LAST EIGHT SECONDS ..
                  BAD THINGS LAST THREE WEEKS
 CHARLIE BROWN -- WHAT ABOUT IN BETWEEN?
 SNOOPY --        IN BETWEEN YOU SHOULD TAKE A NAP ...
 Job cpu time:       1 days  3 hours 29 minutes 15.1 seconds.
 Elapsed time:       0 days  0 hours 34 minutes 26.2 seconds.
 File lengths (MBytes):  RWF=    920 Int=      0 D2E=      0 Chk=    114 Scr=      1
 Normal termination of Gaussian 16 at Thu Jul 21 05:17:57 2022.
