 Entering Gaussian System, Link 0=g16
 Input=dihept_6_addons_5.gjf
 Output=dihept_6_addons_5.log
 Initial command:
 /home/mkliu/g16/l1.exe "/data/scratch/Gau-115993.inp" -scrdir="/data/scratch/"
 Entering Link 1 = /home/mkliu/g16/l1.exe PID=    115994.
  
 Copyright (c) 1988,1990,1992,1993,1995,1998,2003,2009,2016,
            Gaussian, Inc.  All Rights Reserved.
  
 This is part of the Gaussian(R) 16 program.  It is based on
 the Gaussian(R) 09 system (copyright 2009, Gaussian, Inc.),
 the Gaussian(R) 03 system (copyright 2003, Gaussian, Inc.),
 the Gaussian(R) 98 system (copyright 1998, Gaussian, Inc.),
 the Gaussian(R) 94 system (copyright 1995, Gaussian, Inc.),
 the Gaussian 92(TM) system (copyright 1992, Gaussian, Inc.),
 the Gaussian 90(TM) system (copyright 1990, Gaussian, Inc.),
 the Gaussian 88(TM) system (copyright 1988, Gaussian, Inc.),
 the Gaussian 86(TM) system (copyright 1986, Carnegie Mellon
 University), and the Gaussian 82(TM) system (copyright 1983,
 Carnegie Mellon University). Gaussian is a federally registered
 trademark of Gaussian, Inc.
  
 This software contains proprietary and confidential information,
 including trade secrets, belonging to Gaussian, Inc.
  
 This software is provided under written license and may be
 used, copied, transmitted, or stored only in accord with that
 written license.
  
 The following legend is applicable only to US Government
 contracts under FAR:
  
                    RESTRICTED RIGHTS LEGEND
  
 Use, reproduction and disclosure by the US Government is
 subject to restrictions as set forth in subparagraphs (a)
 and (c) of the Commercial Computer Software - Restricted
 Rights clause in FAR 52.227-19.
  
 Gaussian, Inc.
 340 Quinnipiac St., Bldg. 40, Wallingford CT 06492
  
  
 ---------------------------------------------------------------
 Warning -- This program may not be used in any manner that
 competes with the business of Gaussian, Inc. or will provide
 assistance to any competitor of Gaussian, Inc.  The licensee
 of this program is prohibited from giving any competitor of
 Gaussian, Inc. access to this program.  By using this program,
 the user acknowledges that Gaussian, Inc. is engaged in the
 business of creating and licensing software in the field of
 computational chemistry and represents and warrants to the
 licensee that it is not a competitor of Gaussian, Inc. and that
 it will not use this program in any manner prohibited above.
 ---------------------------------------------------------------
  

 Cite this work as:
 Gaussian 16, Revision A.03,
 M. J. Frisch, G. W. Trucks, H. B. Schlegel, G. E. Scuseria, 
 M. A. Robb, J. R. Cheeseman, G. Scalmani, V. Barone, 
 G. A. Petersson, H. Nakatsuji, X. Li, M. Caricato, A. V. Marenich, 
 J. Bloino, B. G. Janesko, R. Gomperts, B. Mennucci, H. P. Hratchian, 
 J. V. Ortiz, A. F. Izmaylov, J. L. Sonnenberg, D. Williams-Young, 
 F. Ding, F. Lipparini, F. Egidi, J. Goings, B. Peng, A. Petrone, 
 T. Henderson, D. Ranasinghe, V. G. Zakrzewski, J. Gao, N. Rega, 
 G. Zheng, W. Liang, M. Hada, M. Ehara, K. Toyota, R. Fukuda, 
 J. Hasegawa, M. Ishida, T. Nakajima, Y. Honda, O. Kitao, H. Nakai, 
 T. Vreven, K. Throssell, J. A. Montgomery, Jr., J. E. Peralta, 
 F. Ogliaro, M. J. Bearpark, J. J. Heyd, E. N. Brothers, K. N. Kudin, 
 V. N. Staroverov, T. A. Keith, R. Kobayashi, J. Normand, 
 K. Raghavachari, A. P. Rendell, J. C. Burant, S. S. Iyengar, 
 J. Tomasi, M. Cossi, J. M. Millam, M. Klene, C. Adamo, R. Cammi, 
 J. W. Ochterski, R. L. Martin, K. Morokuma, O. Farkas, 
 J. B. Foresman, and D. J. Fox, Gaussian, Inc., Wallingford CT, 2016.
 
 ******************************************
 Gaussian 16:  ES64L-G16RevA.03 25-Dec-2016
                20-Jul-2022 
 ******************************************
 %mem=10GB
 %chk=dihept_6_addons_5.chk
 %nprocshared=48
 Will use up to   48 processors via shared memory.
 -------------------------------------------------
 #P opt b3lyp/6-311G(d, p) empiricaldispersion=GD3
 -------------------------------------------------
 1/18=20,19=15,26=3,38=1/1,3;
 2/9=110,12=2,17=6,18=5,40=1/2;
 3/5=4,6=6,7=101,11=2,25=1,30=1,71=1,74=-5,124=31/1,2,3;
 4//1;
 5/5=2,38=5/2;
 6/7=2,8=2,9=2,10=2,28=1/1;
 7//1,2,3,16;
 1/18=20,19=15,26=3/3(2);
 2/9=110/2;
 99//99;
 2/9=110/2;
 3/5=4,6=6,7=101,11=2,25=1,30=1,71=1,74=-5,124=31/1,2,3;
 4/5=5,16=3,69=1/1;
 5/5=2,38=5/2;
 7//1,2,3,16;
 1/18=20,19=15,26=3/3(-5);
 2/9=110/2;
 6/7=2,8=2,9=2,10=2,19=2,28=1/1;
 99/9=1/99;
 Leave Link    1 at Wed Jul 20 23:09:47 2022, MaxMem=  1342177280 cpu:               3.0 elap:               0.1
 (Enter /home/mkliu/g16/l101.exe)
 -----
 force
 -----
 Symbolic Z-matrix:
 Charge =  0 Multiplicity = 1
 C                     12.81457   12.08921   21.88558 
 C                     12.83575   13.03829   22.89447 
 C                     12.72036   14.43665   22.56927 
 C                     12.63974   14.84621   21.24235 
 C                     13.51029   15.18636   23.48208 
 C                     14.14376   14.24528   24.40625 
 C                     15.63207   17.33889   18.73865 
 C                     13.76071   12.92256   23.99203 
 C                     15.41024   14.49392   24.86503 
 C                     16.91584   16.97908   17.90395 
 C                     16.08678   15.84186   24.76349 
 C                     15.38825   16.83802   23.75598 
 C                     14.19368   16.28628   23.02679 
 C                     19.20899   14.02721   22.57895 
 C                     16.23248   17.27317   22.59169 
 C                     19.1576   15.41606   22.58065 
 C                     19.22671   16.07792   21.32702 
 C                     17.45187   11.60593   19.31863 
 C                     17.70605   11.29653   20.73662 
 C                     18.48881   12.01599   21.62509 
 C                     18.01001   16.84693   18.92403 
 C                     17.55249   17.3838   20.16012 
 C                     16.13529   17.47942   20.16392 
 C                     15.47791   17.31801   21.37249 
 C                     14.19733   16.65746   21.64327 
 C                     13.4019   15.95584   20.7406 
 C                     13.67713   15.68883   19.31893 
 C                     14.69558   16.16531   18.52403 
 C                     15.28266   15.27949   17.5646 
 C                     16.65607   15.59456   17.38396 
 C                     17.58661   14.58836   17.38594 
 C                     17.1661   13.24366   17.56865 
 C                     18.98698   14.74091   17.90519 
 C                     15.8249   12.91851   17.41757 
 C                     14.85369   13.96723   17.41488 
 C                     13.7097   13.51148   18.1269 
 C                     19.25126   13.43118   18.73422 
 C                     13.11996   14.38187   19.03356 
 C                     12.51323   13.8543   20.21564 
 C                     18.00532   12.58833   18.52672 
 C                     12.60487   12.49958   20.5213 
 C                     13.38983   11.64173   19.67327 
 C                     13.92266   12.13362   18.49549 
 C                     15.28054   11.81451   18.13045 
 C                     19.24158   13.25405   21.35452 
 C                     19.43786   13.9136   20.16129 
 C                     16.10233   11.15891   19.03681 
 C                     19.43137   15.34498   20.16538 
 C                     15.52849   10.59258   20.21703 
 C                     18.93697   15.84003   18.92747 
 C                     16.52495   10.62516   21.2437 
 C                     16.11722   10.7203   22.56837 
 C                     16.92049   11.46454   23.48041 
 C                     18.08153   12.06389   23.01548 
 C                     18.47704   13.32224   23.57095 
 C                     18.26263   17.13038   21.32819 
 C                     17.59802   17.13317   22.58181 
 C                     18.22239   16.11405   23.42392 
 C                     17.4773   15.42636   24.33986 
 C                     17.63827   14.01551   24.44706 
 C                     16.3773   13.44431   24.82137 
 C                     16.04162   12.16898   24.38268 
 C                     14.69285   11.8856   23.99325 
 C                     14.73084   10.95128   22.89657 
 C                     13.78844   11.02456   21.88351 
 C                     14.18241   10.78939   20.52099 
 H                     15.16174   18.26987   18.40458 
 H                     17.13432   17.70647   17.11956 
 H                     19.72783   14.90708   17.12052 
 H                     20.14052   12.8912   18.39241 
 H                     16.11237   16.32849   25.74336 
 H                     15.08891   17.71998   24.33348 
 
 ITRead=  0  0  0  0  0  0  0  0  0  0  0  0  0  0  0  0  0  0  0  0
 ITRead=  0  0  0  0  0  0  0  0  0  0  0  0  0  0  0  0  0  0  0  0
 ITRead=  0  0  0  0  0  0  0  0  0  0  0  0  0  0  0  0  0  0  0  0
 ITRead=  0  0  0  0  0  0  0  0  0  0  0  0
 MicOpt= -1 -1 -1 -1 -1 -1 -1 -1 -1 -1 -1 -1 -1 -1 -1 -1 -1 -1 -1 -1
 MicOpt= -1 -1 -1 -1 -1 -1 -1 -1 -1 -1 -1 -1 -1 -1 -1 -1 -1 -1 -1 -1
 MicOpt= -1 -1 -1 -1 -1 -1 -1 -1 -1 -1 -1 -1 -1 -1 -1 -1 -1 -1 -1 -1
 MicOpt= -1 -1 -1 -1 -1 -1 -1 -1 -1 -1 -1 -1
 NAtoms=     72 NQM=       72 NQMF=       0 NMMI=      0 NMMIF=      0
                NMic=       0 NMicF=      0.
                    Isotopes and Nuclear Properties:
 (Nuclear quadrupole moments (NQMom) in fm**2, nuclear magnetic moments (NMagM)
  in nuclear magnetons)

  Atom         1           2           3           4           5           6           7           8           9          10
 IAtWgt=          12          12          12          12          12          12          12          12          12          12
 AtmWgt=  12.0000000  12.0000000  12.0000000  12.0000000  12.0000000  12.0000000  12.0000000  12.0000000  12.0000000  12.0000000
 NucSpn=           0           0           0           0           0           0           0           0           0           0
 AtZEff=  -0.0000000  -0.0000000  -0.0000000  -0.0000000  -0.0000000  -0.0000000  -0.0000000  -0.0000000  -0.0000000  -0.0000000
 NQMom=    0.0000000   0.0000000   0.0000000   0.0000000   0.0000000   0.0000000   0.0000000   0.0000000   0.0000000   0.0000000
 NMagM=    0.0000000   0.0000000   0.0000000   0.0000000   0.0000000   0.0000000   0.0000000   0.0000000   0.0000000   0.0000000
 AtZNuc=   6.0000000   6.0000000   6.0000000   6.0000000   6.0000000   6.0000000   6.0000000   6.0000000   6.0000000   6.0000000

  Atom        11          12          13          14          15          16          17          18          19          20
 IAtWgt=          12          12          12          12          12          12          12          12          12          12
 AtmWgt=  12.0000000  12.0000000  12.0000000  12.0000000  12.0000000  12.0000000  12.0000000  12.0000000  12.0000000  12.0000000
 NucSpn=           0           0           0           0           0           0           0           0           0           0
 AtZEff=  -0.0000000  -0.0000000  -0.0000000  -0.0000000  -0.0000000  -0.0000000  -0.0000000  -0.0000000  -0.0000000  -0.0000000
 NQMom=    0.0000000   0.0000000   0.0000000   0.0000000   0.0000000   0.0000000   0.0000000   0.0000000   0.0000000   0.0000000
 NMagM=    0.0000000   0.0000000   0.0000000   0.0000000   0.0000000   0.0000000   0.0000000   0.0000000   0.0000000   0.0000000
 AtZNuc=   6.0000000   6.0000000   6.0000000   6.0000000   6.0000000   6.0000000   6.0000000   6.0000000   6.0000000   6.0000000

  Atom        21          22          23          24          25          26          27          28          29          30
 IAtWgt=          12          12          12          12          12          12          12          12          12          12
 AtmWgt=  12.0000000  12.0000000  12.0000000  12.0000000  12.0000000  12.0000000  12.0000000  12.0000000  12.0000000  12.0000000
 NucSpn=           0           0           0           0           0           0           0           0           0           0
 AtZEff=  -0.0000000  -0.0000000  -0.0000000  -0.0000000  -0.0000000  -0.0000000  -0.0000000  -0.0000000  -0.0000000  -0.0000000
 NQMom=    0.0000000   0.0000000   0.0000000   0.0000000   0.0000000   0.0000000   0.0000000   0.0000000   0.0000000   0.0000000
 NMagM=    0.0000000   0.0000000   0.0000000   0.0000000   0.0000000   0.0000000   0.0000000   0.0000000   0.0000000   0.0000000
 AtZNuc=   6.0000000   6.0000000   6.0000000   6.0000000   6.0000000   6.0000000   6.0000000   6.0000000   6.0000000   6.0000000

  Atom        31          32          33          34          35          36          37          38          39          40
 IAtWgt=          12          12          12          12          12          12          12          12          12          12
 AtmWgt=  12.0000000  12.0000000  12.0000000  12.0000000  12.0000000  12.0000000  12.0000000  12.0000000  12.0000000  12.0000000
 NucSpn=           0           0           0           0           0           0           0           0           0           0
 AtZEff=  -0.0000000  -0.0000000  -0.0000000  -0.0000000  -0.0000000  -0.0000000  -0.0000000  -0.0000000  -0.0000000  -0.0000000
 NQMom=    0.0000000   0.0000000   0.0000000   0.0000000   0.0000000   0.0000000   0.0000000   0.0000000   0.0000000   0.0000000
 NMagM=    0.0000000   0.0000000   0.0000000   0.0000000   0.0000000   0.0000000   0.0000000   0.0000000   0.0000000   0.0000000
 AtZNuc=   6.0000000   6.0000000   6.0000000   6.0000000   6.0000000   6.0000000   6.0000000   6.0000000   6.0000000   6.0000000

  Atom        41          42          43          44          45          46          47          48          49          50
 IAtWgt=          12          12          12          12          12          12          12          12          12          12
 AtmWgt=  12.0000000  12.0000000  12.0000000  12.0000000  12.0000000  12.0000000  12.0000000  12.0000000  12.0000000  12.0000000
 NucSpn=           0           0           0           0           0           0           0           0           0           0
 AtZEff=  -0.0000000  -0.0000000  -0.0000000  -0.0000000  -0.0000000  -0.0000000  -0.0000000  -0.0000000  -0.0000000  -0.0000000
 NQMom=    0.0000000   0.0000000   0.0000000   0.0000000   0.0000000   0.0000000   0.0000000   0.0000000   0.0000000   0.0000000
 NMagM=    0.0000000   0.0000000   0.0000000   0.0000000   0.0000000   0.0000000   0.0000000   0.0000000   0.0000000   0.0000000
 AtZNuc=   6.0000000   6.0000000   6.0000000   6.0000000   6.0000000   6.0000000   6.0000000   6.0000000   6.0000000   6.0000000

  Atom        51          52          53          54          55          56          57          58          59          60
 IAtWgt=          12          12          12          12          12          12          12          12          12          12
 AtmWgt=  12.0000000  12.0000000  12.0000000  12.0000000  12.0000000  12.0000000  12.0000000  12.0000000  12.0000000  12.0000000
 NucSpn=           0           0           0           0           0           0           0           0           0           0
 AtZEff=  -0.0000000  -0.0000000  -0.0000000  -0.0000000  -0.0000000  -0.0000000  -0.0000000  -0.0000000  -0.0000000  -0.0000000
 NQMom=    0.0000000   0.0000000   0.0000000   0.0000000   0.0000000   0.0000000   0.0000000   0.0000000   0.0000000   0.0000000
 NMagM=    0.0000000   0.0000000   0.0000000   0.0000000   0.0000000   0.0000000   0.0000000   0.0000000   0.0000000   0.0000000
 AtZNuc=   6.0000000   6.0000000   6.0000000   6.0000000   6.0000000   6.0000000   6.0000000   6.0000000   6.0000000   6.0000000

  Atom        61          62          63          64          65          66          67          68          69          70
 IAtWgt=          12          12          12          12          12          12           1           1           1           1
 AtmWgt=  12.0000000  12.0000000  12.0000000  12.0000000  12.0000000  12.0000000   1.0078250   1.0078250   1.0078250   1.0078250
 NucSpn=           0           0           0           0           0           0           1           1           1           1
 AtZEff=  -0.0000000  -0.0000000  -0.0000000  -0.0000000  -0.0000000  -0.0000000  -0.0000000  -0.0000000  -0.0000000  -0.0000000
 NQMom=    0.0000000   0.0000000   0.0000000   0.0000000   0.0000000   0.0000000   0.0000000   0.0000000   0.0000000   0.0000000
 NMagM=    0.0000000   0.0000000   0.0000000   0.0000000   0.0000000   0.0000000   2.7928460   2.7928460   2.7928460   2.7928460
 AtZNuc=   6.0000000   6.0000000   6.0000000   6.0000000   6.0000000   6.0000000   1.0000000   1.0000000   1.0000000   1.0000000

  Atom        71          72
 IAtWgt=           1           1
 AtmWgt=   1.0078250   1.0078250
 NucSpn=           1           1
 AtZEff=  -0.0000000  -0.0000000
 NQMom=    0.0000000   0.0000000
 NMagM=    2.7928460   2.7928460
 AtZNuc=   1.0000000   1.0000000
 Leave Link  101 at Wed Jul 20 23:09:47 2022, MaxMem=  1342177280 cpu:              28.3 elap:               0.6
 (Enter /home/mkliu/g16/l103.exe)

 GradGradGradGradGradGradGradGradGradGradGradGradGradGradGradGradGradGrad
 Berny optimization.
 Initialization pass.
                           ----------------------------
                           !    Initial Parameters    !
                           ! (Angstroms and Degrees)  !
 --------------------------                            --------------------------
 ! Name  Definition              Value          Derivative Info.                !
 --------------------------------------------------------------------------------
 ! R1    R(1,2)                  1.3853         estimate D2E/DX2                !
 ! R2    R(1,41)                 1.44           estimate D2E/DX2                !
 ! R3    R(1,65)                 1.4429         estimate D2E/DX2                !
 ! R4    R(2,3)                  1.4403         estimate D2E/DX2                !
 ! R5    R(2,8)                  1.44           estimate D2E/DX2                !
 ! R6    R(3,4)                  1.391          estimate D2E/DX2                !
 ! R7    R(3,5)                  1.421          estimate D2E/DX2                !
 ! R8    R(4,26)                 1.4366         estimate D2E/DX2                !
 ! R9    R(4,39)                 1.4332         estimate D2E/DX2                !
 ! R10   R(5,6)                  1.4632         estimate D2E/DX2                !
 ! R11   R(5,13)                 1.3726         estimate D2E/DX2                !
 ! R12   R(6,8)                  1.438          estimate D2E/DX2                !
 ! R13   R(6,9)                  1.3698         estimate D2E/DX2                !
 ! R14   R(7,10)                 1.573          estimate D2E/DX2                !
 ! R15   R(7,23)                 1.518          estimate D2E/DX2                !
 ! R16   R(7,28)                 1.5167         estimate D2E/DX2                !
 ! R17   R(7,67)                 1.0952         estimate D2E/DX2                !
 ! R18   R(8,63)                 1.3943         estimate D2E/DX2                !
 ! R19   R(9,11)                 1.5116         estimate D2E/DX2                !
 ! R20   R(9,61)                 1.4279         estimate D2E/DX2                !
 ! R21   R(10,21)                1.5017         estimate D2E/DX2                !
 ! R22   R(10,30)                1.5016         estimate D2E/DX2                !
 ! R23   R(10,68)                1.0918         estimate D2E/DX2                !
 ! R24   R(11,12)                1.5797         estimate D2E/DX2                !
 ! R25   R(11,59)                1.5118         estimate D2E/DX2                !
 ! R26   R(11,71)                1.0944         estimate D2E/DX2                !
 ! R27   R(12,13)                1.5044         estimate D2E/DX2                !
 ! R28   R(12,15)                1.5025         estimate D2E/DX2                !
 ! R29   R(12,72)                1.0959         estimate D2E/DX2                !
 ! R30   R(13,25)                1.4325         estimate D2E/DX2                !
 ! R31   R(14,16)                1.3898         estimate D2E/DX2                !
 ! R32   R(14,45)                1.4485         estimate D2E/DX2                !
 ! R33   R(14,55)                1.4201         estimate D2E/DX2                !
 ! R34   R(15,24)                1.4345         estimate D2E/DX2                !
 ! R35   R(15,57)                1.3727         estimate D2E/DX2                !
 ! R36   R(16,17)                1.4193         estimate D2E/DX2                !
 ! R37   R(16,58)                1.4398         estimate D2E/DX2                !
 ! R38   R(17,48)                1.3887         estimate D2E/DX2                !
 ! R39   R(17,56)                1.4273         estimate D2E/DX2                !
 ! R40   R(18,19)                1.4735         estimate D2E/DX2                !
 ! R41   R(18,40)                1.3779         estimate D2E/DX2                !
 ! R42   R(18,47)                1.4493         estimate D2E/DX2                !
 ! R43   R(19,20)                1.3855         estimate D2E/DX2                !
 ! R44   R(19,51)                1.4501         estimate D2E/DX2                !
 ! R45   R(20,45)                1.474          estimate D2E/DX2                !
 ! R46   R(20,54)                1.4496         estimate D2E/DX2                !
 ! R47   R(21,22)                1.4232         estimate D2E/DX2                !
 ! R48   R(21,50)                1.3686         estimate D2E/DX2                !
 ! R49   R(22,23)                1.4204         estimate D2E/DX2                !
 ! R50   R(22,56)                1.3903         estimate D2E/DX2                !
 ! R51   R(23,24)                1.3852         estimate D2E/DX2                !
 ! R52   R(24,25)                1.4661         estimate D2E/DX2                !
 ! R53   R(25,26)                1.3928         estimate D2E/DX2                !
 ! R54   R(26,27)                1.4725         estimate D2E/DX2                !
 ! R55   R(27,28)                1.377          estimate D2E/DX2                !
 ! R56   R(27,38)                1.4491         estimate D2E/DX2                !
 ! R57   R(28,29)                1.4317         estimate D2E/DX2                !
 ! R58   R(29,30)                1.4206         estimate D2E/DX2                !
 ! R59   R(29,35)                1.3887         estimate D2E/DX2                !
 ! R60   R(30,31)                1.3705         estimate D2E/DX2                !
 ! R61   R(31,32)                1.4207         estimate D2E/DX2                !
 ! R62   R(31,33)                1.5013         estimate D2E/DX2                !
 ! R63   R(32,34)                1.3883         estimate D2E/DX2                !
 ! R64   R(32,40)                1.4324         estimate D2E/DX2                !
 ! R65   R(33,37)                1.5724         estimate D2E/DX2                !
 ! R66   R(33,50)                1.5019         estimate D2E/DX2                !
 ! R67   R(33,69)                1.0919         estimate D2E/DX2                !
 ! R68   R(34,35)                1.4294         estimate D2E/DX2                !
 ! R69   R(34,44)                1.4225         estimate D2E/DX2                !
 ! R70   R(35,36)                1.4225         estimate D2E/DX2                !
 ! R71   R(36,38)                1.3883         estimate D2E/DX2                !
 ! R72   R(36,43)                1.4421         estimate D2E/DX2                !
 ! R73   R(37,40)                1.5185         estimate D2E/DX2                !
 ! R74   R(37,46)                1.5179         estimate D2E/DX2                !
 ! R75   R(37,70)                1.0951         estimate D2E/DX2                !
 ! R76   R(38,39)                1.4296         estimate D2E/DX2                !
 ! R77   R(39,41)                1.3918         estimate D2E/DX2                !
 ! R78   R(41,42)                1.4392         estimate D2E/DX2                !
 ! R79   R(42,43)                1.3831         estimate D2E/DX2                !
 ! R80   R(42,66)                1.4399         estimate D2E/DX2                !
 ! R81   R(43,44)                1.4419         estimate D2E/DX2                !
 ! R82   R(44,47)                1.388          estimate D2E/DX2                !
 ! R83   R(45,46)                1.3774         estimate D2E/DX2                !
 ! R84   R(46,48)                1.4314         estimate D2E/DX2                !
 ! R85   R(47,49)                1.4293         estimate D2E/DX2                !
 ! R86   R(48,50)                1.4219         estimate D2E/DX2                !
 ! R87   R(49,51)                1.4311         estimate D2E/DX2                !
 ! R88   R(49,66)                1.3939         estimate D2E/DX2                !
 ! R89   R(51,52)                1.3893         estimate D2E/DX2                !
 ! R90   R(52,53)                1.4251         estimate D2E/DX2                !
 ! R91   R(52,64)                1.4433         estimate D2E/DX2                !
 ! R92   R(53,54)                1.3869         estimate D2E/DX2                !
 ! R93   R(53,62)                1.4432         estimate D2E/DX2                !
 ! R94   R(54,55)                1.4312         estimate D2E/DX2                !
 ! R95   R(55,60)                1.397          estimate D2E/DX2                !
 ! R96   R(56,57)                1.4189         estimate D2E/DX2                !
 ! R97   R(57,58)                1.462          estimate D2E/DX2                !
 ! R98   R(58,59)                1.3664         estimate D2E/DX2                !
 ! R99   R(59,60)                1.424          estimate D2E/DX2                !
 ! R100  R(60,61)                1.434          estimate D2E/DX2                !
 ! R101  R(61,62)                1.3898         estimate D2E/DX2                !
 ! R102  R(62,63)                1.4322         estimate D2E/DX2                !
 ! R103  R(63,64)                1.4412         estimate D2E/DX2                !
 ! R104  R(64,65)                1.3856         estimate D2E/DX2                !
 ! R105  R(65,66)                1.4377         estimate D2E/DX2                !
 ! A1    A(2,1,41)             119.7996         estimate D2E/DX2                !
 ! A2    A(2,1,65)             119.7514         estimate D2E/DX2                !
 ! A3    A(41,1,65)            107.8907         estimate D2E/DX2                !
 ! A4    A(1,2,3)              119.9662         estimate D2E/DX2                !
 ! A5    A(1,2,8)              120.6541         estimate D2E/DX2                !
 ! A6    A(3,2,8)              107.5527         estimate D2E/DX2                !
 ! A7    A(2,3,4)              120.39           estimate D2E/DX2                !
 ! A8    A(2,3,5)              108.8233         estimate D2E/DX2                !
 ! A9    A(4,3,5)              119.3168         estimate D2E/DX2                !
 ! A10   A(3,4,26)             121.9939         estimate D2E/DX2                !
 ! A11   A(3,4,39)             118.9932         estimate D2E/DX2                !
 ! A12   A(26,4,39)            109.3414         estimate D2E/DX2                !
 ! A13   A(3,5,6)              107.8819         estimate D2E/DX2                !
 ! A14   A(3,5,13)             119.1084         estimate D2E/DX2                !
 ! A15   A(6,5,13)             120.6189         estimate D2E/DX2                !
 ! A16   A(5,6,8)              107.1179         estimate D2E/DX2                !
 ! A17   A(5,6,9)              119.6749         estimate D2E/DX2                !
 ! A18   A(8,6,9)              120.6457         estimate D2E/DX2                !
 ! A19   A(10,7,23)            104.4097         estimate D2E/DX2                !
 ! A20   A(10,7,28)            104.5865         estimate D2E/DX2                !
 ! A21   A(10,7,67)            112.5231         estimate D2E/DX2                !
 ! A22   A(23,7,28)            114.1531         estimate D2E/DX2                !
 ! A23   A(23,7,67)            110.4906         estimate D2E/DX2                !
 ! A24   A(28,7,67)            110.4516         estimate D2E/DX2                !
 ! A25   A(2,8,6)              108.4651         estimate D2E/DX2                !
 ! A26   A(2,8,63)             119.3308         estimate D2E/DX2                !
 ! A27   A(6,8,63)             120.3805         estimate D2E/DX2                !
 ! A28   A(6,9,11)             123.5856         estimate D2E/DX2                !
 ! A29   A(6,9,61)             118.851          estimate D2E/DX2                !
 ! A30   A(11,9,61)            110.5071         estimate D2E/DX2                !
 ! A31   A(7,10,21)            104.7329         estimate D2E/DX2                !
 ! A32   A(7,10,30)            104.6836         estimate D2E/DX2                !
 ! A33   A(7,10,68)            113.0881         estimate D2E/DX2                !
 ! A34   A(21,10,30)           106.2682         estimate D2E/DX2                !
 ! A35   A(21,10,68)           113.6297         estimate D2E/DX2                !
 ! A36   A(30,10,68)           113.5851         estimate D2E/DX2                !
 ! A37   A(9,11,12)            114.0331         estimate D2E/DX2                !
 ! A38   A(9,11,59)            100.6841         estimate D2E/DX2                !
 ! A39   A(9,11,71)            110.2945         estimate D2E/DX2                !
 ! A40   A(12,11,59)           113.6602         estimate D2E/DX2                !
 ! A41   A(12,11,71)           107.5177         estimate D2E/DX2                !
 ! A42   A(59,11,71)           110.5853         estimate D2E/DX2                !
 ! A43   A(11,12,13)           115.4041         estimate D2E/DX2                !
 ! A44   A(11,12,15)           115.3653         estimate D2E/DX2                !
 ! A45   A(11,12,72)           106.9899         estimate D2E/DX2                !
 ! A46   A(13,12,15)           100.182          estimate D2E/DX2                !
 ! A47   A(13,12,72)           109.4932         estimate D2E/DX2                !
 ! A48   A(15,12,72)           109.1924         estimate D2E/DX2                !
 ! A49   A(5,13,12)            121.9014         estimate D2E/DX2                !
 ! A50   A(5,13,25)            121.9559         estimate D2E/DX2                !
 ! A51   A(12,13,25)           111.7833         estimate D2E/DX2                !
 ! A52   A(16,14,45)           122.3629         estimate D2E/DX2                !
 ! A53   A(16,14,55)           118.4346         estimate D2E/DX2                !
 ! A54   A(45,14,55)           109.7003         estimate D2E/DX2                !
 ! A55   A(12,15,24)           111.844          estimate D2E/DX2                !
 ! A56   A(12,15,57)           122.3412         estimate D2E/DX2                !
 ! A57   A(24,15,57)           121.3541         estimate D2E/DX2                !
 ! A58   A(14,16,17)           117.5893         estimate D2E/DX2                !
 ! A59   A(14,16,58)           120.6107         estimate D2E/DX2                !
 ! A60   A(17,16,58)           108.8375         estimate D2E/DX2                !
 ! A61   A(16,17,48)           119.9934         estimate D2E/DX2                !
 ! A62   A(16,17,56)           108.0742         estimate D2E/DX2                !
 ! A63   A(48,17,56)           119.3025         estimate D2E/DX2                !
 ! A64   A(19,18,40)           129.3108         estimate D2E/DX2                !
 ! A65   A(19,18,47)           106.4392         estimate D2E/DX2                !
 ! A66   A(40,18,47)           118.8271         estimate D2E/DX2                !
 ! A67   A(18,19,20)           127.267          estimate D2E/DX2                !
 ! A68   A(18,19,51)           107.0516         estimate D2E/DX2                !
 ! A69   A(20,19,51)           118.4452         estimate D2E/DX2                !
 ! A70   A(19,20,45)           127.37           estimate D2E/DX2                !
 ! A71   A(19,20,54)           118.2601         estimate D2E/DX2                !
 ! A72   A(45,20,54)           106.9661         estimate D2E/DX2                !
 ! A73   A(10,21,22)           108.8169         estimate D2E/DX2                !
 ! A74   A(10,21,50)           124.0502         estimate D2E/DX2                !
 ! A75   A(22,21,50)           119.5435         estimate D2E/DX2                !
 ! A76   A(21,22,23)           110.3935         estimate D2E/DX2                !
 ! A77   A(21,22,56)           119.7847         estimate D2E/DX2                !
 ! A78   A(23,22,56)           121.3087         estimate D2E/DX2                !
 ! A79   A(7,23,22)            108.7841         estimate D2E/DX2                !
 ! A80   A(7,23,24)            130.6216         estimate D2E/DX2                !
 ! A81   A(22,23,24)           117.903          estimate D2E/DX2                !
 ! A82   A(15,24,23)           119.7051         estimate D2E/DX2                !
 ! A83   A(15,24,25)           106.7614         estimate D2E/DX2                !
 ! A84   A(23,24,25)           128.9135         estimate D2E/DX2                !
 ! A85   A(13,25,24)           107.2987         estimate D2E/DX2                !
 ! A86   A(13,25,26)           119.6028         estimate D2E/DX2                !
 ! A87   A(24,25,26)           127.3079         estimate D2E/DX2                !
 ! A88   A(4,26,25)            117.7571         estimate D2E/DX2                !
 ! A89   A(4,26,27)            107.236          estimate D2E/DX2                !
 ! A90   A(25,26,27)           127.6146         estimate D2E/DX2                !
 ! A91   A(26,27,28)           129.2609         estimate D2E/DX2                !
 ! A92   A(26,27,38)           106.3679         estimate D2E/DX2                !
 ! A93   A(28,27,38)           118.8661         estimate D2E/DX2                !
 ! A94   A(7,28,27)            129.996          estimate D2E/DX2                !
 ! A95   A(7,28,29)            108.6857         estimate D2E/DX2                !
 ! A96   A(27,28,29)           118.4266         estimate D2E/DX2                !
 ! A97   A(28,29,30)           110.1462         estimate D2E/DX2                !
 ! A98   A(28,29,35)           122.0214         estimate D2E/DX2                !
 ! A99   A(30,29,35)           119.6372         estimate D2E/DX2                !
 ! A100  A(10,30,29)           109.1298         estimate D2E/DX2                !
 ! A101  A(10,30,31)           123.9847         estimate D2E/DX2                !
 ! A102  A(29,30,31)           119.5639         estimate D2E/DX2                !
 ! A103  A(30,31,32)           119.611          estimate D2E/DX2                !
 ! A104  A(30,31,33)           124.0014         estimate D2E/DX2                !
 ! A105  A(32,31,33)           109.1343         estimate D2E/DX2                !
 ! A106  A(31,32,34)           119.579          estimate D2E/DX2                !
 ! A107  A(31,32,40)           110.2209         estimate D2E/DX2                !
 ! A108  A(34,32,40)           122.1178         estimate D2E/DX2                !
 ! A109  A(31,33,37)           104.7431         estimate D2E/DX2                !
 ! A110  A(31,33,50)           106.1842         estimate D2E/DX2                !
 ! A111  A(31,33,69)           113.5661         estimate D2E/DX2                !
 ! A112  A(37,33,50)           104.8504         estimate D2E/DX2                !
 ! A113  A(37,33,69)           113.0547         estimate D2E/DX2                !
 ! A114  A(50,33,69)           113.6021         estimate D2E/DX2                !
 ! A115  A(32,34,35)           118.9991         estimate D2E/DX2                !
 ! A116  A(32,34,44)           119.7981         estimate D2E/DX2                !
 ! A117  A(35,34,44)           108.0809         estimate D2E/DX2                !
 ! A118  A(29,35,34)           118.896          estimate D2E/DX2                !
 ! A119  A(29,35,36)           119.8166         estimate D2E/DX2                !
 ! A120  A(34,35,36)           108.0856         estimate D2E/DX2                !
 ! A121  A(35,36,38)           117.8823         estimate D2E/DX2                !
 ! A122  A(35,36,43)           108.379          estimate D2E/DX2                !
 ! A123  A(38,36,43)           119.6576         estimate D2E/DX2                !
 ! A124  A(33,37,40)           104.6178         estimate D2E/DX2                !
 ! A125  A(33,37,46)           104.5729         estimate D2E/DX2                !
 ! A126  A(33,37,70)           112.497          estimate D2E/DX2                !
 ! A127  A(40,37,46)           113.9378         estimate D2E/DX2                !
 ! A128  A(40,37,70)           110.484          estimate D2E/DX2                !
 ! A129  A(46,37,70)           110.5085         estimate D2E/DX2                !
 ! A130  A(27,38,36)           122.0533         estimate D2E/DX2                !
 ! A131  A(27,38,39)           109.4614         estimate D2E/DX2                !
 ! A132  A(36,38,39)           119.2693         estimate D2E/DX2                !
 ! A133  A(4,39,38)            107.4262         estimate D2E/DX2                !
 ! A134  A(4,39,41)            120.6988         estimate D2E/DX2                !
 ! A135  A(38,39,41)           120.8538         estimate D2E/DX2                !
 ! A136  A(18,40,32)           118.3784         estimate D2E/DX2                !
 ! A137  A(18,40,37)           130.2992         estimate D2E/DX2                !
 ! A138  A(32,40,37)           108.5538         estimate D2E/DX2                !
 ! A139  A(1,41,39)            119.6724         estimate D2E/DX2                !
 ! A140  A(1,41,42)            107.9971         estimate D2E/DX2                !
 ! A141  A(39,41,42)           119.1238         estimate D2E/DX2                !
 ! A142  A(41,42,43)           119.9932         estimate D2E/DX2                !
 ! A143  A(41,42,66)           107.8274         estimate D2E/DX2                !
 ! A144  A(43,42,66)           119.9869         estimate D2E/DX2                !
 ! A145  A(36,43,42)           120.0364         estimate D2E/DX2                !
 ! A146  A(36,43,44)           106.6078         estimate D2E/DX2                !
 ! A147  A(42,43,44)           119.9786         estimate D2E/DX2                !
 ! A148  A(34,44,43)           108.3917         estimate D2E/DX2                !
 ! A149  A(34,44,47)           117.8564         estimate D2E/DX2                !
 ! A150  A(43,44,47)           119.7882         estimate D2E/DX2                !
 ! A151  A(14,45,20)           106.3603         estimate D2E/DX2                !
 ! A152  A(14,45,46)           118.6785         estimate D2E/DX2                !
 ! A153  A(20,45,46)           129.3441         estimate D2E/DX2                !
 ! A154  A(37,46,45)           130.1449         estimate D2E/DX2                !
 ! A155  A(37,46,48)           108.6595         estimate D2E/DX2                !
 ! A156  A(45,46,48)           118.4049         estimate D2E/DX2                !
 ! A157  A(18,47,44)           122.1807         estimate D2E/DX2                !
 ! A158  A(18,47,49)           109.6023         estimate D2E/DX2                !
 ! A159  A(44,47,49)           119.2504         estimate D2E/DX2                !
 ! A160  A(17,48,46)           122.0622         estimate D2E/DX2                !
 ! A161  A(17,48,50)           119.5536         estimate D2E/DX2                !
 ! A162  A(46,48,50)           110.3183         estimate D2E/DX2                !
 ! A163  A(47,49,51)           107.6862         estimate D2E/DX2                !
 ! A164  A(47,49,66)           120.7845         estimate D2E/DX2                !
 ! A165  A(51,49,66)           120.8462         estimate D2E/DX2                !
 ! A166  A(21,50,33)           124.0044         estimate D2E/DX2                !
 ! A167  A(21,50,48)           119.5917         estimate D2E/DX2                !
 ! A168  A(33,50,48)           109.0389         estimate D2E/DX2                !
 ! A169  A(19,51,49)           109.0745         estimate D2E/DX2                !
 ! A170  A(19,51,52)           122.7353         estimate D2E/DX2                !
 ! A171  A(49,51,52)           118.767          estimate D2E/DX2                !
 ! A172  A(51,52,53)           118.7217         estimate D2E/DX2                !
 ! A173  A(51,52,64)           120.6439         estimate D2E/DX2                !
 ! A174  A(53,52,64)           108.1991         estimate D2E/DX2                !
 ! A175  A(52,53,54)           118.8827         estimate D2E/DX2                !
 ! A176  A(52,53,62)           108.1656         estimate D2E/DX2                !
 ! A177  A(54,53,62)           120.5624         estimate D2E/DX2                !
 ! A178  A(20,54,53)           122.8525         estimate D2E/DX2                !
 ! A179  A(20,54,55)           108.8843         estimate D2E/DX2                !
 ! A180  A(53,54,55)           118.7633         estimate D2E/DX2                !
 ! A181  A(14,55,54)           107.9252         estimate D2E/DX2                !
 ! A182  A(14,55,60)           120.0772         estimate D2E/DX2                !
 ! A183  A(54,55,60)           120.9157         estimate D2E/DX2                !
 ! A184  A(17,56,22)           118.6029         estimate D2E/DX2                !
 ! A185  A(17,56,57)           108.5761         estimate D2E/DX2                !
 ! A186  A(22,56,57)           120.1779         estimate D2E/DX2                !
 ! A187  A(15,57,56)           118.1967         estimate D2E/DX2                !
 ! A188  A(15,57,58)           119.456          estimate D2E/DX2                !
 ! A189  A(56,57,58)           107.9076         estimate D2E/DX2                !
 ! A190  A(16,58,57)           106.1392         estimate D2E/DX2                !
 ! A191  A(16,58,59)           120.187          estimate D2E/DX2                !
 ! A192  A(57,58,59)           120.2678         estimate D2E/DX2                !
 ! A193  A(11,59,58)           123.4395         estimate D2E/DX2                !
 ! A194  A(11,59,60)           110.8031         estimate D2E/DX2                !
 ! A195  A(58,59,60)           119.1732         estimate D2E/DX2                !
 ! A196  A(55,60,59)           120.817          estimate D2E/DX2                !
 ! A197  A(55,60,61)           119.6015         estimate D2E/DX2                !
 ! A198  A(59,60,61)           108.3539         estimate D2E/DX2                !
 ! A199  A(9,61,60)            108.1028         estimate D2E/DX2                !
 ! A200  A(9,61,62)            121.3731         estimate D2E/DX2                !
 ! A201  A(60,61,62)           119.7024         estimate D2E/DX2                !
 ! A202  A(53,62,61)           119.8786         estimate D2E/DX2                !
 ! A203  A(53,62,63)           107.875          estimate D2E/DX2                !
 ! A204  A(61,62,63)           119.6598         estimate D2E/DX2                !
 ! A205  A(8,63,62)            118.8602         estimate D2E/DX2                !
 ! A206  A(8,63,64)            119.9392         estimate D2E/DX2                !
 ! A207  A(62,63,64)           108.0807         estimate D2E/DX2                !
 ! A208  A(52,64,63)           107.5841         estimate D2E/DX2                !
 ! A209  A(52,64,65)           119.7046         estimate D2E/DX2                !
 ! A210  A(63,64,65)           120.2754         estimate D2E/DX2                !
 ! A211  A(1,65,64)            119.8046         estimate D2E/DX2                !
 ! A212  A(1,65,66)            107.8789         estimate D2E/DX2                !
 ! A213  A(64,65,66)           119.8611         estimate D2E/DX2                !
 ! A214  A(42,66,49)           119.1266         estimate D2E/DX2                !
 ! A215  A(42,66,65)           108.0769         estimate D2E/DX2                !
 ! A216  A(49,66,65)           119.6281         estimate D2E/DX2                !
 ! D1    D(41,1,2,3)            -3.3388         estimate D2E/DX2                !
 ! D2    D(41,1,2,8)          -141.6168         estimate D2E/DX2                !
 ! D3    D(65,1,2,3)           133.9772         estimate D2E/DX2                !
 ! D4    D(65,1,2,8)            -4.3008         estimate D2E/DX2                !
 ! D5    D(2,1,41,39)            4.2284         estimate D2E/DX2                !
 ! D6    D(2,1,41,42)          144.9482         estimate D2E/DX2                !
 ! D7    D(65,1,41,39)        -137.565          estimate D2E/DX2                !
 ! D8    D(65,1,41,42)           3.1548         estimate D2E/DX2                !
 ! D9    D(2,1,65,64)            0.5715         estimate D2E/DX2                !
 ! D10   D(2,1,65,66)         -141.399          estimate D2E/DX2                !
 ! D11   D(41,1,65,64)         142.3866         estimate D2E/DX2                !
 ! D12   D(41,1,65,66)           0.4161         estimate D2E/DX2                !
 ! D13   D(1,2,3,4)             -2.5108         estimate D2E/DX2                !
 ! D14   D(1,2,3,5)           -145.6043         estimate D2E/DX2                !
 ! D15   D(8,2,3,4)            140.5852         estimate D2E/DX2                !
 ! D16   D(8,2,3,5)             -2.5083         estimate D2E/DX2                !
 ! D17   D(1,2,8,6)            146.7703         estimate D2E/DX2                !
 ! D18   D(1,2,8,63)             3.715          estimate D2E/DX2                !
 ! D19   D(3,2,8,6)              3.978          estimate D2E/DX2                !
 ! D20   D(3,2,8,63)          -139.0773         estimate D2E/DX2                !
 ! D21   D(2,3,4,26)          -135.1009         estimate D2E/DX2                !
 ! D22   D(2,3,4,39)             7.3336         estimate D2E/DX2                !
 ! D23   D(5,3,4,26)             4.2153         estimate D2E/DX2                !
 ! D24   D(5,3,4,39)           146.6498         estimate D2E/DX2                !
 ! D25   D(2,3,5,6)              0.1035         estimate D2E/DX2                !
 ! D26   D(2,3,5,13)           142.4936         estimate D2E/DX2                !
 ! D27   D(4,3,5,6)           -143.4487         estimate D2E/DX2                !
 ! D28   D(4,3,5,13)            -1.0586         estimate D2E/DX2                !
 ! D29   D(3,4,26,25)           -2.5444         estimate D2E/DX2                !
 ! D30   D(3,4,26,27)          149.7583         estimate D2E/DX2                !
 ! D31   D(39,4,26,25)        -148.131          estimate D2E/DX2                !
 ! D32   D(39,4,26,27)           4.1717         estimate D2E/DX2                !
 ! D33   D(3,4,39,38)         -150.6837         estimate D2E/DX2                !
 ! D34   D(3,4,39,41)           -6.4426         estimate D2E/DX2                !
 ! D35   D(26,4,39,38)          -3.9129         estimate D2E/DX2                !
 ! D36   D(26,4,39,41)         140.3282         estimate D2E/DX2                !
 ! D37   D(3,5,6,8)              2.3387         estimate D2E/DX2                !
 ! D38   D(3,5,6,9)            144.464          estimate D2E/DX2                !
 ! D39   D(13,5,6,8)          -139.3751         estimate D2E/DX2                !
 ! D40   D(13,5,6,9)             2.7503         estimate D2E/DX2                !
 ! D41   D(3,5,13,12)         -158.3061         estimate D2E/DX2                !
 ! D42   D(3,5,13,25)           -3.6843         estimate D2E/DX2                !
 ! D43   D(6,5,13,12)          -20.7523         estimate D2E/DX2                !
 ! D44   D(6,5,13,25)          133.8694         estimate D2E/DX2                !
 ! D45   D(5,6,8,2)             -3.8948         estimate D2E/DX2                !
 ! D46   D(5,6,8,63)           138.7037         estimate D2E/DX2                !
 ! D47   D(9,6,8,2)           -145.5778         estimate D2E/DX2                !
 ! D48   D(9,6,8,63)            -2.9794         estimate D2E/DX2                !
 ! D49   D(5,6,9,11)            15.9171         estimate D2E/DX2                !
 ! D50   D(5,6,9,61)          -131.8564         estimate D2E/DX2                !
 ! D51   D(8,6,9,11)           152.9178         estimate D2E/DX2                !
 ! D52   D(8,6,9,61)             5.1443         estimate D2E/DX2                !
 ! D53   D(23,7,10,21)           3.9822         estimate D2E/DX2                !
 ! D54   D(23,7,10,30)         115.5957         estimate D2E/DX2                !
 ! D55   D(23,7,10,68)        -120.256          estimate D2E/DX2                !
 ! D56   D(28,7,10,21)        -116.243          estimate D2E/DX2                !
 ! D57   D(28,7,10,30)          -4.6295         estimate D2E/DX2                !
 ! D58   D(28,7,10,68)         119.5189         estimate D2E/DX2                !
 ! D59   D(67,7,10,21)         123.8378         estimate D2E/DX2                !
 ! D60   D(67,7,10,30)        -124.5487         estimate D2E/DX2                !
 ! D61   D(67,7,10,68)          -0.4004         estimate D2E/DX2                !
 ! D62   D(10,7,23,22)           6.4021         estimate D2E/DX2                !
 ! D63   D(10,7,23,24)        -154.1548         estimate D2E/DX2                !
 ! D64   D(28,7,23,22)         119.9919         estimate D2E/DX2                !
 ! D65   D(28,7,23,24)         -40.565          estimate D2E/DX2                !
 ! D66   D(67,7,23,22)        -114.8114         estimate D2E/DX2                !
 ! D67   D(67,7,23,24)          84.6317         estimate D2E/DX2                !
 ! D68   D(10,7,28,27)         154.4576         estimate D2E/DX2                !
 ! D69   D(10,7,28,29)          -5.5441         estimate D2E/DX2                !
 ! D70   D(23,7,28,27)          40.9726         estimate D2E/DX2                !
 ! D71   D(23,7,28,29)        -119.029          estimate D2E/DX2                !
 ! D72   D(67,7,28,27)         -84.2447         estimate D2E/DX2                !
 ! D73   D(67,7,28,29)         115.7537         estimate D2E/DX2                !
 ! D74   D(2,8,63,62)          137.1575         estimate D2E/DX2                !
 ! D75   D(2,8,63,64)            0.5762         estimate D2E/DX2                !
 ! D76   D(6,8,63,62)           -1.4783         estimate D2E/DX2                !
 ! D77   D(6,8,63,64)         -138.0596         estimate D2E/DX2                !
 ! D78   D(6,9,11,12)          -15.4654         estimate D2E/DX2                !
 ! D79   D(6,9,11,59)         -137.5577         estimate D2E/DX2                !
 ! D80   D(6,9,11,71)          105.618          estimate D2E/DX2                !
 ! D81   D(61,9,11,12)         134.622          estimate D2E/DX2                !
 ! D82   D(61,9,11,59)          12.5297         estimate D2E/DX2                !
 ! D83   D(61,9,11,71)        -104.2945         estimate D2E/DX2                !
 ! D84   D(6,9,61,60)          141.1063         estimate D2E/DX2                !
 ! D85   D(6,9,61,62)           -2.9798         estimate D2E/DX2                !
 ! D86   D(11,9,61,60)         -10.5799         estimate D2E/DX2                !
 ! D87   D(11,9,61,62)        -154.666          estimate D2E/DX2                !
 ! D88   D(7,10,21,22)         -13.1097         estimate D2E/DX2                !
 ! D89   D(7,10,21,50)         136.0947         estimate D2E/DX2                !
 ! D90   D(30,10,21,22)       -123.5827         estimate D2E/DX2                !
 ! D91   D(30,10,21,50)         25.6217         estimate D2E/DX2                !
 ! D92   D(68,10,21,22)        110.7825         estimate D2E/DX2                !
 ! D93   D(68,10,21,50)       -100.0131         estimate D2E/DX2                !
 ! D94   D(7,10,30,29)          13.4569         estimate D2E/DX2                !
 ! D95   D(7,10,30,31)        -136.2711         estimate D2E/DX2                !
 ! D96   D(21,10,30,29)        123.9646         estimate D2E/DX2                !
 ! D97   D(21,10,30,31)        -25.7634         estimate D2E/DX2                !
 ! D98   D(68,10,30,29)       -110.3735         estimate D2E/DX2                !
 ! D99   D(68,10,30,31)         99.8986         estimate D2E/DX2                !
 ! D100  D(9,11,12,13)          -1.7743         estimate D2E/DX2                !
 ! D101  D(9,11,12,15)        -117.989          estimate D2E/DX2                !
 ! D102  D(9,11,12,72)         120.3246         estimate D2E/DX2                !
 ! D103  D(59,11,12,13)        112.8709         estimate D2E/DX2                !
 ! D104  D(59,11,12,15)         -3.3438         estimate D2E/DX2                !
 ! D105  D(59,11,12,72)       -125.0303         estimate D2E/DX2                !
 ! D106  D(71,11,12,13)       -124.3889         estimate D2E/DX2                !
 ! D107  D(71,11,12,15)        119.3964         estimate D2E/DX2                !
 ! D108  D(71,11,12,72)         -2.2901         estimate D2E/DX2                !
 ! D109  D(9,11,59,58)         140.8288         estimate D2E/DX2                !
 ! D110  D(9,11,59,60)         -10.3081         estimate D2E/DX2                !
 ! D111  D(12,11,59,58)         18.4749         estimate D2E/DX2                !
 ! D112  D(12,11,59,60)       -132.6619         estimate D2E/DX2                !
 ! D113  D(71,11,59,58)       -102.5623         estimate D2E/DX2                !
 ! D114  D(71,11,59,60)        106.3009         estimate D2E/DX2                !
 ! D115  D(11,12,13,5)          19.3788         estimate D2E/DX2                !
 ! D116  D(11,12,13,25)       -137.5668         estimate D2E/DX2                !
 ! D117  D(15,12,13,5)         143.9293         estimate D2E/DX2                !
 ! D118  D(15,12,13,25)        -13.0163         estimate D2E/DX2                !
 ! D119  D(72,12,13,5)        -101.3695         estimate D2E/DX2                !
 ! D120  D(72,12,13,25)        101.6849         estimate D2E/DX2                !
 ! D121  D(11,12,15,24)        139.2082         estimate D2E/DX2                !
 ! D122  D(11,12,15,57)        -17.3289         estimate D2E/DX2                !
 ! D123  D(13,12,15,24)         14.631          estimate D2E/DX2                !
 ! D124  D(13,12,15,57)       -141.9061         estimate D2E/DX2                !
 ! D125  D(72,12,15,24)       -100.2986         estimate D2E/DX2                !
 ! D126  D(72,12,15,57)        103.1643         estimate D2E/DX2                !
 ! D127  D(5,13,25,24)        -149.7488         estimate D2E/DX2                !
 ! D128  D(5,13,25,26)           5.3528         estimate D2E/DX2                !
 ! D129  D(12,13,25,24)          7.1823         estimate D2E/DX2                !
 ! D130  D(12,13,25,26)        162.2839         estimate D2E/DX2                !
 ! D131  D(45,14,16,17)         -4.0784         estimate D2E/DX2                !
 ! D132  D(45,14,16,58)        133.0151         estimate D2E/DX2                !
 ! D133  D(55,14,16,17)       -146.921          estimate D2E/DX2                !
 ! D134  D(55,14,16,58)         -9.8274         estimate D2E/DX2                !
 ! D135  D(16,14,45,20)       -145.6929         estimate D2E/DX2                !
 ! D136  D(16,14,45,46)         10.3281         estimate D2E/DX2                !
 ! D137  D(55,14,45,20)         -0.037          estimate D2E/DX2                !
 ! D138  D(55,14,45,46)        155.984          estimate D2E/DX2                !
 ! D139  D(16,14,55,54)        149.691          estimate D2E/DX2                !
 ! D140  D(16,14,55,60)          5.4628         estimate D2E/DX2                !
 ! D141  D(45,14,55,54)          2.5047         estimate D2E/DX2                !
 ! D142  D(45,14,55,60)       -141.7235         estimate D2E/DX2                !
 ! D143  D(12,15,24,23)       -169.2486         estimate D2E/DX2                !
 ! D144  D(12,15,24,25)        -11.262          estimate D2E/DX2                !
 ! D145  D(57,15,24,23)        -12.447          estimate D2E/DX2                !
 ! D146  D(57,15,24,25)        145.5396         estimate D2E/DX2                !
 ! D147  D(12,15,57,56)        158.8495         estimate D2E/DX2                !
 ! D148  D(12,15,57,58)         24.1443         estimate D2E/DX2                !
 ! D149  D(24,15,57,56)          4.4927         estimate D2E/DX2                !
 ! D150  D(24,15,57,58)       -130.2126         estimate D2E/DX2                !
 ! D151  D(14,16,17,48)         -4.3207         estimate D2E/DX2                !
 ! D152  D(14,16,17,56)        137.1968         estimate D2E/DX2                !
 ! D153  D(58,16,17,48)       -146.0709         estimate D2E/DX2                !
 ! D154  D(58,16,17,56)         -4.5534         estimate D2E/DX2                !
 ! D155  D(14,16,58,57)       -133.5987         estimate D2E/DX2                !
 ! D156  D(14,16,58,59)          7.2406         estimate D2E/DX2                !
 ! D157  D(17,16,58,57)          6.7928         estimate D2E/DX2                !
 ! D158  D(17,16,58,59)        147.6322         estimate D2E/DX2                !
 ! D159  D(16,17,48,46)          6.715          estimate D2E/DX2                !
 ! D160  D(16,17,48,50)        152.4227         estimate D2E/DX2                !
 ! D161  D(56,17,48,46)       -130.5687         estimate D2E/DX2                !
 ! D162  D(56,17,48,50)         15.139          estimate D2E/DX2                !
 ! D163  D(16,17,56,22)       -141.555          estimate D2E/DX2                !
 ! D164  D(16,17,56,57)          0.3778         estimate D2E/DX2                !
 ! D165  D(48,17,56,22)          0.2734         estimate D2E/DX2                !
 ! D166  D(48,17,56,57)        142.2063         estimate D2E/DX2                !
 ! D167  D(40,18,19,20)          6.1251         estimate D2E/DX2                !
 ! D168  D(40,18,19,51)        155.3765         estimate D2E/DX2                !
 ! D169  D(47,18,19,20)       -146.9169         estimate D2E/DX2                !
 ! D170  D(47,18,19,51)          2.3346         estimate D2E/DX2                !
 ! D171  D(19,18,40,32)       -142.4545         estimate D2E/DX2                !
 ! D172  D(19,18,40,37)         16.3437         estimate D2E/DX2                !
 ! D173  D(47,18,40,32)          7.7894         estimate D2E/DX2                !
 ! D174  D(47,18,40,37)        166.5876         estimate D2E/DX2                !
 ! D175  D(19,18,47,44)        146.7656         estimate D2E/DX2                !
 ! D176  D(19,18,47,49)         -0.0523         estimate D2E/DX2                !
 ! D177  D(40,18,47,44)         -9.6329         estimate D2E/DX2                !
 ! D178  D(40,18,47,49)       -156.4508         estimate D2E/DX2                !
 ! D179  D(18,19,20,45)          0.1408         estimate D2E/DX2                !
 ! D180  D(18,19,20,54)        145.9735         estimate D2E/DX2                !
 ! D181  D(51,19,20,45)       -146.0858         estimate D2E/DX2                !
 ! D182  D(51,19,20,54)         -0.2531         estimate D2E/DX2                !
 ! D183  D(18,19,51,49)         -3.8007         estimate D2E/DX2                !
 ! D184  D(18,19,51,52)       -149.6579         estimate D2E/DX2                !
 ! D185  D(20,19,51,49)        148.6348         estimate D2E/DX2                !
 ! D186  D(20,19,51,52)          2.7775         estimate D2E/DX2                !
 ! D187  D(19,20,45,14)        146.4558         estimate D2E/DX2                !
 ! D188  D(19,20,45,46)         -6.09           estimate D2E/DX2                !
 ! D189  D(54,20,45,14)         -2.4008         estimate D2E/DX2                !
 ! D190  D(54,20,45,46)       -154.9466         estimate D2E/DX2                !
 ! D191  D(19,20,54,53)         -2.4803         estimate D2E/DX2                !
 ! D192  D(19,20,54,55)       -148.1989         estimate D2E/DX2                !
 ! D193  D(45,20,54,53)        149.7032         estimate D2E/DX2                !
 ! D194  D(45,20,54,55)          3.9846         estimate D2E/DX2                !
 ! D195  D(10,21,22,23)         18.0747         estimate D2E/DX2                !
 ! D196  D(10,21,22,56)        166.4569         estimate D2E/DX2                !
 ! D197  D(50,21,22,23)       -132.7428         estimate D2E/DX2                !
 ! D198  D(50,21,22,56)         15.6394         estimate D2E/DX2                !
 ! D199  D(10,21,50,33)          0.4654         estimate D2E/DX2                !
 ! D200  D(10,21,50,48)       -146.2164         estimate D2E/DX2                !
 ! D201  D(22,21,50,33)        146.6142         estimate D2E/DX2                !
 ! D202  D(22,21,50,48)         -0.0676         estimate D2E/DX2                !
 ! D203  D(21,22,23,7)         -15.2803         estimate D2E/DX2                !
 ! D204  D(21,22,23,24)        148.1074         estimate D2E/DX2                !
 ! D205  D(56,22,23,7)        -163.1026         estimate D2E/DX2                !
 ! D206  D(56,22,23,24)          0.285          estimate D2E/DX2                !
 ! D207  D(21,22,56,17)        -15.6203         estimate D2E/DX2                !
 ! D208  D(21,22,56,57)       -153.0812         estimate D2E/DX2                !
 ! D209  D(23,22,56,17)        129.2699         estimate D2E/DX2                !
 ! D210  D(23,22,56,57)         -8.191          estimate D2E/DX2                !
 ! D211  D(7,23,24,15)         168.8481         estimate D2E/DX2                !
 ! D212  D(7,23,24,25)          16.316          estimate D2E/DX2                !
 ! D213  D(22,23,24,15)          9.7396         estimate D2E/DX2                !
 ! D214  D(22,23,24,25)       -142.7925         estimate D2E/DX2                !
 ! D215  D(15,24,25,13)          2.4253         estimate D2E/DX2                !
 ! D216  D(15,24,25,26)       -150.1732         estimate D2E/DX2                !
 ! D217  D(23,24,25,13)        157.6907         estimate D2E/DX2                !
 ! D218  D(23,24,25,26)          5.0922         estimate D2E/DX2                !
 ! D219  D(13,25,26,4)          -2.1502         estimate D2E/DX2                !
 ! D220  D(13,25,26,27)       -148.0655         estimate D2E/DX2                !
 ! D221  D(24,25,26,4)         147.4938         estimate D2E/DX2                !
 ! D222  D(24,25,26,27)          1.5785         estimate D2E/DX2                !
 ! D223  D(4,26,27,28)        -155.653          estimate D2E/DX2                !
 ! D224  D(4,26,27,38)          -2.7915         estimate D2E/DX2                !
 ! D225  D(25,26,27,28)         -6.935          estimate D2E/DX2                !
 ! D226  D(25,26,27,38)        145.9266         estimate D2E/DX2                !
 ! D227  D(26,27,28,7)         -16.6553         estimate D2E/DX2                !
 ! D228  D(26,27,28,29)        141.7287         estimate D2E/DX2                !
 ! D229  D(38,27,28,7)        -166.6718         estimate D2E/DX2                !
 ! D230  D(38,27,28,29)         -8.2878         estimate D2E/DX2                !
 ! D231  D(26,27,38,36)       -145.9858         estimate D2E/DX2                !
 ! D232  D(26,27,38,39)          0.4297         estimate D2E/DX2                !
 ! D233  D(28,27,38,36)         10.2304         estimate D2E/DX2                !
 ! D234  D(28,27,38,39)        156.6459         estimate D2E/DX2                !
 ! D235  D(7,28,29,30)          14.5285         estimate D2E/DX2                !
 ! D236  D(7,28,29,35)         162.8151         estimate D2E/DX2                !
 ! D237  D(27,28,29,30)       -148.1389         estimate D2E/DX2                !
 ! D238  D(27,28,29,35)          0.1477         estimate D2E/DX2                !
 ! D239  D(28,29,30,10)        -17.8123         estimate D2E/DX2                !
 ! D240  D(28,29,30,31)        133.4654         estimate D2E/DX2                !
 ! D241  D(35,29,30,10)       -166.9636         estimate D2E/DX2                !
 ! D242  D(35,29,30,31)        -15.6859         estimate D2E/DX2                !
 ! D243  D(28,29,35,34)       -129.793          estimate D2E/DX2                !
 ! D244  D(28,29,35,36)          6.6755         estimate D2E/DX2                !
 ! D245  D(30,29,35,34)         15.6108         estimate D2E/DX2                !
 ! D246  D(30,29,35,36)        152.0793         estimate D2E/DX2                !
 ! D247  D(10,30,31,32)        146.7949         estimate D2E/DX2                !
 ! D248  D(10,30,31,33)         -0.1497         estimate D2E/DX2                !
 ! D249  D(29,30,31,32)         -0.0055         estimate D2E/DX2                !
 ! D250  D(29,30,31,33)       -146.9501         estimate D2E/DX2                !
 ! D251  D(30,31,32,34)         15.6546         estimate D2E/DX2                !
 ! D252  D(30,31,32,40)       -133.7242         estimate D2E/DX2                !
 ! D253  D(33,31,32,34)        167.0584         estimate D2E/DX2                !
 ! D254  D(33,31,32,40)         17.6797         estimate D2E/DX2                !
 ! D255  D(30,31,33,37)        136.7628         estimate D2E/DX2                !
 ! D256  D(30,31,33,50)         26.1329         estimate D2E/DX2                !
 ! D257  D(30,31,33,69)        -99.4184         estimate D2E/DX2                !
 ! D258  D(32,31,33,37)        -13.1085         estimate D2E/DX2                !
 ! D259  D(32,31,33,50)       -123.7383         estimate D2E/DX2                !
 ! D260  D(32,31,33,69)        110.7104         estimate D2E/DX2                !
 ! D261  D(31,32,34,35)        -15.529          estimate D2E/DX2                !
 ! D262  D(31,32,34,44)       -152.109          estimate D2E/DX2                !
 ! D263  D(40,32,34,35)        130.1149         estimate D2E/DX2                !
 ! D264  D(40,32,34,44)         -6.4651         estimate D2E/DX2                !
 ! D265  D(31,32,40,18)        148.4223         estimate D2E/DX2                !
 ! D266  D(31,32,40,37)        -14.663          estimate D2E/DX2                !
 ! D267  D(34,32,40,18)         -0.0424         estimate D2E/DX2                !
 ! D268  D(34,32,40,37)       -163.1277         estimate D2E/DX2                !
 ! D269  D(31,33,37,40)          4.2205         estimate D2E/DX2                !
 ! D270  D(31,33,37,46)       -115.8498         estimate D2E/DX2                !
 ! D271  D(31,33,37,70)        124.1846         estimate D2E/DX2                !
 ! D272  D(50,33,37,40)        115.8096         estimate D2E/DX2                !
 ! D273  D(50,33,37,46)         -4.2606         estimate D2E/DX2                !
 ! D274  D(50,33,37,70)       -124.2262         estimate D2E/DX2                !
 ! D275  D(69,33,37,40)       -119.9253         estimate D2E/DX2                !
 ! D276  D(69,33,37,46)        120.0045         estimate D2E/DX2                !
 ! D277  D(69,33,37,70)          0.0389         estimate D2E/DX2                !
 ! D278  D(31,33,50,21)        -26.2973         estimate D2E/DX2                !
 ! D279  D(31,33,50,48)        123.3526         estimate D2E/DX2                !
 ! D280  D(37,33,50,21)       -136.8517         estimate D2E/DX2                !
 ! D281  D(37,33,50,48)         12.7981         estimate D2E/DX2                !
 ! D282  D(69,33,50,21)         99.232          estimate D2E/DX2                !
 ! D283  D(69,33,50,48)       -111.1181         estimate D2E/DX2                !
 ! D284  D(32,34,35,29)         -0.0468         estimate D2E/DX2                !
 ! D285  D(32,34,35,36)       -141.0973         estimate D2E/DX2                !
 ! D286  D(44,34,35,29)        141.0912         estimate D2E/DX2                !
 ! D287  D(44,34,35,36)          0.0408         estimate D2E/DX2                !
 ! D288  D(32,34,44,43)        144.8914         estimate D2E/DX2                !
 ! D289  D(32,34,44,47)          4.7276         estimate D2E/DX2                !
 ! D290  D(35,34,44,43)          4.1185         estimate D2E/DX2                !
 ! D291  D(35,34,44,47)       -136.0453         estimate D2E/DX2                !
 ! D292  D(29,35,36,38)         -4.8448         estimate D2E/DX2                !
 ! D293  D(29,35,36,43)       -144.8121         estimate D2E/DX2                !
 ! D294  D(34,35,36,38)        135.7839         estimate D2E/DX2                !
 ! D295  D(34,35,36,43)         -4.1834         estimate D2E/DX2                !
 ! D296  D(35,36,38,27)         -3.4655         estimate D2E/DX2                !
 ! D297  D(35,36,38,39)       -146.7463         estimate D2E/DX2                !
 ! D298  D(43,36,38,27)        131.9117         estimate D2E/DX2                !
 ! D299  D(43,36,38,39)        -11.369          estimate D2E/DX2                !
 ! D300  D(35,36,43,42)        147.4087         estimate D2E/DX2                !
 ! D301  D(35,36,43,44)          6.6245         estimate D2E/DX2                !
 ! D302  D(38,36,43,42)          8.2725         estimate D2E/DX2                !
 ! D303  D(38,36,43,44)       -132.5117         estimate D2E/DX2                !
 ! D304  D(33,37,40,18)       -154.5088         estimate D2E/DX2                !
 ! D305  D(33,37,40,32)          5.8799         estimate D2E/DX2                !
 ! D306  D(46,37,40,18)        -40.913          estimate D2E/DX2                !
 ! D307  D(46,37,40,32)        119.4757         estimate D2E/DX2                !
 ! D308  D(70,37,40,18)         84.1886         estimate D2E/DX2                !
 ! D309  D(70,37,40,32)       -115.4227         estimate D2E/DX2                !
 ! D310  D(33,37,46,45)        154.7946         estimate D2E/DX2                !
 ! D311  D(33,37,46,48)         -5.5352         estimate D2E/DX2                !
 ! D312  D(40,37,46,45)         41.172          estimate D2E/DX2                !
 ! D313  D(40,37,46,48)       -119.1577         estimate D2E/DX2                !
 ! D314  D(70,37,46,45)        -83.9165         estimate D2E/DX2                !
 ! D315  D(70,37,46,48)        115.7537         estimate D2E/DX2                !
 ! D316  D(27,38,39,4)           2.1068         estimate D2E/DX2                !
 ! D317  D(27,38,39,41)       -142.0678         estimate D2E/DX2                !
 ! D318  D(36,38,39,4)         149.5962         estimate D2E/DX2                !
 ! D319  D(36,38,39,41)          5.4216         estimate D2E/DX2                !
 ! D320  D(4,39,41,1)            0.6764         estimate D2E/DX2                !
 ! D321  D(4,39,41,42)        -135.7504         estimate D2E/DX2                !
 ! D322  D(38,39,41,1)         140.1748         estimate D2E/DX2                !
 ! D323  D(38,39,41,42)          3.7481         estimate D2E/DX2                !
 ! D324  D(1,41,42,43)        -147.8698         estimate D2E/DX2                !
 ! D325  D(1,41,42,66)          -5.5149         estimate D2E/DX2                !
 ! D326  D(39,41,42,43)         -6.8983         estimate D2E/DX2                !
 ! D327  D(39,41,42,66)        135.4566         estimate D2E/DX2                !
 ! D328  D(41,42,43,36)          0.9704         estimate D2E/DX2                !
 ! D329  D(41,42,43,44)        136.5879         estimate D2E/DX2                !
 ! D330  D(66,42,43,36)       -136.8619         estimate D2E/DX2                !
 ! D331  D(66,42,43,44)         -1.2444         estimate D2E/DX2                !
 ! D332  D(41,42,66,49)       -135.2245         estimate D2E/DX2                !
 ! D333  D(41,42,66,65)          5.7795         estimate D2E/DX2                !
 ! D334  D(43,42,66,49)          7.1332         estimate D2E/DX2                !
 ! D335  D(43,42,66,65)        148.1371         estimate D2E/DX2                !
 ! D336  D(36,43,44,34)         -6.5999         estimate D2E/DX2                !
 ! D337  D(36,43,44,47)        132.6628         estimate D2E/DX2                !
 ! D338  D(42,43,44,34)       -147.4113         estimate D2E/DX2                !
 ! D339  D(42,43,44,47)         -8.1486         estimate D2E/DX2                !
 ! D340  D(34,44,47,18)          3.1868         estimate D2E/DX2                !
 ! D341  D(34,44,47,49)        146.9637         estimate D2E/DX2                !
 ! D342  D(43,44,47,18)       -132.3523         estimate D2E/DX2                !
 ! D343  D(43,44,47,49)         11.4247         estimate D2E/DX2                !
 ! D344  D(14,45,46,37)       -166.5363         estimate D2E/DX2                !
 ! D345  D(14,45,46,48)         -7.794          estimate D2E/DX2                !
 ! D346  D(20,45,46,37)        -16.8164         estimate D2E/DX2                !
 ! D347  D(20,45,46,48)        141.926          estimate D2E/DX2                !
 ! D348  D(37,46,48,17)        162.607          estimate D2E/DX2                !
 ! D349  D(37,46,48,50)         14.1158         estimate D2E/DX2                !
 ! D350  D(45,46,48,17)         -0.3838         estimate D2E/DX2                !
 ! D351  D(45,46,48,50)       -148.875          estimate D2E/DX2                !
 ! D352  D(18,47,49,51)         -2.2889         estimate D2E/DX2                !
 ! D353  D(18,47,49,66)        142.438          estimate D2E/DX2                !
 ! D354  D(44,47,49,51)       -150.2215         estimate D2E/DX2                !
 ! D355  D(44,47,49,66)         -5.4946         estimate D2E/DX2                !
 ! D356  D(17,48,50,21)        -15.3117         estimate D2E/DX2                !
 ! D357  D(17,48,50,33)       -166.5148         estimate D2E/DX2                !
 ! D358  D(46,48,50,21)        134.0804         estimate D2E/DX2                !
 ! D359  D(46,48,50,33)        -17.1226         estimate D2E/DX2                !
 ! D360  D(47,49,51,19)          3.7838         estimate D2E/DX2                !
 ! D361  D(47,49,51,52)        151.1963         estimate D2E/DX2                !
 ! D362  D(66,49,51,19)       -140.9171         estimate D2E/DX2                !
 ! D363  D(66,49,51,52)          6.4954         estimate D2E/DX2                !
 ! D364  D(47,49,66,42)         -3.8057         estimate D2E/DX2                !
 ! D365  D(47,49,66,65)       -140.3191         estimate D2E/DX2                !
 ! D366  D(51,49,66,42)        136.3408         estimate D2E/DX2                !
 ! D367  D(51,49,66,65)         -0.1726         estimate D2E/DX2                !
 ! D368  D(19,51,52,53)         -2.5637         estimate D2E/DX2                !
 ! D369  D(19,51,52,64)        135.0471         estimate D2E/DX2                !
 ! D370  D(49,51,52,53)       -145.3261         estimate D2E/DX2                !
 ! D371  D(49,51,52,64)         -7.7153         estimate D2E/DX2                !
 ! D372  D(51,52,53,54)         -0.1809         estimate D2E/DX2                !
 ! D373  D(51,52,53,62)        142.2081         estimate D2E/DX2                !
 ! D374  D(64,52,53,54)       -142.551          estimate D2E/DX2                !
 ! D375  D(64,52,53,62)         -0.162          estimate D2E/DX2                !
 ! D376  D(51,52,64,63)       -139.5068         estimate D2E/DX2                !
 ! D377  D(51,52,64,65)          2.6487         estimate D2E/DX2                !
 ! D378  D(53,52,64,63)          2.0054         estimate D2E/DX2                !
 ! D379  D(53,52,64,65)        144.1609         estimate D2E/DX2                !
 ! D380  D(52,53,54,20)          2.7166         estimate D2E/DX2                !
 ! D381  D(52,53,54,55)        145.275          estimate D2E/DX2                !
 ! D382  D(62,53,54,20)       -134.9506         estimate D2E/DX2                !
 ! D383  D(62,53,54,55)          7.6078         estimate D2E/DX2                !
 ! D384  D(52,53,62,61)       -143.4736         estimate D2E/DX2                !
 ! D385  D(52,53,62,63)         -1.7581         estimate D2E/DX2                !
 ! D386  D(54,53,62,61)         -1.8335         estimate D2E/DX2                !
 ! D387  D(54,53,62,63)        139.882          estimate D2E/DX2                !
 ! D388  D(20,54,55,14)         -4.0386         estimate D2E/DX2                !
 ! D389  D(20,54,55,60)        139.8315         estimate D2E/DX2                !
 ! D390  D(53,54,55,14)       -151.3701         estimate D2E/DX2                !
 ! D391  D(53,54,55,60)         -7.5001         estimate D2E/DX2                !
 ! D392  D(14,55,60,59)          1.6032         estimate D2E/DX2                !
 ! D393  D(14,55,60,61)        141.1189         estimate D2E/DX2                !
 ! D394  D(54,55,60,59)       -137.984          estimate D2E/DX2                !
 ! D395  D(54,55,60,61)          1.5317         estimate D2E/DX2                !
 ! D396  D(17,56,57,15)       -135.5736         estimate D2E/DX2                !
 ! D397  D(17,56,57,58)          3.8571         estimate D2E/DX2                !
 ! D398  D(22,56,57,15)          5.6556         estimate D2E/DX2                !
 ! D399  D(22,56,57,58)        145.0862         estimate D2E/DX2                !
 ! D400  D(15,57,58,16)        132.3178         estimate D2E/DX2                !
 ! D401  D(15,57,58,59)         -8.4831         estimate D2E/DX2                !
 ! D402  D(56,57,58,16)         -6.513          estimate D2E/DX2                !
 ! D403  D(56,57,58,59)       -147.314          estimate D2E/DX2                !
 ! D404  D(16,58,59,11)       -148.9118         estimate D2E/DX2                !
 ! D405  D(16,58,59,60)         -0.03           estimate D2E/DX2                !
 ! D406  D(57,58,59,11)        -13.528          estimate D2E/DX2                !
 ! D407  D(57,58,59,60)        135.3538         estimate D2E/DX2                !
 ! D408  D(11,59,60,55)        148.2084         estimate D2E/DX2                !
 ! D409  D(11,59,60,61)          4.7037         estimate D2E/DX2                !
 ! D410  D(58,59,60,55)         -4.3184         estimate D2E/DX2                !
 ! D411  D(58,59,60,61)       -147.8231         estimate D2E/DX2                !
 ! D412  D(55,60,61,9)        -140.434          estimate D2E/DX2                !
 ! D413  D(55,60,61,62)          4.3568         estimate D2E/DX2                !
 ! D414  D(59,60,61,9)           3.5894         estimate D2E/DX2                !
 ! D415  D(59,60,61,62)        148.3802         estimate D2E/DX2                !
 ! D416  D(9,61,62,53)         135.8323         estimate D2E/DX2                !
 ! D417  D(9,61,62,63)          -1.436          estimate D2E/DX2                !
 ! D418  D(60,61,62,53)         -4.2364         estimate D2E/DX2                !
 ! D419  D(60,61,62,63)       -141.5048         estimate D2E/DX2                !
 ! D420  D(53,62,63,8)        -138.2057         estimate D2E/DX2                !
 ! D421  D(53,62,63,64)          2.9988         estimate D2E/DX2                !
 ! D422  D(61,62,63,8)           3.6084         estimate D2E/DX2                !
 ! D423  D(61,62,63,64)        144.8129         estimate D2E/DX2                !
 ! D424  D(8,63,64,52)         137.619          estimate D2E/DX2                !
 ! D425  D(8,63,64,65)          -4.2793         estimate D2E/DX2                !
 ! D426  D(62,63,64,52)         -3.0923         estimate D2E/DX2                !
 ! D427  D(62,63,64,65)       -144.9907         estimate D2E/DX2                !
 ! D428  D(52,64,65,1)        -133.6711         estimate D2E/DX2                !
 ! D429  D(52,64,65,66)          3.7913         estimate D2E/DX2                !
 ! D430  D(63,64,65,1)           3.7022         estimate D2E/DX2                !
 ! D431  D(63,64,65,66)        141.1646         estimate D2E/DX2                !
 ! D432  D(1,65,66,42)          -3.8286         estimate D2E/DX2                !
 ! D433  D(1,65,66,49)         136.9458         estimate D2E/DX2                !
 ! D434  D(64,65,66,42)       -145.7738         estimate D2E/DX2                !
 ! D435  D(64,65,66,49)         -4.9994         estimate D2E/DX2                !
 --------------------------------------------------------------------------------
 Trust Radius=3.00D-01 FncErr=1.00D-07 GrdErr=1.00D-06 EigMax=2.50D+02 EigMin=1.00D-04
 Number of steps in this run=    432 maximum allowed number of steps=    432.
 GradGradGradGradGradGradGradGradGradGradGradGradGradGradGradGradGradGrad

 Leave Link  103 at Wed Jul 20 23:09:48 2022, MaxMem=  1342177280 cpu:               1.8 elap:               0.0
[...]
 Alpha virt. eigenvalues --    0.95637   0.96018   0.96508   0.96962   0.97151
 Alpha virt. eigenvalues --    0.97632   0.97791   0.98379   0.98883   0.99100
 Alpha virt. eigenvalues --    0.99740   1.00236   1.00522   1.01146   1.01618
 Alpha virt. eigenvalues --    1.01883   1.02467   1.02728   1.03117   1.03180
 Alpha virt. eigenvalues --    1.03604   1.04101   1.05002   1.05343   1.05794
 Alpha virt. eigenvalues --    1.05962   1.06102   1.06401   1.06545   1.06712
 Alpha virt. eigenvalues --    1.07729   1.08003   1.08177   1.08917   1.09212
 Alpha virt. eigenvalues --    1.09764   1.10217   1.10374   1.10799   1.10962
 Alpha virt. eigenvalues --    1.11379   1.11661   1.12186   1.12863   1.13311
 Alpha virt. eigenvalues --    1.13894   1.14965   1.15308   1.15789   1.16311
 Alpha virt. eigenvalues --    1.16451   1.17244   1.17589   1.18485   1.19459
 Alpha virt. eigenvalues --    1.19867   1.20206   1.20619   1.20891   1.21368
 Alpha virt. eigenvalues --    1.21633   1.22152   1.22629   1.22918   1.23418
 Alpha virt. eigenvalues --    1.23941   1.24248   1.24360   1.25148   1.25554
 Alpha virt. eigenvalues --    1.25599   1.26302   1.26976   1.27457   1.27601
 Alpha virt. eigenvalues --    1.28310   1.29051   1.29810   1.29975   1.30161
 Alpha virt. eigenvalues --    1.30449   1.31459   1.32221   1.32801   1.33063
 Alpha virt. eigenvalues --    1.33438   1.33860   1.34210   1.34479   1.34691
 Alpha virt. eigenvalues --    1.35149   1.35248   1.35442   1.35784   1.36095
 Alpha virt. eigenvalues --    1.36379   1.36894   1.37337   1.37933   1.38450
 Alpha virt. eigenvalues --    1.38606   1.39163   1.39570   1.39869   1.40178
 Alpha virt. eigenvalues --    1.40588   1.40894   1.41037   1.41128   1.41890
 Alpha virt. eigenvalues --    1.42159   1.42256   1.42969   1.43498   1.43790
 Alpha virt. eigenvalues --    1.43816   1.44035   1.44394   1.44621   1.44922
 Alpha virt. eigenvalues --    1.45159   1.45291   1.45475   1.45718   1.46173
 Alpha virt. eigenvalues --    1.46451   1.46479   1.46757   1.47151   1.47233
 Alpha virt. eigenvalues --    1.47603   1.47675   1.47802   1.48177   1.48619
 Alpha virt. eigenvalues --    1.48881   1.49042   1.49294   1.49821   1.49852
 Alpha virt. eigenvalues --    1.50052   1.50658   1.51015   1.51208   1.51397
 Alpha virt. eigenvalues --    1.51883   1.52037   1.52157   1.52371   1.52474
 Alpha virt. eigenvalues --    1.52840   1.53129   1.53228   1.53486   1.53793
 Alpha virt. eigenvalues --    1.54179   1.54628   1.54761   1.55106   1.55337
 Alpha virt. eigenvalues --    1.55515   1.56057   1.56164   1.56473   1.56831
 Alpha virt. eigenvalues --    1.57260   1.57467   1.58242   1.58315   1.58722
 Alpha virt. eigenvalues --    1.59198   1.59320   1.59760   1.59835   1.60485
 Alpha virt. eigenvalues --    1.60766   1.61144   1.62356   1.62418   1.63240
 Alpha virt. eigenvalues --    1.63439   1.63588   1.64152   1.64520   1.64693
 Alpha virt. eigenvalues --    1.65309   1.65661   1.65781   1.66245   1.67048
 Alpha virt. eigenvalues --    1.67349   1.67814   1.68486   1.68662   1.69025
 Alpha virt. eigenvalues --    1.69401   1.69646   1.69915   1.70282   1.70833
 Alpha virt. eigenvalues --    1.71283   1.71510   1.71797   1.71901   1.72053
 Alpha virt. eigenvalues --    1.73118   1.73762   1.74098   1.74403   1.74877
 Alpha virt. eigenvalues --    1.75000   1.75420   1.76155   1.76576   1.77239
 Alpha virt. eigenvalues --    1.77328   1.77533   1.78066   1.78615   1.78807
 Alpha virt. eigenvalues --    1.79315   1.79589   1.79800   1.80168   1.80682
 Alpha virt. eigenvalues --    1.80694   1.81392   1.81750   1.82027   1.82352
 Alpha virt. eigenvalues --    1.83289   1.83445   1.83865   1.84305   1.84639
 Alpha virt. eigenvalues --    1.85406   1.85814   1.86335   1.86750   1.86792
 Alpha virt. eigenvalues --    1.87724   1.88186   1.88499   1.88660   1.89574
 Alpha virt. eigenvalues --    1.89754   1.90204   1.90492   1.90999   1.91267
 Alpha virt. eigenvalues --    1.91547   1.91750   1.92027   1.92430   1.92968
 Alpha virt. eigenvalues --    1.93356   1.94037   1.94299   1.94565   1.94844
 Alpha virt. eigenvalues --    1.96081   1.96268   1.96751   1.97607   1.97926
 Alpha virt. eigenvalues --    1.98491   1.98543   1.99496   1.99900   2.00412
 Alpha virt. eigenvalues --    2.00702   2.01224   2.01888   2.02056   2.02350
 Alpha virt. eigenvalues --    2.02653   2.03407   2.03962   2.04135   2.04513
 Alpha virt. eigenvalues --    2.04602   2.05861   2.06428   2.06672   2.07468
 Alpha virt. eigenvalues --    2.07766   2.07864   2.08686   2.09036   2.09451
 Alpha virt. eigenvalues --    2.09747   2.10062   2.10172   2.10554   2.10984
 Alpha virt. eigenvalues --    2.11164   2.11850   2.11939   2.12118   2.12493
 Alpha virt. eigenvalues --    2.13078   2.14187   2.14788   2.14872   2.15406
 Alpha virt. eigenvalues --    2.16028   2.16399   2.17017   2.17188   2.17830
 Alpha virt. eigenvalues --    2.18789   2.19409   2.20591   2.20944   2.21111
 Alpha virt. eigenvalues --    2.21518   2.22428   2.23048   2.23167   2.23434
 Alpha virt. eigenvalues --    2.23690   2.24297   2.24682   2.25418   2.26019
 Alpha virt. eigenvalues --    2.26455   2.26708   2.27057   2.28237   2.29184
 Alpha virt. eigenvalues --    2.29493   2.30495   2.30724   2.31747   2.32212
 Alpha virt. eigenvalues --    2.32543   2.32823   2.33405   2.33826   2.34588
 Alpha virt. eigenvalues --    2.35045   2.35541   2.36157   2.36640   2.37906
 Alpha virt. eigenvalues --    2.38315   2.38377   2.39127   2.39927   2.40303
 Alpha virt. eigenvalues --    2.40425   2.40833   2.41287   2.42169   2.42408
 Alpha virt. eigenvalues --    2.42601   2.42994   2.43275   2.43341   2.43883
 Alpha virt. eigenvalues --    2.44341   2.44806   2.44933   2.45612   2.46050
 Alpha virt. eigenvalues --    2.46550   2.46628   2.47232   2.47486   2.48217
 Alpha virt. eigenvalues --    2.48390   2.49380   2.49850   2.50771   2.51731
 Alpha virt. eigenvalues --    2.52360   2.53681   2.54318   2.54503   2.55261
 Alpha virt. eigenvalues --    2.55533   2.55677   2.56351   2.56887   2.57756
 Alpha virt. eigenvalues --    2.57774   2.58022   2.58482   2.58706   2.58885
 Alpha virt. eigenvalues --    2.59088   2.59477   2.59886   2.60537   2.61127
 Alpha virt. eigenvalues --    2.61242   2.62169   2.62546   2.63388   2.63740
 Alpha virt. eigenvalues --    2.64896   2.65548   2.65971   2.66449   2.67210
 Alpha virt. eigenvalues --    2.67367   2.67470   2.68121   2.68983   2.70297
 Alpha virt. eigenvalues --    2.71125   2.71515   2.72397   2.72723   2.73066
 Alpha virt. eigenvalues --    2.73940   2.74619   2.75144   2.75440   2.76327
 Alpha virt. eigenvalues --    2.76652   2.77227   2.78434   2.79494   2.79853
 Alpha virt. eigenvalues --    2.80406   2.81599   2.82032   2.82674   2.83579
 Alpha virt. eigenvalues --    2.84104   2.84440   2.85143   2.85717   2.86595
 Alpha virt. eigenvalues --    2.87406   2.87756   2.89250   2.90179   2.90529
 Alpha virt. eigenvalues --    2.91112   2.91845   2.92305   2.92732   2.93545
 Alpha virt. eigenvalues --    2.93778   2.93911   2.94543   2.94843   2.95630
 Alpha virt. eigenvalues --    2.96606   2.97578   2.97688   2.98394   2.98969
 Alpha virt. eigenvalues --    2.99025   2.99426   3.00005   3.00414   3.00704
 Alpha virt. eigenvalues --    3.00879   3.01425   3.01740   3.02207   3.02620
 Alpha virt. eigenvalues --    3.03489   3.03668   3.04452   3.04754   3.04765
 Alpha virt. eigenvalues --    3.05365   3.05406   3.05804   3.06252   3.06495
 Alpha virt. eigenvalues --    3.06721   3.07021   3.07579   3.07936   3.08034
 Alpha virt. eigenvalues --    3.08307   3.08593   3.09137   3.09662   3.10068
 Alpha virt. eigenvalues --    3.10208   3.10826   3.11324   3.11594   3.11971
 Alpha virt. eigenvalues --    3.12181   3.12575   3.12738   3.13409   3.13827
 Alpha virt. eigenvalues --    3.14076   3.14449   3.14552   3.15026   3.15132
 Alpha virt. eigenvalues --    3.15466   3.15510   3.15964   3.16337   3.16688
 Alpha virt. eigenvalues --    3.16836   3.17406   3.17939   3.18148   3.18368
 Alpha virt. eigenvalues --    3.18493   3.19878   3.20503   3.21001   3.21533
 Alpha virt. eigenvalues --    3.21931   3.22392   3.22471   3.22872   3.24356
 Alpha virt. eigenvalues --    3.26871   3.27282   3.28896   3.32948   3.33344
 Alpha virt. eigenvalues --    3.34014   3.35882   3.37938   3.40244   3.41010
 Alpha virt. eigenvalues --    3.41164   3.43536   3.45019   3.47024   3.47596
 Alpha virt. eigenvalues --    3.48851   3.50592   3.52824   3.53092   3.53581
 Alpha virt. eigenvalues --    3.54100   3.54820   3.55877   3.56229   3.56693
 Alpha virt. eigenvalues --    3.58132   3.59083   3.60165   3.60923   3.63105
 Alpha virt. eigenvalues --    3.63522   3.64092   3.64913   3.65815   3.67194
 Alpha virt. eigenvalues --    3.68831   3.69010   3.70052   3.70816   3.71914
 Alpha virt. eigenvalues --    3.72268   3.73964   3.74079   3.75447   3.77183
 Alpha virt. eigenvalues --    3.78038   3.79433   3.80031   3.82441   3.83339
 Alpha virt. eigenvalues --    3.84038   3.85578   3.86557   3.86659   3.87283
 Alpha virt. eigenvalues --    3.87886   3.88370   3.88750   3.89352   3.90408
 Alpha virt. eigenvalues --    3.91720   3.92245   3.92573   3.93443   3.93818
 Alpha virt. eigenvalues --    3.95897   3.97767   4.01548   4.01715   4.02945
 Alpha virt. eigenvalues --    4.08320   4.11120   4.16792   4.21367   4.23452
 Alpha virt. eigenvalues --    4.24897   4.29132   4.33932   4.36570   4.36741
 Alpha virt. eigenvalues --    4.37926   4.40295   4.40668   4.41445   4.42504
 Alpha virt. eigenvalues --    4.44576   4.51833   4.56358   4.58063   4.58782
 Alpha virt. eigenvalues --    4.61851   4.63860   4.64804   4.67258   4.70229
 Alpha virt. eigenvalues --    4.72205   4.76200   4.77680   4.84593   4.89135
 Alpha virt. eigenvalues --    4.92250   4.95690   4.97203   5.01605   5.03104
 Alpha virt. eigenvalues --    5.04505   5.06088  23.04903  23.21426  23.26685
 Alpha virt. eigenvalues --   23.27587  23.44633  23.48647  23.50021  23.51724
 Alpha virt. eigenvalues --   23.53858  23.63747  23.67205  23.67531  23.72229
 Alpha virt. eigenvalues --   23.73940  23.78232  23.79462  23.80340  23.82302
 Alpha virt. eigenvalues --   23.83464  23.84494  23.84895  23.85458  23.86130
 Alpha virt. eigenvalues --   23.87840  23.90317  23.91167  23.93113  23.93660
 Alpha virt. eigenvalues --   23.95161  23.95583  23.95926  23.96790  23.97802
 Alpha virt. eigenvalues --   23.98396  23.98864  23.99490  24.00038  24.00343
 Alpha virt. eigenvalues --   24.00565  24.00909  24.01671  24.01917  24.02368
 Alpha virt. eigenvalues --   24.03213  24.03905  24.04612  24.05156  24.06897
 Alpha virt. eigenvalues --   24.07763  24.09263  24.10096  24.10577  24.10995
 Alpha virt. eigenvalues --   24.11074  24.11415  24.11954  24.12569  24.12816
 Alpha virt. eigenvalues --   24.13583  24.14275  24.14556  24.14878  24.15660
 Alpha virt. eigenvalues --   24.16412  24.16955  24.18349
          Condensed to atoms (all electrons):
 Mulliken charges:
               1
     1  C   -0.003875
     2  C   -0.003604
     3  C   -0.003969
     4  C   -0.005720
     5  C    0.009632
     6  C    0.000278
     7  C   -0.120479
     8  C   -0.000147
     9  C   -0.017036
    10  C   -0.172227
    11  C   -0.155168
    12  C   -0.121075
    13  C   -0.046341
    14  C   -0.002790
    15  C   -0.039140
    16  C   -0.004981
    17  C   -0.008404
    18  C    0.017020
    19  C   -0.003859
    20  C   -0.001681
    21  C   -0.006004
    22  C    0.029194
    23  C   -0.028918
    24  C    0.039340
    25  C    0.018508
    26  C   -0.004397
    27  C    0.014110
    28  C   -0.027285
    29  C    0.033582
    30  C   -0.003889
    31  C   -0.004947
    32  C    0.033346
    33  C   -0.171971
    34  C   -0.010689
    35  C   -0.010047
    36  C   -0.006033
    37  C   -0.124366
    38  C   -0.001525
    39  C   -0.005532
    40  C   -0.026652
    41  C    0.002424
    42  C   -0.004212
    43  C   -0.011878
    44  C   -0.004847
    45  C    0.015165
    46  C   -0.027583
    47  C   -0.002630
    48  C    0.035467
    49  C   -0.002547
    50  C   -0.005760
    51  C   -0.004040
    52  C   -0.005749
    53  C   -0.004680
    54  C   -0.004718
    55  C   -0.008207
    56  C   -0.010201
    57  C    0.002028
    58  C   -0.004645
    59  C   -0.014972
    60  C    0.021431
    61  C    0.014419
    62  C   -0.009640
    63  C   -0.001083
    64  C   -0.004975
    65  C   -0.003968
    66  C    0.001777
    67  H    0.164069
    68  H    0.159855
    69  H    0.160277
    70  H    0.165493
    71  H    0.170564
    72  H    0.171108
 Sum of Mulliken charges =  -0.00000
 Mulliken charges with hydrogens summed into heavy atoms:
               1
     1  C   -0.003875
     2  C   -0.003604
     3  C   -0.003969
     4  C   -0.005720
     5  C    0.009632
     6  C    0.000278
     7  C    0.043590
     8  C   -0.000147
     9  C   -0.017036
    10  C   -0.012371
    11  C    0.015396
    12  C    0.050033
    13  C   -0.046341
    14  C   -0.002790
    15  C   -0.039140
    16  C   -0.004981
    17  C   -0.008404
    18  C    0.017020
    19  C   -0.003859
    20  C   -0.001681
    21  C   -0.006004
    22  C    0.029194
    23  C   -0.028918
    24  C    0.039340
    25  C    0.018508
    26  C   -0.004397
    27  C    0.014110
    28  C   -0.027285
    29  C    0.033582
    30  C   -0.003889
    31  C   -0.004947
    32  C    0.033346
    33  C   -0.011694
    34  C   -0.010689
    35  C   -0.010047
    36  C   -0.006033
    37  C    0.041127
    38  C   -0.001525
    39  C   -0.005532
    40  C   -0.026652
    41  C    0.002424
    42  C   -0.004212
    43  C   -0.011878
    44  C   -0.004847
    45  C    0.015165
    46  C   -0.027583
    47  C   -0.002630
    48  C    0.035467
    49  C   -0.002547
    50  C   -0.005760
    51  C   -0.004040
    52  C   -0.005749
    53  C   -0.004680
    54  C   -0.004718
    55  C   -0.008207
    56  C   -0.010201
    57  C    0.002028
    58  C   -0.004645
    59  C   -0.014972
    60  C    0.021431
    61  C    0.014419
    62  C   -0.009640
    63  C   -0.001083
    64  C   -0.004975
    65  C   -0.003968
    66  C    0.001777
 Electronic spatial extent (au):  <R**2>=          21304.4942
 Charge=             -0.0000 electrons
 Dipole moment (field-independent basis, Debye):
    X=             -3.0868    Y=             -2.5484    Z=             -1.1936  Tot=              4.1770
 Quadrupole moment (field-independent basis, Debye-Ang):
   XX=           -353.5470   YY=           -373.2737   ZZ=           -364.2287
   XY=             -4.5611   XZ=             -3.9440   YZ=              7.5889
 Traceless Quadrupole moment (field-independent basis, Debye-Ang):
   XX=             10.1361   YY=             -9.5905   ZZ=             -0.5456
   XY=             -4.5611   XZ=             -3.9440   YZ=              7.5889
 Octapole moment (field-independent basis, Debye-Ang**2):
  XXX=           -121.4713  YYY=            -43.7116  ZZZ=            -13.1045  XYY=             37.7641
  XXY=            -36.7963  XXZ=             -7.9908  XZZ=            -50.1182  YZZ=            -23.5247
  YYZ=            -27.0557  XYZ=             11.4212
 Hexadecapole moment (field-independent basis, Debye-Ang**3):
 XXXX=         -12281.3080 YYYY=         -11232.7980 ZZZZ=          -8823.3155 XXXY=             -0.0051
 XXXZ=            -41.8001 YYYX=           -142.7777 YYYZ=            118.1552 ZZZX=            -28.2619
 ZZZY=             80.1485 XXYY=          -3964.0654 XXZZ=          -3416.0782 YYZZ=          -3337.6846
 XXYZ=             58.8715 YYXZ=            -68.3199 ZZXY=            -18.5768
 N-N= 9.880630157095D+03 E-N=-2.560400316618D+04  KE= 2.508690022633D+03
 No NMR shielding tensors so no spin-rotation constants.
 Leave Link  601 at Wed Jul 20 23:41:34 2022, MaxMem=  1342177280 cpu:              65.4 elap:               1.6
 (Enter /home/mkliu/g16/l9999.exe)
 1\1\GINC-NODE02\FOpt\RB3LYP\6-311G(d,p)\C66H6\MKLIU\20-Jul-2022\0\\#P 
 opt b3lyp/6-311G(d, p) empiricaldispersion=GD3\\force\\0,1\C,12.799941
 8138,12.0826341446,21.8926869593\C,12.8241216291,13.03522016,22.902357
 7745\C,12.7024230621,14.4447110952,22.5769853783\C,12.6169516592,14.85
 18981813,21.2438888987\C,13.4934984829,15.1972265541,23.4920341728\C,1
 4.1367339307,14.2438203275,24.4294813167\C,15.6260103952,17.3511101679
 ,18.7299042381\C,13.752381932,12.9151567021,24.0090352125\C,15.4042199
 194,14.4849581922,24.8966130923\C,16.9282743783,16.9812105193,17.88829
 22178\C,16.0904576709,15.8421608814,24.7871047756\C,15.3815303153,16.8
 5388309,23.7655745477\C,14.1718471907,16.304943778,23.0383256474\C,19.
 2305893039,14.027779584,22.5988920628\C,16.2363712744,17.3032747423,22
 .602417665\C,19.1754676214,15.4225842397,22.592411572\C,19.2438854327,
 16.0921445621,21.3383078691\C,17.4575586504,11.5809184031,19.298503317
 \C,17.7197950552,11.2735830544,20.7353610299\C,18.5066245456,11.996459
 0412,21.6293395866\C,18.0290174543,16.8697753505,18.918835045\C,17.570
 1803369,17.4100953583,20.1618367401\C,16.1442752685,17.5066481646,20.1
 63853699\C,15.4763886177,17.3511409645,21.3776119129\C,14.1786480062,1
 6.6795729129,21.6447120516\C,13.3771501963,15.9730504818,20.7372266862
 \C,13.6536859162,15.6963477552,19.2970864562\C,14.6811843758,16.168243
 7188,18.499462152\C,15.2740257624,15.2755729662,17.531261117\C,16.6525
 384165,15.5953791676,17.3511092747\C,17.5878722815,14.5840712768,17.35
 42410457\C,17.1621690281,13.2344630819,17.536250211\C,18.9901785424,14
 .7529596606,17.892304357\C,15.8171756687,12.9036465868,17.3888151176\C
 ,14.8391067525,13.9594819725,17.3850220871\C,13.6939520666,13.50634011
 93,18.1060083604\C,19.2622811445,13.4242859863,18.7302227882\C,13.0977
 052054,14.3766833458,19.017120266\C,12.4948739225,13.8537543824,20.210
 3441484\C,18.0067681838,12.5736108041,18.5047658989\C,12.5887074522,12
 .4932096033,20.5191735515\C,13.3755889522,11.6294783034,19.6647902887\
 C,13.9094857648,12.1211676537,18.4839541139\C,15.2744950493,11.7980485
 364,18.1105870942\C,19.2709610965,13.2518124349,21.3641116412\C,19.461
 1418716,13.9200058844,20.1668730559\C,16.0948163966,11.1363693907,19.0
 219654836\C,19.4525694644,15.3634980019,20.1687537875\C,15.5249425743,
 10.5724078599,20.2126299445\C,18.9615298861,15.8599674973,18.922382744
 9\C,16.5251308559,10.600469239,21.2464180392\C,16.1217878857,10.699001
 2018,22.5765731658\C,16.9282734155,11.4444624395,23.4926770789\C,18.09
 25550245,12.0483364122,23.0314082665\C,18.4931285057,13.3149119427,23.
 5861134139\C,18.2773635395,17.1558230816,21.3383415614\C,17.6058636731
 ,17.1577939972,22.592675084\C,18.232322912,16.1198140159,23.4427584079
 \C,17.4970741183,15.4287602521,24.366556386\C,17.6485859252,14.0099926
 033,24.4675596047\C,16.3802157072,13.4321625828,24.8451444828\C,16.042
 9809734,12.1535300647,24.4041083908\C,14.6876007527,11.8718103226,24.0
 123380182\C,14.7248997022,10.9337186733,22.9061402391\C,13.7799942889,
 11.0089744835,21.8910540007\C,14.1724927299,10.7728571219,20.519949626
 7\H,15.1667579964,18.2809333267,18.3827513973\H,17.1361984622,17.71691
 74485,17.1070166319\H,19.7392345334,14.9052405889,17.1109738171\H,20.1
 52797905,12.8964733614,18.3784008584\H,16.1083161347,16.338581557,25.7
 614727652\H,15.0884734685,17.7299888944,24.3535408528\\Version=ES64L-G
 16RevA.03\State=1-A\HF=-2519.0466659\RMSD=3.832e-09\RMSF=7.447e-05\Dip
 ole=0.7353942,1.3874961,-0.4844629\Quadrupole=-5.4319478,-0.0734377,5.
 5053856,-3.0891535,-8.146462,0.108897\PG=C01 [X(C66H6)]\\@


 THERE ARE TWO THINGS THAT EVERYBODY THINKS THEY CAN DO BETTER THAN
 ANYONE ELSE - PUNCH THE FIRE, AND EDIT A DAILY PAPER.
 -- UNCLE ESEK, "CENTURY MAGAZINE", 1885
 Job cpu time:       1 days  1 hours 11 minutes 10.6 seconds.
 Elapsed time:       0 days  0 hours 31 minutes 33.4 seconds.
 File lengths (MBytes):  RWF=    920 Int=      0 D2E=      0 Chk=    114 Scr=      1
 Normal termination of Gaussian 16 at Wed Jul 20 23:41:35 2022.
