 Entering Gaussian System, Link 0=g16
 Input=dihept_6_addons_7.gjf
 Output=dihept_6_addons_7.log
 Initial command:
 /home/mkliu/g16/l1.exe "/data/scratch/Gau-86605.inp" -scrdir="/data/scratch/"
 Entering Link 1 = /home/mkliu/g16/l1.exe PID=     86606.
  
 Copyright (c) 1988,1990,1992,1993,1995,1998,2003,2009,2016,
            Gaussian, Inc.  All Rights Reserved.
  
 This is part of the Gaussian(R) 16 program.  It is based on
 the Gaussian(R) 09 system (copyright 2009, Gaussian, Inc.),
 the Gaussian(R) 03 system (copyright 2003, Gaussian, Inc.),
 the Gaussian(R) 98 system (copyright 1998, Gaussian, Inc.),
 the Gaussian(R) 94 system (copyright 1995, Gaussian, Inc.),
 the Gaussian 92(TM) system (copyright 1992, Gaussian, Inc.),
 the Gaussian 90(TM) system (copyright 1990, Gaussian, Inc.),
 the Gaussian 88(TM) system (copyright 1988, Gaussian, Inc.),
 the Gaussian 86(TM) system (copyright 1986, Carnegie Mellon
 University), and the Gaussian 82(TM) system (copyright 1983,
 Carnegie Mellon University). Gaussian is a federally registered
 trademark of Gaussian, Inc.
  
 This software contains proprietary and confidential information,
 including trade secrets, belonging to Gaussian, Inc.
  
 This software is provided under written license and may be
 used, copied, transmitted, or stored only in accord with that
 written license.
  
 The following legend is applicable only to US Government
 contracts under FAR:
  
                    RESTRICTED RIGHTS LEGEND
  
 Use, reproduction and disclosure by the US Government is
 subject to restrictions as set forth in subparagraphs (a)
 and (c) of the Commercial Computer Software - Restricted
 Rights clause in FAR 52.227-19.
  
 Gaussian, Inc.
 340 Quinnipiac St., Bldg. 40, Wallingford CT 06492
  
  
 ---------------------------------------------------------------
 Warning -- This program may not be used in any manner that
 competes with the business of Gaussian, Inc. or will provide
 assistance to any competitor of Gaussian, Inc.  The licensee
 of this program is prohibited from giving any competitor of
 Gaussian, Inc. access to this program.  By using this program,
 the user acknowledges that Gaussian, Inc. is engaged in the
 business of creating and licensing software in the field of
 computational chemistry and represents and warrants to the
 licensee that it is not a competitor of Gaussian, Inc. and that
 it will not use this program in any manner prohibited above.
 ---------------------------------------------------------------
  

 Cite this work as:
 Gaussian 16, Revision A.03,
 M. J. Frisch, G. W. Trucks, H. B. Schlegel, G. E. Scuseria, 
 M. A. Robb, J. R. Cheeseman, G. Scalmani, V. Barone, 
 G. A. Petersson, H. Nakatsuji, X. Li, M. Caricato, A. V. Marenich, 
 J. Bloino, B. G. Janesko, R. Gomperts, B. Mennucci, H. P. Hratchian, 
 J. V. Ortiz, A. F. Izmaylov, J. L. Sonnenberg, D. Williams-Young, 
 F. Ding, F. Lipparini, F. Egidi, J. Goings, B. Peng, A. Petrone, 
 T. Henderson, D. Ranasinghe, V. G. Zakrzewski, J. Gao, N. Rega, 
 G. Zheng, W. Liang, M. Hada, M. Ehara, K. Toyota, R. Fukuda, 
 J. Hasegawa, M. Ishida, T. Nakajima, Y. Honda, O. Kitao, H. Nakai, 
 T. Vreven, K. Throssell, J. A. Montgomery, Jr., J. E. Peralta, 
 F. Ogliaro, M. J. Bearpark, J. J. Heyd, E. N. Brothers, K. N. Kudin, 
 V. N. Staroverov, T. A. Keith, R. Kobayashi, J. Normand, 
 K. Raghavachari, A. P. Rendell, J. C. Burant, S. S. Iyengar, 
 J. Tomasi, M. Cossi, J. M. Millam, M. Klene, C. Adamo, R. Cammi, 
 J. W. Ochterski, R. L. Martin, K. Morokuma, O. Farkas, 
 J. B. Foresman, and D. J. Fox, Gaussian, Inc., Wallingford CT, 2016.
 
 ******************************************
 Gaussian 16:  ES64L-G16RevA.03 25-Dec-2016
                19-Jul-2022 
 ******************************************
 %mem=10GB
 %chk=dihept_6_addons_7.chk
 %nprocshared=48
 Will use up to   48 processors via shared memory.
 -------------------------------------------------
 #P opt b3lyp/6-311G(d, p) empiricaldispersion=GD3
 -------------------------------------------------
 1/18=20,19=15,26=3,38=1/1,3;
 2/9=110,12=2,17=6,18=5,40=1/2;
 3/5=4,6=6,7=101,11=2,25=1,30=1,71=1,74=-5,124=31/1,2,3;
 4//1;
 5/5=2,38=5/2;
 6/7=2,8=2,9=2,10=2,28=1/1;
 7//1,2,3,16;
 1/18=20,19=15,26=3/3(2);
 2/9=110/2;
 99//99;
 2/9=110/2;
 3/5=4,6=6,7=101,11=2,25=1,30=1,71=1,74=-5,124=31/1,2,3;
 4/5=5,16=3,69=1/1;
 5/5=2,38=5/2;
 7//1,2,3,16;
 1/18=20,19=15,26=3/3(-5);
 2/9=110/2;
 6/7=2,8=2,9=2,10=2,19=2,28=1/1;
 99/9=1/99;
 Leave Link    1 at Tue Jul 19 23:18:18 2022, MaxMem=  1342177280 cpu:               2.0 elap:               0.0
 (Enter /home/mkliu/g16/l101.exe)
 -----
 force
 -----
 Symbolic Z-matrix:
 Charge =  0 Multiplicity = 1
 C                     12.7891   12.10394   21.89665 
 C                     12.80208   13.05122   22.90777 
 C                     12.68395   14.44947   22.58231 
 C                     12.61672   14.8662   21.25901 
 C                     13.48692   15.1932   23.4974 
 C                     14.11575   14.26799   24.40488 
 C                     15.62201   17.36257   18.74864 
 C                     13.73558   12.93648   24.00127 
 C                     15.39696   14.51949   24.86871 
 C                     16.90685   16.99812   17.91747 
 C                     16.06155   15.74215   24.4986 
 C                     15.45267   16.61382   23.59926 
 C                     14.17324   16.30784   23.03282 
 C                     19.17626   14.05404   22.58082 
 C                     16.21739   17.28847   22.59617 
 C                     19.15672   15.44239   22.58601 
 C                     19.22837   16.10515   21.33393 
 C                     17.45077   11.62231   19.34134 
 C                     17.86886   11.03094   20.6942 
 C                     18.75617   11.85275   21.70558 
 C                     17.99814   16.86505   18.93993 
 C                     17.54447   17.40858   20.17375 
 C                     16.11954   17.51632   20.17449 
 C                     15.44899   17.36932   21.37167 
 C                     14.16018   16.71159   21.64195 
 C                     13.37922   15.98835   20.75202 
 C                     13.66045   15.7131   19.33361 
 C                     14.68442   16.18728   18.53911 
 C                     15.27037   15.30238   17.5822 
 C                     16.64648   15.61318   17.3996 
 C                     17.57465   14.60642   17.40719 
 C                     17.15482   13.26353   17.59901 
 C                     18.97492   14.75588   17.92512 
 C                     15.81463   12.94334   17.44357 
 C                     14.84194   13.98994   17.43355 
 C                     13.69708   13.53508   18.14401 
 C                     19.23992   13.44682   18.75654 
 C                     13.10548   14.40626   19.04983 
 C                     12.49703   13.87621   20.23091 
 C                     17.99541   12.60306   18.55489 
 C                     12.58248   12.51958   20.53355 
 C                     13.37431   11.66487   19.68795 
 C                     13.91125   12.15928   18.51543 
 C                     15.27331   11.8455   18.16035 
 C                     19.23304   13.27283   21.37224 
 C                     19.42472   13.9268   20.18372 
 C                     16.09892   11.20383   19.07388 
 C                     19.41928   15.36084   20.17965 
 C                     15.52309   10.63279   20.24949 
 C                     18.92353   15.85572   18.94443 
 C                     16.51265   10.62185   21.26437 
 C                     16.10901   10.74539   22.5685 
 C                     16.92553   11.50178   23.499 
 C                     18.08746   12.0808   23.05912 
 C                     18.45135   13.34515   23.58666 
 C                     18.26501   17.16038   21.33451 
 C                     17.59945   17.14948   22.59121 
 C                     18.21711   16.14748   23.42252 
 C                     17.46385   15.4528   24.34861 
 C                     17.63745   14.03185   24.49306 
 C                     16.37898   13.46418   24.86437 
 C                     16.042    12.2032   24.38903 
 C                     14.68748   11.92269   23.98993 
 C                     14.73101   10.98886   22.89503 
 C                     13.77129   11.04881   21.89259 
 C                     14.16743   10.81772   20.53848 
 H                     15.15166   18.29081   18.40701 
 H                     17.12846   17.72432   17.1328 
 H                     19.71595   14.92138   17.1404 
 H                     20.12976   12.9089   18.41286 
 H                     18.42851   10.11224   20.47089 
 H                     19.66143   11.25413   21.87649 
 
 ITRead=  0  0  0  0  0  0  0  0  0  0  0  0  0  0  0  0  0  0  0  0
 ITRead=  0  0  0  0  0  0  0  0  0  0  0  0  0  0  0  0  0  0  0  0
 ITRead=  0  0  0  0  0  0  0  0  0  0  0  0  0  0  0  0  0  0  0  0
 ITRead=  0  0  0  0  0  0  0  0  0  0  0  0
 MicOpt= -1 -1 -1 -1 -1 -1 -1 -1 -1 -1 -1 -1 -1 -1 -1 -1 -1 -1 -1 -1
 MicOpt= -1 -1 -1 -1 -1 -1 -1 -1 -1 -1 -1 -1 -1 -1 -1 -1 -1 -1 -1 -1
 MicOpt= -1 -1 -1 -1 -1 -1 -1 -1 -1 -1 -1 -1 -1 -1 -1 -1 -1 -1 -1 -1
 MicOpt= -1 -1 -1 -1 -1 -1 -1 -1 -1 -1 -1 -1
 NAtoms=     72 NQM=       72 NQMF=       0 NMMI=      0 NMMIF=      0
                NMic=       0 NMicF=      0.
                    Isotopes and Nuclear Properties:
 (Nuclear quadrupole moments (NQMom) in fm**2, nuclear magnetic moments (NMagM)
  in nuclear magnetons)

  Atom         1           2           3           4           5           6           7           8           9          10
 IAtWgt=          12          12          12          12          12          12          12          12          12          12
 AtmWgt=  12.0000000  12.0000000  12.0000000  12.0000000  12.0000000  12.0000000  12.0000000  12.0000000  12.0000000  12.0000000
 NucSpn=           0           0           0           0           0           0           0           0           0           0
 AtZEff=  -0.0000000  -0.0000000  -0.0000000  -0.0000000  -0.0000000  -0.0000000  -0.0000000  -0.0000000  -0.0000000  -0.0000000
 NQMom=    0.0000000   0.0000000   0.0000000   0.0000000   0.0000000   0.0000000   0.0000000   0.0000000   0.0000000   0.0000000
 NMagM=    0.0000000   0.0000000   0.0000000   0.0000000   0.0000000   0.0000000   0.0000000   0.0000000   0.0000000   0.0000000
 AtZNuc=   6.0000000   6.0000000   6.0000000   6.0000000   6.0000000   6.0000000   6.0000000   6.0000000   6.0000000   6.0000000

  Atom        11          12          13          14          15          16          17          18          19          20
 IAtWgt=          12          12          12          12          12          12          12          12          12          12
 AtmWgt=  12.0000000  12.0000000  12.0000000  12.0000000  12.0000000  12.0000000  12.0000000  12.0000000  12.0000000  12.0000000
 NucSpn=           0           0           0           0           0           0           0           0           0           0
 AtZEff=  -0.0000000  -0.0000000  -0.0000000  -0.0000000  -0.0000000  -0.0000000  -0.0000000  -0.0000000  -0.0000000  -0.0000000
 NQMom=    0.0000000   0.0000000   0.0000000   0.0000000   0.0000000   0.0000000   0.0000000   0.0000000   0.0000000   0.0000000
 NMagM=    0.0000000   0.0000000   0.0000000   0.0000000   0.0000000   0.0000000   0.0000000   0.0000000   0.0000000   0.0000000
 AtZNuc=   6.0000000   6.0000000   6.0000000   6.0000000   6.0000000   6.0000000   6.0000000   6.0000000   6.0000000   6.0000000

  Atom        21          22          23          24          25          26          27          28          29          30
 IAtWgt=          12          12          12          12          12          12          12          12          12          12
 AtmWgt=  12.0000000  12.0000000  12.0000000  12.0000000  12.0000000  12.0000000  12.0000000  12.0000000  12.0000000  12.0000000
 NucSpn=           0           0           0           0           0           0           0           0           0           0
 AtZEff=  -0.0000000  -0.0000000  -0.0000000  -0.0000000  -0.0000000  -0.0000000  -0.0000000  -0.0000000  -0.0000000  -0.0000000
 NQMom=    0.0000000   0.0000000   0.0000000   0.0000000   0.0000000   0.0000000   0.0000000   0.0000000   0.0000000   0.0000000
 NMagM=    0.0000000   0.0000000   0.0000000   0.0000000   0.0000000   0.0000000   0.0000000   0.0000000   0.0000000   0.0000000
 AtZNuc=   6.0000000   6.0000000   6.0000000   6.0000000   6.0000000   6.0000000   6.0000000   6.0000000   6.0000000   6.0000000

  Atom        31          32          33          34          35          36          37          38          39          40
 IAtWgt=          12          12          12          12          12          12          12          12          12          12
 AtmWgt=  12.0000000  12.0000000  12.0000000  12.0000000  12.0000000  12.0000000  12.0000000  12.0000000  12.0000000  12.0000000
 NucSpn=           0           0           0           0           0           0           0           0           0           0
 AtZEff=  -0.0000000  -0.0000000  -0.0000000  -0.0000000  -0.0000000  -0.0000000  -0.0000000  -0.0000000  -0.0000000  -0.0000000
 NQMom=    0.0000000   0.0000000   0.0000000   0.0000000   0.0000000   0.0000000   0.0000000   0.0000000   0.0000000   0.0000000
 NMagM=    0.0000000   0.0000000   0.0000000   0.0000000   0.0000000   0.0000000   0.0000000   0.0000000   0.0000000   0.0000000
 AtZNuc=   6.0000000   6.0000000   6.0000000   6.0000000   6.0000000   6.0000000   6.0000000   6.0000000   6.0000000   6.0000000

  Atom        41          42          43          44          45          46          47          48          49          50
 IAtWgt=          12          12          12          12          12          12          12          12          12          12
 AtmWgt=  12.0000000  12.0000000  12.0000000  12.0000000  12.0000000  12.0000000  12.0000000  12.0000000  12.0000000  12.0000000
 NucSpn=           0           0           0           0           0           0           0           0           0           0
 AtZEff=  -0.0000000  -0.0000000  -0.0000000  -0.0000000  -0.0000000  -0.0000000  -0.0000000  -0.0000000  -0.0000000  -0.0000000
 NQMom=    0.0000000   0.0000000   0.0000000   0.0000000   0.0000000   0.0000000   0.0000000   0.0000000   0.0000000   0.0000000
 NMagM=    0.0000000   0.0000000   0.0000000   0.0000000   0.0000000   0.0000000   0.0000000   0.0000000   0.0000000   0.0000000
 AtZNuc=   6.0000000   6.0000000   6.0000000   6.0000000   6.0000000   6.0000000   6.0000000   6.0000000   6.0000000   6.0000000

  Atom        51          52          53          54          55          56          57          58          59          60
 IAtWgt=          12          12          12          12          12          12          12          12          12          12
 AtmWgt=  12.0000000  12.0000000  12.0000000  12.0000000  12.0000000  12.0000000  12.0000000  12.0000000  12.0000000  12.0000000
 NucSpn=           0           0           0           0           0           0           0           0           0           0
 AtZEff=  -0.0000000  -0.0000000  -0.0000000  -0.0000000  -0.0000000  -0.0000000  -0.0000000  -0.0000000  -0.0000000  -0.0000000
 NQMom=    0.0000000   0.0000000   0.0000000   0.0000000   0.0000000   0.0000000   0.0000000   0.0000000   0.0000000   0.0000000
 NMagM=    0.0000000   0.0000000   0.0000000   0.0000000   0.0000000   0.0000000   0.0000000   0.0000000   0.0000000   0.0000000
 AtZNuc=   6.0000000   6.0000000   6.0000000   6.0000000   6.0000000   6.0000000   6.0000000   6.0000000   6.0000000   6.0000000

  Atom        61          62          63          64          65          66          67          68          69          70
 IAtWgt=          12          12          12          12          12          12           1           1           1           1
 AtmWgt=  12.0000000  12.0000000  12.0000000  12.0000000  12.0000000  12.0000000   1.0078250   1.0078250   1.0078250   1.0078250
 NucSpn=           0           0           0           0           0           0           1           1           1           1
 AtZEff=  -0.0000000  -0.0000000  -0.0000000  -0.0000000  -0.0000000  -0.0000000  -0.0000000  -0.0000000  -0.0000000  -0.0000000
 NQMom=    0.0000000   0.0000000   0.0000000   0.0000000   0.0000000   0.0000000   0.0000000   0.0000000   0.0000000   0.0000000
 NMagM=    0.0000000   0.0000000   0.0000000   0.0000000   0.0000000   0.0000000   2.7928460   2.7928460   2.7928460   2.7928460
 AtZNuc=   6.0000000   6.0000000   6.0000000   6.0000000   6.0000000   6.0000000   1.0000000   1.0000000   1.0000000   1.0000000

  Atom        71          72
 IAtWgt=           1           1
 AtmWgt=   1.0078250   1.0078250
 NucSpn=           1           1
 AtZEff=  -0.0000000  -0.0000000
 NQMom=    0.0000000   0.0000000
 NMagM=    2.7928460   2.7928460
 AtZNuc=   1.0000000   1.0000000
 Leave Link  101 at Tue Jul 19 23:18:19 2022, MaxMem=  1342177280 cpu:              27.4 elap:               0.6
 (Enter /home/mkliu/g16/l103.exe)

 GradGradGradGradGradGradGradGradGradGradGradGradGradGradGradGradGradGrad
 Berny optimization.
 Initialization pass.
                           ----------------------------
                           !    Initial Parameters    !
                           ! (Angstroms and Degrees)  !
 --------------------------                            --------------------------
 ! Name  Definition              Value          Derivative Info.                !
 --------------------------------------------------------------------------------
 ! R1    R(1,2)                  1.3856         estimate D2E/DX2                !
 ! R2    R(1,41)                 1.44           estimate D2E/DX2                !
 ! R3    R(1,65)                 1.4415         estimate D2E/DX2                !
 ! R4    R(2,3)                  1.4405         estimate D2E/DX2                !
 ! R5    R(2,8)                  1.4423         estimate D2E/DX2                !
 ! R6    R(3,4)                  1.389          estimate D2E/DX2                !
 ! R7    R(3,5)                  1.4266         estimate D2E/DX2                !
 ! R8    R(4,26)                 1.4483         estimate D2E/DX2                !
 ! R9    R(4,39)                 1.4323         estimate D2E/DX2                !
 ! R10   R(5,6)                  1.4405         estimate D2E/DX2                !
 ! R11   R(5,13)                 1.389          estimate D2E/DX2                !
 ! R12   R(6,8)                  1.4423         estimate D2E/DX2                !
 ! R13   R(6,9)                  1.3856         estimate D2E/DX2                !
 ! R14   R(7,10)                 1.573          estimate D2E/DX2                !
 ! R15   R(7,23)                 1.518          estimate D2E/DX2                !
 ! R16   R(7,28)                 1.518          estimate D2E/DX2                !
 ! R17   R(7,67)                 1.0953         estimate D2E/DX2                !
 ! R18   R(8,63)                 1.3907         estimate D2E/DX2                !
 ! R19   R(9,11)                 1.44           estimate D2E/DX2                !
 ! R20   R(9,61)                 1.4415         estimate D2E/DX2                !
 ! R21   R(10,21)                1.5013         estimate D2E/DX2                !
 ! R22   R(10,30)                1.5013         estimate D2E/DX2                !
 ! R23   R(10,68)                1.0919         estimate D2E/DX2                !
 ! R24   R(11,12)                1.3926         estimate D2E/DX2                !
 ! R25   R(11,59)                1.4397         estimate D2E/DX2                !
 ! R26   R(12,13)                1.4323         estimate D2E/DX2                !
 ! R27   R(12,15)                1.4304         estimate D2E/DX2                !
 ! R28   R(13,25)                1.4483         estimate D2E/DX2                !
 ! R29   R(14,16)                1.3885         estimate D2E/DX2                !
 ! R30   R(14,45)                1.4402         estimate D2E/DX2                !
 ! R31   R(14,55)                1.4282         estimate D2E/DX2                !
 ! R32   R(15,24)                1.4479         estimate D2E/DX2                !
 ! R33   R(15,57)                1.389          estimate D2E/DX2                !
 ! R34   R(16,17)                1.4185         estimate D2E/DX2                !
 ! R35   R(16,58)                1.4421         estimate D2E/DX2                !
 ! R36   R(17,48)                1.3867         estimate D2E/DX2                !
 ! R37   R(17,56)                1.4288         estimate D2E/DX2                !
 ! R38   R(18,19)                1.5345         estimate D2E/DX2                !
 ! R39   R(18,40)                1.37           estimate D2E/DX2                !
 ! R40   R(18,47)                1.4402         estimate D2E/DX2                !
 ! R41   R(19,20)                1.5766         estimate D2E/DX2                !
 ! R42   R(19,51)                1.527          estimate D2E/DX2                !
 ! R43   R(19,71)                1.0987         estimate D2E/DX2                !
 ! R44   R(20,45)                1.5347         estimate D2E/DX2                !
 ! R45   R(20,54)                1.5268         estimate D2E/DX2                !
 ! R46   R(20,72)                1.0987         estimate D2E/DX2                !
 ! R47   R(21,22)                1.4225         estimate D2E/DX2                !
 ! R48   R(21,50)                1.3694         estimate D2E/DX2                !
 ! R49   R(22,23)                1.429          estimate D2E/DX2                !
 ! R50   R(22,56)                1.3886         estimate D2E/DX2                !
 ! R51   R(23,24)                1.38           estimate D2E/DX2                !
 ! R52   R(24,25)                1.472          estimate D2E/DX2                !
 ! R53   R(25,26)                1.3874         estimate D2E/DX2                !
 ! R54   R(26,27)                1.472          estimate D2E/DX2                !
 ! R55   R(27,28)                1.3801         estimate D2E/DX2                !
 ! R56   R(27,38)                1.4479         estimate D2E/DX2                !
 ! R57   R(28,29)                1.429          estimate D2E/DX2                !
 ! R58   R(29,30)                1.4225         estimate D2E/DX2                !
 ! R59   R(29,35)                1.3886         estimate D2E/DX2                !
 ! R60   R(30,31)                1.3694         estimate D2E/DX2                !
 ! R61   R(31,32)                1.42           estimate D2E/DX2                !
 ! R62   R(31,33)                1.5005         estimate D2E/DX2                !
 ! R63   R(32,34)                1.3866         estimate D2E/DX2                !
 ! R64   R(32,40)                1.4341         estimate D2E/DX2                !
 ! R65   R(33,37)                1.5733         estimate D2E/DX2                !
 ! R66   R(33,50)                1.5004         estimate D2E/DX2                !
 ! R67   R(33,69)                1.0919         estimate D2E/DX2                !
 ! R68   R(34,35)                1.4288         estimate D2E/DX2                !
 ! R69   R(34,44)                1.4185         estimate D2E/DX2                !
 ! R70   R(35,36)                1.4221         estimate D2E/DX2                !
 ! R71   R(36,38)                1.389          estimate D2E/DX2                !
 ! R72   R(36,43)                1.4411         estimate D2E/DX2                !
 ! R73   R(37,40)                1.517          estimate D2E/DX2                !
 ! R74   R(37,46)                1.517          estimate D2E/DX2                !
 ! R75   R(37,70)                1.0951         estimate D2E/DX2                !
 ! R76   R(38,39)                1.4304         estimate D2E/DX2                !
 ! R77   R(39,41)                1.3926         estimate D2E/DX2                !
 ! R78   R(41,42)                1.4396         estimate D2E/DX2                !
 ! R79   R(42,43)                1.3811         estimate D2E/DX2                !
 ! R80   R(42,66)                1.4388         estimate D2E/DX2                !
 ! R81   R(43,44)                1.4421         estimate D2E/DX2                !
 ! R82   R(44,47)                1.3885         estimate D2E/DX2                !
 ! R83   R(45,46)                1.37           estimate D2E/DX2                !
 ! R84   R(46,48)                1.4341         estimate D2E/DX2                !
 ! R85   R(47,49)                1.4282         estimate D2E/DX2                !
 ! R86   R(48,50)                1.42           estimate D2E/DX2                !
 ! R87   R(49,51)                1.4175         estimate D2E/DX2                !
 ! R88   R(49,66)                1.3984         estimate D2E/DX2                !
 ! R89   R(51,52)                1.3707         estimate D2E/DX2                !
 ! R90   R(52,53)                1.4507         estimate D2E/DX2                !
 ! R91   R(52,64)                1.4369         estimate D2E/DX2                !
 ! R92   R(53,54)                1.3707         estimate D2E/DX2                !
 ! R93   R(53,62)                1.4369         estimate D2E/DX2                !
 ! R94   R(54,55)                1.4175         estimate D2E/DX2                !
 ! R95   R(55,60)                1.3984         estimate D2E/DX2                !
 ! R96   R(56,57)                1.4221         estimate D2E/DX2                !
 ! R97   R(57,58)                1.441          estimate D2E/DX2                !
 ! R98   R(58,59)                1.3812         estimate D2E/DX2                !
 ! R99   R(59,60)                1.4388         estimate D2E/DX2                !
 ! R100  R(60,61)                1.4296         estimate D2E/DX2                !
 ! R101  R(61,62)                1.3891         estimate D2E/DX2                !
 ! R102  R(62,63)                1.4397         estimate D2E/DX2                !
 ! R103  R(63,64)                1.4397         estimate D2E/DX2                !
 ! R104  R(64,65)                1.3891         estimate D2E/DX2                !
 ! R105  R(65,66)                1.4297         estimate D2E/DX2                !
 ! A1    A(2,1,41)             119.6564         estimate D2E/DX2                !
 ! A2    A(2,1,65)             119.7411         estimate D2E/DX2                !
 ! A3    A(41,1,65)            107.841          estimate D2E/DX2                !
 ! A4    A(1,2,3)              119.8658         estimate D2E/DX2                !
 ! A5    A(1,2,8)              120.3263         estimate D2E/DX2                !
 ! A6    A(3,2,8)              107.5535         estimate D2E/DX2                !
 ! A7    A(2,3,4)              120.694          estimate D2E/DX2                !
 ! A8    A(2,3,5)              108.3578         estimate D2E/DX2                !
 ! A9    A(4,3,5)              118.8115         estimate D2E/DX2                !
 ! A10   A(3,4,26)             122.7156         estimate D2E/DX2                !
 ! A11   A(3,4,39)             118.7201         estimate D2E/DX2                !
 ! A12   A(26,4,39)            109.1628         estimate D2E/DX2                !
 ! A13   A(3,5,6)              108.3585         estimate D2E/DX2                !
 ! A14   A(3,5,13)             118.8106         estimate D2E/DX2                !
 ! A15   A(6,5,13)             120.693          estimate D2E/DX2                !
 ! A16   A(5,6,8)              107.5529         estimate D2E/DX2                !
 ! A17   A(5,6,9)              119.8657         estimate D2E/DX2                !
 ! A18   A(8,6,9)              120.3283         estimate D2E/DX2                !
 ! A19   A(10,7,23)            104.6003         estimate D2E/DX2                !
 ! A20   A(10,7,28)            104.6061         estimate D2E/DX2                !
 ! A21   A(10,7,67)            112.4768         estimate D2E/DX2                !
 ! A22   A(23,7,28)            114.2376         estimate D2E/DX2                !
 ! A23   A(23,7,67)            110.3589         estimate D2E/DX2                !
 ! A24   A(28,7,67)            110.3577         estimate D2E/DX2                !
 ! A25   A(2,8,6)              108.0172         estimate D2E/DX2                !
 ! A26   A(2,8,63)             119.6578         estimate D2E/DX2                !
 ! A27   A(6,8,63)             119.6591         estimate D2E/DX2                !
 ! A28   A(6,9,11)             119.6583         estimate D2E/DX2                !
 ! A29   A(6,9,61)             119.737          estimate D2E/DX2                !
 ! A30   A(11,9,61)            107.8429         estimate D2E/DX2                !
 ! A31   A(7,10,21)            104.7373         estimate D2E/DX2                !
 ! A32   A(7,10,30)            104.7338         estimate D2E/DX2                !
 ! A33   A(7,10,68)            113.0419         estimate D2E/DX2                !
 ! A34   A(21,10,30)           106.2131         estimate D2E/DX2                !
 ! A35   A(21,10,68)           113.6301         estimate D2E/DX2                !
 ! A36   A(30,10,68)           113.6312         estimate D2E/DX2                !
 ! A37   A(9,11,12)            119.7133         estimate D2E/DX2                !
 ! A38   A(9,11,59)            107.7985         estimate D2E/DX2                !
 ! A39   A(12,11,59)           118.9725         estimate D2E/DX2                !
 ! A40   A(11,12,13)           120.8133         estimate D2E/DX2                !
 ! A41   A(11,12,15)           120.9527         estimate D2E/DX2                !
 ! A42   A(13,12,15)           107.5165         estimate D2E/DX2                !
 ! A43   A(5,13,12)            118.7209         estimate D2E/DX2                !
 ! A44   A(5,13,25)            122.7145         estimate D2E/DX2                !
 ! A45   A(12,13,25)           109.165          estimate D2E/DX2                !
 ! A46   A(16,14,45)           123.0976         estimate D2E/DX2                !
 ! A47   A(16,14,55)           119.1124         estimate D2E/DX2                !
 ! A48   A(45,14,55)           109.9854         estimate D2E/DX2                !
 ! A49   A(12,15,24)           109.6136         estimate D2E/DX2                !
 ! A50   A(12,15,57)           119.1593         estimate D2E/DX2                !
 ! A51   A(24,15,57)           122.0463         estimate D2E/DX2                !
 ! A52   A(14,16,17)           117.592          estimate D2E/DX2                !
 ! A53   A(14,16,58)           120.0137         estimate D2E/DX2                !
 ! A54   A(17,16,58)           108.45           estimate D2E/DX2                !
 ! A55   A(16,17,48)           119.4017         estimate D2E/DX2                !
 ! A56   A(16,17,56)           108.0979         estimate D2E/DX2                !
 ! A57   A(48,17,56)           119.3129         estimate D2E/DX2                !
 ! A58   A(19,18,40)           132.3491         estimate D2E/DX2                !
 ! A59   A(19,18,47)           107.9082         estimate D2E/DX2                !
 ! A60   A(40,18,47)           118.3299         estimate D2E/DX2                !
 ! A61   A(18,19,20)           121.1999         estimate D2E/DX2                !
 ! A62   A(18,19,51)           100.979          estimate D2E/DX2                !
 ! A63   A(18,19,71)           106.3697         estimate D2E/DX2                !
 ! A64   A(20,19,51)           113.5768         estimate D2E/DX2                !
 ! A65   A(20,19,71)           106.2353         estimate D2E/DX2                !
 ! A66   A(51,19,71)           107.7148         estimate D2E/DX2                !
 ! A67   A(19,20,45)           121.1908         estimate D2E/DX2                !
 ! A68   A(19,20,54)           113.5818         estimate D2E/DX2                !
 ! A69   A(19,20,72)           106.2312         estimate D2E/DX2                !
 ! A70   A(45,20,54)           100.9779         estimate D2E/DX2                !
 ! A71   A(45,20,72)           106.3763         estimate D2E/DX2                !
 ! A72   A(54,20,72)           107.7191         estimate D2E/DX2                !
 ! A73   A(10,21,22)           108.9663         estimate D2E/DX2                !
 ! A74   A(10,21,50)           123.9715         estimate D2E/DX2                !
 ! A75   A(22,21,50)           119.6238         estimate D2E/DX2                !
 ! A76   A(21,22,23)           110.3206         estimate D2E/DX2                !
 ! A77   A(21,22,56)           119.4238         estimate D2E/DX2                !
 ! A78   A(23,22,56)           122.0372         estimate D2E/DX2                !
 ! A79   A(7,23,22)            108.5846         estimate D2E/DX2                !
 ! A80   A(7,23,24)            130.1513         estimate D2E/DX2                !
 ! A81   A(22,23,24)           118.4853         estimate D2E/DX2                !
 ! A82   A(15,24,23)           118.7991         estimate D2E/DX2                !
 ! A83   A(15,24,25)           106.5249         estimate D2E/DX2                !
 ! A84   A(23,24,25)           129.2215         estimate D2E/DX2                !
 ! A85   A(13,25,24)           107.0375         estimate D2E/DX2                !
 ! A86   A(13,25,26)           118.4069         estimate D2E/DX2                !
 ! A87   A(24,25,26)           127.4446         estimate D2E/DX2                !
 ! A88   A(4,26,25)            118.4041         estimate D2E/DX2                !
 ! A89   A(4,26,27)            107.0389         estimate D2E/DX2                !
 ! A90   A(25,26,27)           127.446          estimate D2E/DX2                !
 ! A91   A(26,27,28)           129.2164         estimate D2E/DX2                !
 ! A92   A(26,27,38)           106.5235         estimate D2E/DX2                !
 ! A93   A(28,27,38)           118.7955         estimate D2E/DX2                !
 ! A94   A(7,28,27)            130.1536         estimate D2E/DX2                !
 ! A95   A(7,28,29)            108.579          estimate D2E/DX2                !
 ! A96   A(27,28,29)           118.4881         estimate D2E/DX2                !
 ! A97   A(28,29,30)           110.3233         estimate D2E/DX2                !
 ! A98   A(28,29,35)           122.0364         estimate D2E/DX2                !
 ! A99   A(30,29,35)           119.4216         estimate D2E/DX2                !
 ! A100  A(10,30,29)           108.9676         estimate D2E/DX2                !
 ! A101  A(10,30,31)           123.9691         estimate D2E/DX2                !
 ! A102  A(29,30,31)           119.6271         estimate D2E/DX2                !
 ! A103  A(30,31,32)           119.7114         estimate D2E/DX2                !
 ! A104  A(30,31,33)           124.1414         estimate D2E/DX2                !
 ! A105  A(32,31,33)           108.8739         estimate D2E/DX2                !
 ! A106  A(31,32,34)           119.2731         estimate D2E/DX2                !
 ! A107  A(31,32,40)           110.6277         estimate D2E/DX2                !
 ! A108  A(34,32,40)           122.3372         estimate D2E/DX2                !
 ! A109  A(31,33,37)           104.8762         estimate D2E/DX2                !
 ! A110  A(31,33,50)           105.995          estimate D2E/DX2                !
 ! A111  A(31,33,69)           113.6008         estimate D2E/DX2                !
 ! A112  A(37,33,50)           104.8729         estimate D2E/DX2                !
 ! A113  A(37,33,69)           113.0534         estimate D2E/DX2                !
 ! A114  A(50,33,69)           113.6011         estimate D2E/DX2                !
 ! A115  A(32,34,35)           119.314          estimate D2E/DX2                !
 ! A116  A(32,34,44)           119.4            estimate D2E/DX2                !
 ! A117  A(35,34,44)           108.099          estimate D2E/DX2                !
 ! A118  A(29,35,34)           118.7851         estimate D2E/DX2                !
 ! A119  A(29,35,36)           119.8164         estimate D2E/DX2                !
 ! A120  A(34,35,36)           108.0743         estimate D2E/DX2                !
 ! A121  A(35,36,38)           117.9085         estimate D2E/DX2                !
 ! A122  A(35,36,43)           108.3302         estimate D2E/DX2                !
 ! A123  A(38,36,43)           119.6034         estimate D2E/DX2                !
 ! A124  A(33,37,40)           104.7356         estimate D2E/DX2                !
 ! A125  A(33,37,46)           104.7393         estimate D2E/DX2                !
 ! A126  A(33,37,70)           112.3166         estimate D2E/DX2                !
 ! A127  A(40,37,46)           113.6384         estimate D2E/DX2                !
 ! A128  A(40,37,70)           110.5896         estimate D2E/DX2                !
 ! A129  A(46,37,70)           110.5899         estimate D2E/DX2                !
 ! A130  A(27,38,36)           122.049          estimate D2E/DX2                !
 ! A131  A(27,38,39)           109.6132         estimate D2E/DX2                !
 ! A132  A(36,38,39)           119.1569         estimate D2E/DX2                !
 ! A133  A(4,39,38)            107.5185         estimate D2E/DX2                !
 ! A134  A(4,39,41)            120.8121         estimate D2E/DX2                !
 ! A135  A(38,39,41)           120.9519         estimate D2E/DX2                !
 ! A136  A(18,40,32)           118.64           estimate D2E/DX2                !
 ! A137  A(18,40,37)           130.3882         estimate D2E/DX2                !
 ! A138  A(32,40,37)           108.2586         estimate D2E/DX2                !
 ! A139  A(1,41,39)            119.7169         estimate D2E/DX2                !
 ! A140  A(1,41,42)            107.8017         estimate D2E/DX2                !
 ! A141  A(39,41,42)           118.9777         estimate D2E/DX2                !
 ! A142  A(41,42,43)           119.996          estimate D2E/DX2                !
 ! A143  A(41,42,66)           107.7905         estimate D2E/DX2                !
 ! A144  A(43,42,66)           119.8892         estimate D2E/DX2                !
 ! A145  A(36,43,42)           120.1856         estimate D2E/DX2                !
 ! A146  A(36,43,44)           106.5367         estimate D2E/DX2                !
 ! A147  A(42,43,44)           119.8888         estimate D2E/DX2                !
 ! A148  A(34,44,43)           108.4488         estimate D2E/DX2                !
 ! A149  A(34,44,47)           117.5949         estimate D2E/DX2                !
 ! A150  A(43,44,47)           120.0101         estimate D2E/DX2                !
 ! A151  A(14,45,20)           107.9033         estimate D2E/DX2                !
 ! A152  A(14,45,46)           118.3324         estimate D2E/DX2                !
 ! A153  A(20,45,46)           132.346          estimate D2E/DX2                !
 ! A154  A(37,46,45)           130.3954         estimate D2E/DX2                !
 ! A155  A(37,46,48)           108.2559         estimate D2E/DX2                !
 ! A156  A(45,46,48)           118.6375         estimate D2E/DX2                !
 ! A157  A(18,47,44)           123.0959         estimate D2E/DX2                !
 ! A158  A(18,47,49)           109.9846         estimate D2E/DX2                !
 ! A159  A(44,47,49)           119.1178         estimate D2E/DX2                !
 ! A160  A(17,48,46)           122.3383         estimate D2E/DX2                !
 ! A161  A(17,48,50)           119.2724         estimate D2E/DX2                !
 ! A162  A(46,48,50)           110.6278         estimate D2E/DX2                !
 ! A163  A(47,49,51)           108.1175         estimate D2E/DX2                !
 ! A164  A(47,49,66)           120.5377         estimate D2E/DX2                !
 ! A165  A(51,49,66)           121.993          estimate D2E/DX2                !
 ! A166  A(21,50,33)           124.1396         estimate D2E/DX2                !
 ! A167  A(21,50,48)           119.7139         estimate D2E/DX2                !
 ! A168  A(33,50,48)           108.8761         estimate D2E/DX2                !
 ! A169  A(19,51,49)           110.5247         estimate D2E/DX2                !
 ! A170  A(19,51,52)           126.3436         estimate D2E/DX2                !
 ! A171  A(49,51,52)           118.3533         estimate D2E/DX2                !
 ! A172  A(51,52,53)           119.4381         estimate D2E/DX2                !
 ! A173  A(51,52,64)           120.9213         estimate D2E/DX2                !
 ! A174  A(53,52,64)           107.7974         estimate D2E/DX2                !
 ! A175  A(52,53,54)           119.4399         estimate D2E/DX2                !
 ! A176  A(52,53,62)           107.8016         estimate D2E/DX2                !
 ! A177  A(54,53,62)           120.9166         estimate D2E/DX2                !
 ! A178  A(20,54,53)           126.3455         estimate D2E/DX2                !
 ! A179  A(20,54,55)           110.5312         estimate D2E/DX2                !
 ! A180  A(53,54,55)           118.3569         estimate D2E/DX2                !
 ! A181  A(14,55,54)           108.1149         estimate D2E/DX2                !
 ! A182  A(14,55,60)           120.5416         estimate D2E/DX2                !
 ! A183  A(54,55,60)           121.9931         estimate D2E/DX2                !
 ! A184  A(17,56,22)           118.785          estimate D2E/DX2                !
 ! A185  A(17,56,57)           108.0744         estimate D2E/DX2                !
 ! A186  A(22,56,57)           119.8164         estimate D2E/DX2                !
 ! A187  A(15,57,56)           117.9079         estimate D2E/DX2                !
 ! A188  A(15,57,58)           119.6022         estimate D2E/DX2                !
 ! A189  A(56,57,58)           108.3314         estimate D2E/DX2                !
 ! A190  A(16,58,57)           106.5351         estimate D2E/DX2                !
 ! A191  A(16,58,59)           119.8913         estimate D2E/DX2                !
 ! A192  A(57,58,59)           120.1838         estimate D2E/DX2                !
 ! A193  A(11,59,58)           119.9996         estimate D2E/DX2                !
 ! A194  A(11,59,60)           107.7916         estimate D2E/DX2                !
 ! A195  A(58,59,60)           119.8839         estimate D2E/DX2                !
 ! A196  A(55,60,59)           119.3485         estimate D2E/DX2                !
 ! A197  A(55,60,61)           119.0581         estimate D2E/DX2                !
 ! A198  A(59,60,61)           108.1805         estimate D2E/DX2                !
 ! A199  A(9,61,60)            108.045          estimate D2E/DX2                !
 ! A200  A(9,61,62)            120.0216         estimate D2E/DX2                !
 ! A201  A(60,61,62)           119.02           estimate D2E/DX2                !
 ! A202  A(53,62,61)           120.3922         estimate D2E/DX2                !
 ! A203  A(53,62,63)           108.1607         estimate D2E/DX2                !
 ! A204  A(61,62,63)           119.9978         estimate D2E/DX2                !
 ! A205  A(8,63,62)            119.9796         estimate D2E/DX2                !
 ! A206  A(8,63,64)            119.9824         estimate D2E/DX2                !
 ! A207  A(62,63,64)           107.9841         estimate D2E/DX2                !
 ! A208  A(52,64,63)           108.1626         estimate D2E/DX2                !
 ! A209  A(52,64,65)           120.3902         estimate D2E/DX2                !
 ! A210  A(63,64,65)           119.9962         estimate D2E/DX2                !
 ! A211  A(1,65,64)            120.02           estimate D2E/DX2                !
 ! A212  A(1,65,66)            108.0456         estimate D2E/DX2                !
 ! A213  A(64,65,66)           119.0195         estimate D2E/DX2                !
 ! A214  A(42,66,49)           119.3463         estimate D2E/DX2                !
 ! A215  A(42,66,65)           108.1793         estimate D2E/DX2                !
 ! A216  A(49,66,65)           119.0603         estimate D2E/DX2                !
 ! D1    D(41,1,2,3)            -3.4586         estimate D2E/DX2                !
 ! D2    D(41,1,2,8)          -141.0899         estimate D2E/DX2                !
 ! D3    D(65,1,2,3)           133.5414         estimate D2E/DX2                !
 ! D4    D(65,1,2,8)            -4.0899         estimate D2E/DX2                !
 ! D5    D(2,1,41,39)            4.7608         estimate D2E/DX2                !
 ! D6    D(2,1,41,42)          145.0394         estimate D2E/DX2                !
 ! D7    D(65,1,41,39)        -136.7712         estimate D2E/DX2                !
 ! D8    D(65,1,41,42)           3.5074         estimate D2E/DX2                !
 ! D9    D(2,1,65,64)           -0.3916         estimate D2E/DX2                !
 ! D10   D(2,1,65,66)         -141.4243         estimate D2E/DX2                !
 ! D11   D(41,1,65,64)         141.1019         estimate D2E/DX2                !
 ! D12   D(41,1,65,66)           0.0693         estimate D2E/DX2                !
 ! D13   D(1,2,3,4)             -2.8928         estimate D2E/DX2                !
 ! D14   D(1,2,3,5)           -144.8435         estimate D2E/DX2                !
 ! D15   D(8,2,3,4)            139.511          estimate D2E/DX2                !
 ! D16   D(8,2,3,5)             -2.4398         estimate D2E/DX2                !
 ! D17   D(1,2,8,6)            146.1398         estimate D2E/DX2                !
 ! D18   D(1,2,8,63)             4.5114         estimate D2E/DX2                !
 ! D19   D(3,2,8,6)              3.9424         estimate D2E/DX2                !
 ! D20   D(3,2,8,63)          -137.6861         estimate D2E/DX2                !
 ! D21   D(2,3,4,26)          -135.0578         estimate D2E/DX2                !
 ! D22   D(2,3,4,39)             7.7731         estimate D2E/DX2                !
 ! D23   D(5,3,4,26)             3.0589         estimate D2E/DX2                !
 ! D24   D(5,3,4,39)           145.8897         estimate D2E/DX2                !
 ! D25   D(2,3,5,6)             -0.0001         estimate D2E/DX2                !
 ! D26   D(2,3,5,13)           142.7784         estimate D2E/DX2                !
 ! D27   D(4,3,5,6)           -142.7806         estimate D2E/DX2                !
 ! D28   D(4,3,5,13)            -0.0021         estimate D2E/DX2                !
 ! D29   D(3,4,26,25)           -3.0434         estimate D2E/DX2                !
 ! D30   D(3,4,26,27)          149.6667         estimate D2E/DX2                !
 ! D31   D(39,4,26,25)        -148.9237         estimate D2E/DX2                !
 ! D32   D(39,4,26,27)           3.7864         estimate D2E/DX2                !
 ! D33   D(3,4,39,38)         -151.1591         estimate D2E/DX2                !
 ! D34   D(3,4,39,41)           -6.4501         estimate D2E/DX2                !
 ! D35   D(26,4,39,38)          -3.7166         estimate D2E/DX2                !
 ! D36   D(26,4,39,41)         140.9924         estimate D2E/DX2                !
 ! D37   D(3,5,6,8)              2.4399         estimate D2E/DX2                !
 ! D38   D(3,5,6,9)            144.8462         estimate D2E/DX2                !
 ! D39   D(13,5,6,8)          -139.5089         estimate D2E/DX2                !
 ! D40   D(13,5,6,9)             2.8975         estimate D2E/DX2                !
 ! D41   D(3,5,13,12)         -145.8931         estimate D2E/DX2                !
 ! D42   D(3,5,13,25)           -3.058          estimate D2E/DX2                !
 ! D43   D(6,5,13,12)           -7.7781         estimate D2E/DX2                !
 ! D44   D(6,5,13,25)          135.057          estimate D2E/DX2                !
 ! D45   D(5,6,8,2)             -3.9424         estimate D2E/DX2                !
 ! D46   D(5,6,8,63)           137.6854         estimate D2E/DX2                !
 ! D47   D(9,6,8,2)           -146.1415         estimate D2E/DX2                !
 ! D48   D(9,6,8,63)            -4.5137         estimate D2E/DX2                !
 ! D49   D(5,6,9,11)             3.4622         estimate D2E/DX2                !
 ! D50   D(5,6,9,61)          -133.5382         estimate D2E/DX2                !
 ! D51   D(8,6,9,11)           141.0954         estimate D2E/DX2                !
 ! D52   D(8,6,9,61)             4.0949         estimate D2E/DX2                !
 ! D53   D(23,7,10,21)           4.4198         estimate D2E/DX2                !
 ! D54   D(23,7,10,30)         115.9935         estimate D2E/DX2                !
 ! D55   D(23,7,10,68)        -119.7939         estimate D2E/DX2                !
 ! D56   D(28,7,10,21)        -115.9959         estimate D2E/DX2                !
 ! D57   D(28,7,10,30)          -4.4222         estimate D2E/DX2                !
 ! D58   D(28,7,10,68)         119.7904         estimate D2E/DX2                !
 ! D59   D(67,7,10,21)         124.2108         estimate D2E/DX2                !
 ! D60   D(67,7,10,30)        -124.2155         estimate D2E/DX2                !
 ! D61   D(67,7,10,68)          -0.0028         estimate D2E/DX2                !
 ! D62   D(10,7,23,22)           5.8078         estimate D2E/DX2                !
 ! D63   D(10,7,23,24)        -154.5752         estimate D2E/DX2                !
 ! D64   D(28,7,23,22)         119.5769         estimate D2E/DX2                !
 ! D65   D(28,7,23,24)         -40.8061         estimate D2E/DX2                !
 ! D66   D(67,7,23,22)        -115.3939         estimate D2E/DX2                !
 ! D67   D(67,7,23,24)          84.2231         estimate D2E/DX2                !
 ! D68   D(10,7,28,27)         154.5778         estimate D2E/DX2                !
 ! D69   D(10,7,28,29)          -5.8036         estimate D2E/DX2                !
 ! D70   D(23,7,28,27)          40.8121         estimate D2E/DX2                !
 ! D71   D(23,7,28,29)        -119.5693         estimate D2E/DX2                !
 ! D72   D(67,7,28,27)         -84.2178         estimate D2E/DX2                !
 ! D73   D(67,7,28,29)         115.4009         estimate D2E/DX2                !
 ! D74   D(2,8,63,62)          137.6546         estimate D2E/DX2                !
 ! D75   D(2,8,63,64)           -0.4475         estimate D2E/DX2                !
 ! D76   D(6,8,63,62)            0.4452         estimate D2E/DX2                !
 ! D77   D(6,8,63,64)         -137.657          estimate D2E/DX2                !
 ! D78   D(6,9,11,12)           -4.7721         estimate D2E/DX2                !
 ! D79   D(6,9,11,59)         -145.0336         estimate D2E/DX2                !
 ! D80   D(61,9,11,12)         136.7579         estimate D2E/DX2                !
 ! D81   D(61,9,11,59)          -3.5036         estimate D2E/DX2                !
 ! D82   D(6,9,61,60)          141.4228         estimate D2E/DX2                !
 ! D83   D(6,9,61,62)            0.3882         estimate D2E/DX2                !
 ! D84   D(11,9,61,60)          -0.0715         estimate D2E/DX2                !
 ! D85   D(11,9,61,62)        -141.1061         estimate D2E/DX2                !
 ! D86   D(7,10,21,22)         -13.3224         estimate D2E/DX2                !
 ! D87   D(7,10,21,50)         136.1983         estimate D2E/DX2                !
 ! D88   D(30,10,21,22)       -123.8316         estimate D2E/DX2                !
 ! D89   D(30,10,21,50)         25.6891         estimate D2E/DX2                !
 ! D90   D(68,10,21,22)        110.5154         estimate D2E/DX2                !
 ! D91   D(68,10,21,50)        -99.9639         estimate D2E/DX2                !
 ! D92   D(7,10,30,29)          13.3225         estimate D2E/DX2                !
 ! D93   D(7,10,30,31)        -136.2035         estimate D2E/DX2                !
 ! D94   D(21,10,30,29)        123.8341         estimate D2E/DX2                !
 ! D95   D(21,10,30,31)        -25.6919         estimate D2E/DX2                !
 ! D96   D(68,10,30,29)       -110.5135         estimate D2E/DX2                !
 ! D97   D(68,10,30,31)         99.9605         estimate D2E/DX2                !
 ! D98   D(9,11,12,13)          -0.2033         estimate D2E/DX2                !
 ! D99   D(9,11,12,15)        -140.2303         estimate D2E/DX2                !
 ! D100  D(59,11,12,13)        135.709          estimate D2E/DX2                !
 ! D101  D(59,11,12,15)         -4.3181         estimate D2E/DX2                !
 ! D102  D(9,11,59,58)         147.8672         estimate D2E/DX2                !
 ! D103  D(9,11,59,60)           5.7295         estimate D2E/DX2                !
 ! D104  D(12,11,59,58)          7.2616         estimate D2E/DX2                !
 ! D105  D(12,11,59,60)       -134.8762         estimate D2E/DX2                !
 ! D106  D(11,12,13,5)           6.4473         estimate D2E/DX2                !
 ! D107  D(11,12,13,25)       -140.9979         estimate D2E/DX2                !
 ! D108  D(15,12,13,5)         151.1563         estimate D2E/DX2                !
 ! D109  D(15,12,13,25)          3.7112         estimate D2E/DX2                !
 ! D110  D(11,12,15,24)        142.4535         estimate D2E/DX2                !
 ! D111  D(11,12,15,57)         -5.0964         estimate D2E/DX2                !
 ! D112  D(13,12,15,24)         -2.1964         estimate D2E/DX2                !
 ! D113  D(13,12,15,57)       -149.7464         estimate D2E/DX2                !
 ! D114  D(5,13,25,24)        -149.6599         estimate D2E/DX2                !
 ! D115  D(5,13,25,26)           3.0499         estimate D2E/DX2                !
 ! D116  D(12,13,25,24)         -3.776          estimate D2E/DX2                !
 ! D117  D(12,13,25,26)        148.9337         estimate D2E/DX2                !
 ! D118  D(45,14,16,17)         -1.5188         estimate D2E/DX2                !
 ! D119  D(45,14,16,58)        134.0658         estimate D2E/DX2                !
 ! D120  D(55,14,16,17)       -147.6137         estimate D2E/DX2                !
 ! D121  D(55,14,16,58)        -12.0291         estimate D2E/DX2                !
 ! D122  D(16,14,45,20)       -160.6609         estimate D2E/DX2                !
 ! D123  D(16,14,45,46)          7.4103         estimate D2E/DX2                !
 ! D124  D(55,14,45,20)        -11.8977         estimate D2E/DX2                !
 ! D125  D(55,14,45,46)        156.1734         estimate D2E/DX2                !
 ! D126  D(16,14,55,54)        152.7749         estimate D2E/DX2                !
 ! D127  D(16,14,55,60)          5.6069         estimate D2E/DX2                !
 ! D128  D(45,14,55,54)          2.5933         estimate D2E/DX2                !
 ! D129  D(45,14,55,60)       -144.5747         estimate D2E/DX2                !
 ! D130  D(12,15,24,23)       -156.4353         estimate D2E/DX2                !
 ! D131  D(12,15,24,25)         -0.1223         estimate D2E/DX2                !
 ! D132  D(57,15,24,23)         -9.9946         estimate D2E/DX2                !
 ! D133  D(57,15,24,25)        146.3183         estimate D2E/DX2                !
 ! D134  D(12,15,57,56)        146.7611         estimate D2E/DX2                !
 ! D135  D(12,15,57,58)         11.5065         estimate D2E/DX2                !
 ! D136  D(24,15,57,56)          3.3661         estimate D2E/DX2                !
 ! D137  D(24,15,57,58)       -131.8885         estimate D2E/DX2                !
 ! D138  D(14,16,17,48)         -5.0274         estimate D2E/DX2                !
 ! D139  D(14,16,17,56)        135.8112         estimate D2E/DX2                !
 ! D140  D(58,16,17,48)       -145.3216         estimate D2E/DX2                !
 ! D141  D(58,16,17,56)         -4.4831         estimate D2E/DX2                !
 ! D142  D(14,16,58,57)       -132.1241         estimate D2E/DX2                !
 ! D143  D(14,16,58,59)          8.7346         estimate D2E/DX2                !
 ! D144  D(17,16,58,57)          7.0421         estimate D2E/DX2                !
 ! D145  D(17,16,58,59)        147.9008         estimate D2E/DX2                !
 ! D146  D(16,17,48,46)          5.9217         estimate D2E/DX2                !
 ! D147  D(16,17,48,50)        152.3183         estimate D2E/DX2                !
 ! D148  D(56,17,48,46)       -130.5739         estimate D2E/DX2                !
 ! D149  D(56,17,48,50)         15.8226         estimate D2E/DX2                !
 ! D150  D(16,17,56,22)       -140.8007         estimate D2E/DX2                !
 ! D151  D(16,17,56,57)          0.1022         estimate D2E/DX2                !
 ! D152  D(48,17,56,22)          0.0785         estimate D2E/DX2                !
 ! D153  D(48,17,56,57)        140.9814         estimate D2E/DX2                !
 ! D154  D(40,18,19,20)         23.9797         estimate D2E/DX2                !
 ! D155  D(40,18,19,51)        150.4081         estimate D2E/DX2                !
 ! D156  D(40,18,19,71)        -97.2562         estimate D2E/DX2                !
 ! D157  D(47,18,19,20)       -141.7965         estimate D2E/DX2                !
 ! D158  D(47,18,19,51)        -15.3681         estimate D2E/DX2                !
 ! D159  D(47,18,19,71)         96.9676         estimate D2E/DX2                !
 ! D160  D(19,18,40,32)       -158.1323         estimate D2E/DX2                !
 ! D161  D(19,18,40,37)          0.8196         estimate D2E/DX2                !
 ! D162  D(47,18,40,32)          6.464          estimate D2E/DX2                !
 ! D163  D(47,18,40,37)        165.4159         estimate D2E/DX2                !
 ! D164  D(19,18,47,44)        160.6717         estimate D2E/DX2                !
 ! D165  D(19,18,47,49)         11.9015         estimate D2E/DX2                !
 ! D166  D(40,18,47,44)         -7.4226         estimate D2E/DX2                !
 ! D167  D(40,18,47,49)       -156.1928         estimate D2E/DX2                !
 ! D168  D(18,19,20,45)         -0.0132         estimate D2E/DX2                !
 ! D169  D(18,19,20,54)        120.4615         estimate D2E/DX2                !
 ! D170  D(18,19,20,72)       -121.3129         estimate D2E/DX2                !
 ! D171  D(51,19,20,45)       -120.4926         estimate D2E/DX2                !
 ! D172  D(51,19,20,54)         -0.0178         estimate D2E/DX2                !
 ! D173  D(51,19,20,72)        118.2078         estimate D2E/DX2                !
 ! D174  D(71,19,20,45)        121.2873         estimate D2E/DX2                !
 ! D175  D(71,19,20,54)       -118.2379         estimate D2E/DX2                !
 ! D176  D(71,19,20,72)         -0.0124         estimate D2E/DX2                !
 ! D177  D(18,19,51,49)         14.2333         estimate D2E/DX2                !
 ! D178  D(18,19,51,52)       -140.5906         estimate D2E/DX2                !
 ! D179  D(20,19,51,49)        145.5642         estimate D2E/DX2                !
 ! D180  D(20,19,51,52)         -9.2597         estimate D2E/DX2                !
 ! D181  D(71,19,51,49)        -97.0726         estimate D2E/DX2                !
 ! D182  D(71,19,51,52)        108.1035         estimate D2E/DX2                !
 ! D183  D(19,20,45,14)        141.7983         estimate D2E/DX2                !
 ! D184  D(19,20,45,46)        -23.9512         estimate D2E/DX2                !
 ! D185  D(54,20,45,14)         15.3702         estimate D2E/DX2                !
 ! D186  D(54,20,45,46)       -150.3792         estimate D2E/DX2                !
 ! D187  D(72,20,45,14)        -96.972          estimate D2E/DX2                !
 ! D188  D(72,20,45,46)         97.2786         estimate D2E/DX2                !
 ! D189  D(19,20,54,53)          9.2923         estimate D2E/DX2                !
 ! D190  D(19,20,54,55)       -145.563          estimate D2E/DX2                !
 ! D191  D(45,20,54,53)        140.6141         estimate D2E/DX2                !
 ! D192  D(45,20,54,55)        -14.2412         estimate D2E/DX2                !
 ! D193  D(72,20,54,53)       -108.0716         estimate D2E/DX2                !
 ! D194  D(72,20,54,55)         97.073          estimate D2E/DX2                !
 ! D195  D(10,21,22,23)         17.8841         estimate D2E/DX2                !
 ! D196  D(10,21,22,56)        167.0118         estimate D2E/DX2                !
 ! D197  D(50,21,22,23)       -133.1753         estimate D2E/DX2                !
 ! D198  D(50,21,22,56)         15.9524         estimate D2E/DX2                !
 ! D199  D(10,21,50,33)          0.4061         estimate D2E/DX2                !
 ! D200  D(10,21,50,48)       -146.4224         estimate D2E/DX2                !
 ! D201  D(22,21,50,33)        146.9143         estimate D2E/DX2                !
 ! D202  D(22,21,50,48)          0.0858         estimate D2E/DX2                !
 ! D203  D(21,22,23,7)         -14.7521         estimate D2E/DX2                !
 ! D204  D(21,22,23,24)        148.2726         estimate D2E/DX2                !
 ! D205  D(56,22,23,7)        -162.9334         estimate D2E/DX2                !
 ! D206  D(56,22,23,24)          0.0914         estimate D2E/DX2                !
 ! D207  D(21,22,56,17)        -15.9161         estimate D2E/DX2                !
 ! D208  D(21,22,56,57)       -152.2077         estimate D2E/DX2                !
 ! D209  D(23,22,56,17)        129.498          estimate D2E/DX2                !
 ! D210  D(23,22,56,57)         -6.7936         estimate D2E/DX2                !
 ! D211  D(7,23,24,15)         166.7788         estimate D2E/DX2                !
 ! D212  D(7,23,24,25)          16.5906         estimate D2E/DX2                !
 ! D213  D(22,23,24,15)          8.0053         estimate D2E/DX2                !
 ! D214  D(22,23,24,25)       -142.183          estimate D2E/DX2                !
 ! D215  D(15,24,25,13)          2.3619         estimate D2E/DX2                !
 ! D216  D(15,24,25,26)       -147.1099         estimate D2E/DX2                !
 ! D217  D(23,24,25,13)        155.3336         estimate D2E/DX2                !
 ! D218  D(23,24,25,26)          5.8617         estimate D2E/DX2                !
 ! D219  D(13,25,26,4)          -0.0049         estimate D2E/DX2                !
 ! D220  D(13,25,26,27)       -146.4901         estimate D2E/DX2                !
 ! D221  D(24,25,26,4)         146.4803         estimate D2E/DX2                !
 ! D222  D(24,25,26,27)         -0.0049         estimate D2E/DX2                !
 ! D223  D(4,26,27,28)        -155.3211         estimate D2E/DX2                !
 ! D224  D(4,26,27,38)          -2.3733         estimate D2E/DX2                !
 ! D225  D(25,26,27,28)         -5.8503         estimate D2E/DX2                !
 ! D226  D(25,26,27,38)        147.0974         estimate D2E/DX2                !
 ! D227  D(26,27,28,7)         -16.6021         estimate D2E/DX2                !
 ! D228  D(26,27,28,29)        142.1684         estimate D2E/DX2                !
 ! D229  D(38,27,28,7)        -166.7644         estimate D2E/DX2                !
 ! D230  D(38,27,28,29)         -7.9939         estimate D2E/DX2                !
 ! D231  D(26,27,38,36)       -146.3089         estimate D2E/DX2                !
 ! D232  D(26,27,38,39)          0.1306         estimate D2E/DX2                !
 ! D233  D(28,27,38,36)          9.9825         estimate D2E/DX2                !
 ! D234  D(28,27,38,39)        156.4221         estimate D2E/DX2                !
 ! D235  D(7,28,29,30)          14.7478         estimate D2E/DX2                !
 ! D236  D(7,28,29,35)         162.9281         estimate D2E/DX2                !
 ! D237  D(27,28,29,30)       -148.2757         estimate D2E/DX2                !
 ! D238  D(27,28,29,35)         -0.0954         estimate D2E/DX2                !
 ! D239  D(28,29,30,10)        -17.8826         estimate D2E/DX2                !
 ! D240  D(28,29,30,31)        133.1799         estimate D2E/DX2                !
 ! D241  D(35,29,30,10)       -167.0098         estimate D2E/DX2                !
 ! D242  D(35,29,30,31)        -15.9473         estimate D2E/DX2                !
 ! D243  D(28,29,35,34)       -129.5011         estimate D2E/DX2                !
 ! D244  D(28,29,35,36)          6.7906         estimate D2E/DX2                !
 ! D245  D(30,29,35,34)         15.9135         estimate D2E/DX2                !
 ! D246  D(30,29,35,36)        152.2051         estimate D2E/DX2                !
 ! D247  D(10,30,31,32)        146.4224         estimate D2E/DX2                !
 ! D248  D(10,30,31,33)         -0.3993         estimate D2E/DX2                !
 ! D249  D(29,30,31,32)         -0.0908         estimate D2E/DX2                !
 ! D250  D(29,30,31,33)       -146.9125         estimate D2E/DX2                !
 ! D251  D(30,31,32,34)         15.9884         estimate D2E/DX2                !
 ! D252  D(30,31,32,40)       -134.0344         estimate D2E/DX2                !
 ! D253  D(33,31,32,34)        167.39           estimate D2E/DX2                !
 ! D254  D(33,31,32,40)         17.3672         estimate D2E/DX2                !
 ! D255  D(30,31,33,37)        136.9726         estimate D2E/DX2                !
 ! D256  D(30,31,33,50)         26.3373         estimate D2E/DX2                !
 ! D257  D(30,31,33,69)        -99.0953         estimate D2E/DX2                !
 ! D258  D(32,31,33,37)        -12.8745         estimate D2E/DX2                !
 ! D259  D(32,31,33,50)       -123.5098         estimate D2E/DX2                !
 ! D260  D(32,31,33,69)        111.0576         estimate D2E/DX2                !
 ! D261  D(31,32,34,35)        -15.823          estimate D2E/DX2                !
 ! D262  D(31,32,34,44)       -152.3197         estimate D2E/DX2                !
 ! D263  D(40,32,34,35)        130.5727         estimate D2E/DX2                !
 ! D264  D(40,32,34,44)         -5.924          estimate D2E/DX2                !
 ! D265  D(31,32,40,18)        148.884          estimate D2E/DX2                !
 ! D266  D(31,32,40,37)        -14.3743         estimate D2E/DX2                !
 ! D267  D(34,32,40,18)         -0.0618         estimate D2E/DX2                !
 ! D268  D(34,32,40,37)       -163.32           estimate D2E/DX2                !
 ! D269  D(31,33,37,40)          4.2094         estimate D2E/DX2                !
 ! D270  D(31,33,37,46)       -115.6516         estimate D2E/DX2                !
 ! D271  D(31,33,37,70)        124.2776         estimate D2E/DX2                !
 ! D272  D(50,33,37,40)        115.6501         estimate D2E/DX2                !
 ! D273  D(50,33,37,46)         -4.2109         estimate D2E/DX2                !
 ! D274  D(50,33,37,70)       -124.2817         estimate D2E/DX2                !
 ! D275  D(69,33,37,40)       -120.0712         estimate D2E/DX2                !
 ! D276  D(69,33,37,46)        120.0678         estimate D2E/DX2                !
 ! D277  D(69,33,37,70)         -0.003          estimate D2E/DX2                !
 ! D278  D(31,33,50,21)        -26.3403         estimate D2E/DX2                !
 ! D279  D(31,33,50,48)        123.5133         estimate D2E/DX2                !
 ! D280  D(37,33,50,21)       -136.9779         estimate D2E/DX2                !
 ! D281  D(37,33,50,48)         12.8757         estimate D2E/DX2                !
 ! D282  D(69,33,50,21)         99.0921         estimate D2E/DX2                !
 ! D283  D(69,33,50,48)       -111.0543         estimate D2E/DX2                !
 ! D284  D(32,34,35,29)         -0.0789         estimate D2E/DX2                !
 ! D285  D(32,34,35,36)       -140.9819         estimate D2E/DX2                !
 ! D286  D(44,34,35,29)        140.8002         estimate D2E/DX2                !
 ! D287  D(44,34,35,36)         -0.1028         estimate D2E/DX2                !
 ! D288  D(32,34,44,43)        145.3225         estimate D2E/DX2                !
 ! D289  D(32,34,44,47)          5.0322         estimate D2E/DX2                !
 ! D290  D(35,34,44,43)          4.4829         estimate D2E/DX2                !
 ! D291  D(35,34,44,47)       -135.8074         estimate D2E/DX2                !
 ! D292  D(29,35,36,38)         -4.8947         estimate D2E/DX2                !
 ! D293  D(29,35,36,43)       -144.7455         estimate D2E/DX2                !
 ! D294  D(34,35,36,38)        135.534          estimate D2E/DX2                !
 ! D295  D(34,35,36,43)         -4.3168         estimate D2E/DX2                !
 ! D296  D(35,36,38,27)         -3.3615         estimate D2E/DX2                !
 ! D297  D(35,36,38,39)       -146.7561         estimate D2E/DX2                !
 ! D298  D(43,36,38,27)        131.8935         estimate D2E/DX2                !
 ! D299  D(43,36,38,39)        -11.5012         estimate D2E/DX2                !
 ! D300  D(35,36,43,42)        147.6872         estimate D2E/DX2                !
 ! D301  D(35,36,43,44)          6.9664         estimate D2E/DX2                !
 ! D302  D(38,36,43,42)          8.6321         estimate D2E/DX2                !
 ! D303  D(38,36,43,44)       -132.0887         estimate D2E/DX2                !
 ! D304  D(33,37,40,18)       -154.9312         estimate D2E/DX2                !
 ! D305  D(33,37,40,32)          5.6834         estimate D2E/DX2                !
 ! D306  D(46,37,40,18)        -41.2101         estimate D2E/DX2                !
 ! D307  D(46,37,40,32)        119.4045         estimate D2E/DX2                !
 ! D308  D(70,37,40,18)         83.8549         estimate D2E/DX2                !
 ! D309  D(70,37,40,32)       -115.5305         estimate D2E/DX2                !
 ! D310  D(33,37,46,45)        154.9385         estimate D2E/DX2                !
 ! D311  D(33,37,46,48)         -5.6818         estimate D2E/DX2                !
 ! D312  D(40,37,46,45)         41.2196         estimate D2E/DX2                !
 ! D313  D(40,37,46,48)       -119.4007         estimate D2E/DX2                !
 ! D314  D(70,37,46,45)        -83.8453         estimate D2E/DX2                !
 ! D315  D(70,37,46,48)        115.5344         estimate D2E/DX2                !
 ! D316  D(27,38,39,4)           2.1945         estimate D2E/DX2                !
 ! D317  D(27,38,39,41)       -142.4552         estimate D2E/DX2                !
 ! D318  D(36,38,39,4)         149.7454         estimate D2E/DX2                !
 ! D319  D(36,38,39,41)          5.0957         estimate D2E/DX2                !
 ! D320  D(4,39,41,1)            0.2143         estimate D2E/DX2                !
 ! D321  D(4,39,41,42)        -135.7161         estimate D2E/DX2                !
 ! D322  D(38,39,41,1)         140.2421         estimate D2E/DX2                !
 ! D323  D(38,39,41,42)          4.3118         estimate D2E/DX2                !
 ! D324  D(1,41,42,43)        -147.8741         estimate D2E/DX2                !
 ! D325  D(1,41,42,66)          -5.7332         estimate D2E/DX2                !
 ! D326  D(39,41,42,43)         -7.2523         estimate D2E/DX2                !
 ! D327  D(39,41,42,66)        134.8886         estimate D2E/DX2                !
 ! D328  D(41,42,43,36)          0.8718         estimate D2E/DX2                !
 ! D329  D(41,42,43,44)        136.4432         estimate D2E/DX2                !
 ! D330  D(66,42,43,36)       -136.7496         estimate D2E/DX2                !
 ! D331  D(66,42,43,44)         -1.1782         estimate D2E/DX2                !
 ! D332  D(41,42,66,49)       -134.6563         estimate D2E/DX2                !
 ! D333  D(41,42,66,65)          5.8002         estimate D2E/DX2                !
 ! D334  D(43,42,66,49)          7.5323         estimate D2E/DX2                !
 ! D335  D(43,42,66,65)        147.9888         estimate D2E/DX2                !
 ! D336  D(36,43,44,34)         -7.0411         estimate D2E/DX2                !
 ! D337  D(36,43,44,47)        132.1239         estimate D2E/DX2                !
 ! D338  D(42,43,44,34)       -147.902          estimate D2E/DX2                !
 ! D339  D(42,43,44,47)         -8.7369         estimate D2E/DX2                !
 ! D340  D(34,44,47,18)          1.5213         estimate D2E/DX2                !
 ! D341  D(34,44,47,49)        147.6217         estimate D2E/DX2                !
 ! D342  D(43,44,47,18)       -134.0603         estimate D2E/DX2                !
 ! D343  D(43,44,47,49)         12.0402         estimate D2E/DX2                !
 ! D344  D(14,45,46,37)       -165.4077         estimate D2E/DX2                !
 ! D345  D(14,45,46,48)         -6.4493         estimate D2E/DX2                !
 ! D346  D(20,45,46,37)         -0.8413         estimate D2E/DX2                !
 ! D347  D(20,45,46,48)        158.117          estimate D2E/DX2                !
 ! D348  D(37,46,48,17)        163.3193         estimate D2E/DX2                !
 ! D349  D(37,46,48,50)         14.373          estimate D2E/DX2                !
 ! D350  D(45,46,48,17)          0.054          estimate D2E/DX2                !
 ! D351  D(45,46,48,50)       -148.8923         estimate D2E/DX2                !
 ! D352  D(18,47,49,51)         -2.6004         estimate D2E/DX2                !
 ! D353  D(18,47,49,66)        144.5658         estimate D2E/DX2                !
 ! D354  D(44,47,49,51)       -152.7863         estimate D2E/DX2                !
 ! D355  D(44,47,49,66)         -5.62           estimate D2E/DX2                !
 ! D356  D(17,48,50,21)        -15.9856         estimate D2E/DX2                !
 ! D357  D(17,48,50,33)       -167.3918         estimate D2E/DX2                !
 ! D358  D(46,48,50,21)        134.0383         estimate D2E/DX2                !
 ! D359  D(46,48,50,33)        -17.3678         estimate D2E/DX2                !
 ! D360  D(47,49,51,19)         -7.9236         estimate D2E/DX2                !
 ! D361  D(47,49,51,52)        149.1617         estimate D2E/DX2                !
 ! D362  D(66,49,51,19)       -154.5133         estimate D2E/DX2                !
 ! D363  D(66,49,51,52)          2.572          estimate D2E/DX2                !
 ! D364  D(47,49,66,42)         -4.1692         estimate D2E/DX2                !
 ! D365  D(47,49,66,65)       -140.3805         estimate D2E/DX2                !
 ! D366  D(51,49,66,42)        138.4139         estimate D2E/DX2                !
 ! D367  D(51,49,66,65)          2.2026         estimate D2E/DX2                !
 ! D368  D(19,51,52,53)          9.7578         estimate D2E/DX2                !
 ! D369  D(19,51,52,64)        148.1021         estimate D2E/DX2                !
 ! D370  D(49,51,52,53)       -143.3247         estimate D2E/DX2                !
 ! D371  D(49,51,52,64)         -4.9805         estimate D2E/DX2                !
 ! D372  D(51,52,53,54)          0.0036         estimate D2E/DX2                !
 ! D373  D(51,52,53,62)        143.216          estimate D2E/DX2                !
 ! D374  D(64,52,53,54)       -143.209          estimate D2E/DX2                !
 ! D375  D(64,52,53,62)          0.0035         estimate D2E/DX2                !
 ! D376  D(51,52,64,63)       -140.6949         estimate D2E/DX2                !
 ! D377  D(51,52,64,65)          2.6616         estimate D2E/DX2                !
 ! D378  D(53,52,64,63)          1.865          estimate D2E/DX2                !
 ! D379  D(53,52,64,65)        145.2215         estimate D2E/DX2                !
 ! D380  D(52,53,54,20)         -9.7754         estimate D2E/DX2                !
 ! D381  D(52,53,54,55)        143.3413         estimate D2E/DX2                !
 ! D382  D(62,53,54,20)       -148.1233         estimate D2E/DX2                !
 ! D383  D(62,53,54,55)          4.9935         estimate D2E/DX2                !
 ! D384  D(52,53,62,61)       -145.23           estimate D2E/DX2                !
 ! D385  D(52,53,62,63)         -1.8707         estimate D2E/DX2                !
 ! D386  D(54,53,62,61)         -2.6672         estimate D2E/DX2                !
 ! D387  D(54,53,62,63)        140.6921         estimate D2E/DX2                !
 ! D388  D(20,54,55,14)          7.934          estimate D2E/DX2                !
 ! D389  D(20,54,55,60)        154.527          estimate D2E/DX2                !
 ! D390  D(53,54,55,14)       -149.1792         estimate D2E/DX2                !
 ! D391  D(53,54,55,60)         -2.5863         estimate D2E/DX2                !
 ! D392  D(14,55,60,59)          4.1759         estimate D2E/DX2                !
 ! D393  D(14,55,60,61)        140.3895         estimate D2E/DX2                !
 ! D394  D(54,55,60,59)       -138.4086         estimate D2E/DX2                !
 ! D395  D(54,55,60,61)         -2.195          estimate D2E/DX2                !
 ! D396  D(17,56,57,15)       -135.5315         estimate D2E/DX2                !
 ! D397  D(17,56,57,58)          4.3182         estimate D2E/DX2                !
 ! D398  D(22,56,57,15)          4.8971         estimate D2E/DX2                !
 ! D399  D(22,56,57,58)        144.7467         estimate D2E/DX2                !
 ! D400  D(15,57,58,16)        132.0865         estimate D2E/DX2                !
 ! D401  D(15,57,58,59)         -8.6342         estimate D2E/DX2                !
 ! D402  D(56,57,58,16)         -6.9677         estimate D2E/DX2                !
 ! D403  D(56,57,58,59)       -147.6884         estimate D2E/DX2                !
 ! D404  D(16,58,59,11)       -136.4464         estimate D2E/DX2                !
 ! D405  D(16,58,59,60)          1.1745         estimate D2E/DX2                !
 ! D406  D(57,58,59,11)         -0.877          estimate D2E/DX2                !
 ! D407  D(57,58,59,60)        136.7439         estimate D2E/DX2                !
 ! D408  D(11,59,60,55)        134.6591         estimate D2E/DX2                !
 ! D409  D(11,59,60,61)         -5.7981         estimate D2E/DX2                !
 ! D410  D(58,59,60,55)         -7.5304         estimate D2E/DX2                !
 ! D411  D(58,59,60,61)       -147.9876         estimate D2E/DX2                !
 ! D412  D(55,60,61,9)        -136.9616         estimate D2E/DX2                !
 ! D413  D(55,60,61,62)          4.528          estimate D2E/DX2                !
 ! D414  D(59,60,61,9)           3.6292         estimate D2E/DX2                !
 ! D415  D(59,60,61,62)        145.1188         estimate D2E/DX2                !
 ! D416  D(9,61,62,53)         134.6591         estimate D2E/DX2                !
 ! D417  D(9,61,62,63)          -4.4381         estimate D2E/DX2                !
 ! D418  D(60,61,62,53)         -2.2022         estimate D2E/DX2                !
 ! D419  D(60,61,62,63)       -141.2995         estimate D2E/DX2                !
 ! D420  D(53,62,63,8)        -139.5171         estimate D2E/DX2                !
 ! D421  D(53,62,63,64)          3.027          estimate D2E/DX2                !
 ! D422  D(61,62,63,8)           4.0124         estimate D2E/DX2                !
 ! D423  D(61,62,63,64)        146.5565         estimate D2E/DX2                !
 ! D424  D(8,63,64,52)         139.518          estimate D2E/DX2                !
 ! D425  D(8,63,64,65)          -4.0085         estimate D2E/DX2                !
 ! D426  D(62,63,64,52)         -3.0249         estimate D2E/DX2                !
 ! D427  D(62,63,64,65)       -146.5513         estimate D2E/DX2                !
 ! D428  D(52,64,65,1)        -134.6583         estimate D2E/DX2                !
 ! D429  D(52,64,65,66)          2.2012         estimate D2E/DX2                !
 ! D430  D(63,64,65,1)           4.437          estimate D2E/DX2                !
 ! D431  D(63,64,65,66)        141.2965         estimate D2E/DX2                !
 ! D432  D(1,65,66,42)          -3.6291         estimate D2E/DX2                !
 ! D433  D(1,65,66,49)         136.9591         estimate D2E/DX2                !
 ! D434  D(64,65,66,42)       -145.1163         estimate D2E/DX2                !
 ! D435  D(64,65,66,49)         -4.5281         estimate D2E/DX2                !
 --------------------------------------------------------------------------------
 Trust Radius=3.00D-01 FncErr=1.00D-07 GrdErr=1.00D-06 EigMax=2.50D+02 EigMin=1.00D-04
 Number of steps in this run=    432 maximum allowed number of steps=    432.
 GradGradGradGradGradGradGradGradGradGradGradGradGradGradGradGradGradGrad

 Leave Link  103 at Tue Jul 19 23:18:19 2022, MaxMem=  1342177280 cpu:               1.8 elap:               0.0
 (Enter /home/mkliu/g16/l202.exe)
[...]
 Alpha virt. eigenvalues --    0.93329   0.93782   0.94279   0.94355   0.95067
 Alpha virt. eigenvalues --    0.95570   0.96104   0.96422   0.96489   0.97078
 Alpha virt. eigenvalues --    0.97141   0.97629   0.98084   0.99048   0.99204
 Alpha virt. eigenvalues --    0.99730   1.00292   1.00935   1.01535   1.01731
 Alpha virt. eigenvalues --    1.01967   1.02142   1.03210   1.03298   1.03962
 Alpha virt. eigenvalues --    1.04407   1.04688   1.04782   1.04961   1.05397
 Alpha virt. eigenvalues --    1.05526   1.05969   1.06504   1.06699   1.06889
 Alpha virt. eigenvalues --    1.06999   1.07721   1.08044   1.08844   1.09229
 Alpha virt. eigenvalues --    1.09360   1.09656   1.10197   1.10909   1.11782
 Alpha virt. eigenvalues --    1.12118   1.12242   1.12371   1.13168   1.13326
 Alpha virt. eigenvalues --    1.14546   1.14580   1.15277   1.15578   1.16398
 Alpha virt. eigenvalues --    1.16743   1.17180   1.17301   1.18348   1.18922
 Alpha virt. eigenvalues --    1.19432   1.20517   1.20839   1.21072   1.21521
 Alpha virt. eigenvalues --    1.21578   1.21811   1.22365   1.22675   1.23434
 Alpha virt. eigenvalues --    1.24009   1.24392   1.24617   1.24824   1.25100
 Alpha virt. eigenvalues --    1.26681   1.26771   1.27034   1.27240   1.28175
 Alpha virt. eigenvalues --    1.28401   1.29122   1.29406   1.30318   1.30760
 Alpha virt. eigenvalues --    1.31354   1.31500   1.31709   1.32643   1.33449
 Alpha virt. eigenvalues --    1.33606   1.33817   1.33971   1.34719   1.34788
 Alpha virt. eigenvalues --    1.35140   1.35595   1.35737   1.36268   1.36473
 Alpha virt. eigenvalues --    1.36738   1.36799   1.37317   1.37446   1.38345
 Alpha virt. eigenvalues --    1.38641   1.39395   1.39732   1.40015   1.40042
 Alpha virt. eigenvalues --    1.40607   1.40833   1.41279   1.41364   1.41616
 Alpha virt. eigenvalues --    1.42226   1.42600   1.43060   1.43195   1.43220
 Alpha virt. eigenvalues --    1.43670   1.44187   1.44208   1.44510   1.45188
 Alpha virt. eigenvalues --    1.45421   1.45579   1.45715   1.45874   1.45966
 Alpha virt. eigenvalues --    1.46354   1.46415   1.46989   1.47010   1.47240
 Alpha virt. eigenvalues --    1.47467   1.48153   1.48236   1.48410   1.48551
 Alpha virt. eigenvalues --    1.49080   1.49170   1.49488   1.49560   1.50029
 Alpha virt. eigenvalues --    1.50196   1.50253   1.50395   1.51363   1.51377
 Alpha virt. eigenvalues --    1.51634   1.51876   1.52235   1.52409   1.52580
 Alpha virt. eigenvalues --    1.52724   1.52953   1.53171   1.53241   1.53436
 Alpha virt. eigenvalues --    1.53528   1.54077   1.54472   1.54877   1.55479
 Alpha virt. eigenvalues --    1.55952   1.56316   1.56491   1.56744   1.56896
 Alpha virt. eigenvalues --    1.56932   1.57426   1.57588   1.58322   1.58602
 Alpha virt. eigenvalues --    1.59114   1.59355   1.59375   1.59924   1.60473
 Alpha virt. eigenvalues --    1.61069   1.61079   1.61829   1.61879   1.62985
 Alpha virt. eigenvalues --    1.63900   1.63965   1.64342   1.64376   1.64871
 Alpha virt. eigenvalues --    1.65176   1.65520   1.66104   1.66702   1.67325
 Alpha virt. eigenvalues --    1.67373   1.67968   1.68098   1.68882   1.69233
 Alpha virt. eigenvalues --    1.69316   1.69355   1.69905   1.70177   1.70687
 Alpha virt. eigenvalues --    1.70826   1.71411   1.71553   1.72091   1.72523
 Alpha virt. eigenvalues --    1.72950   1.73026   1.74346   1.74943   1.75138
 Alpha virt. eigenvalues --    1.75367   1.75430   1.75999   1.76654   1.77106
 Alpha virt. eigenvalues --    1.77279   1.77790   1.77968   1.78691   1.78953
 Alpha virt. eigenvalues --    1.79114   1.79782   1.79832   1.80362   1.80624
 Alpha virt. eigenvalues --    1.80800   1.81280   1.81561   1.81628   1.81960
 Alpha virt. eigenvalues --    1.82834   1.83198   1.84385   1.84522   1.84724
 Alpha virt. eigenvalues --    1.85400   1.85545   1.86173   1.86544   1.86949
 Alpha virt. eigenvalues --    1.87395   1.87558   1.87808   1.88992   1.89737
 Alpha virt. eigenvalues --    1.90066   1.90532   1.90678   1.91261   1.91524
 Alpha virt. eigenvalues --    1.92029   1.92109   1.92553   1.92851   1.93150
 Alpha virt. eigenvalues --    1.93669   1.93885   1.94928   1.95409   1.95592
 Alpha virt. eigenvalues --    1.96134   1.96465   1.96676   1.97840   1.98104
 Alpha virt. eigenvalues --    1.98379   1.98771   1.99411   1.99512   2.00423
 Alpha virt. eigenvalues --    2.00729   2.01195   2.01929   2.02398   2.02628
 Alpha virt. eigenvalues --    2.02988   2.03662   2.04028   2.04180   2.04912
 Alpha virt. eigenvalues --    2.05057   2.05659   2.06019   2.06901   2.07021
 Alpha virt. eigenvalues --    2.07223   2.07292   2.07882   2.08945   2.09324
 Alpha virt. eigenvalues --    2.09593   2.09999   2.10319   2.10389   2.11324
 Alpha virt. eigenvalues --    2.11398   2.11869   2.12270   2.12585   2.12853
 Alpha virt. eigenvalues --    2.13388   2.14001   2.14444   2.14505   2.15054
 Alpha virt. eigenvalues --    2.15928   2.16816   2.17258   2.17703   2.17954
 Alpha virt. eigenvalues --    2.18379   2.19211   2.20097   2.20198   2.21301
 Alpha virt. eigenvalues --    2.21484   2.22134   2.22539   2.22611   2.23885
 Alpha virt. eigenvalues --    2.24379   2.24467   2.25184   2.25426   2.26088
 Alpha virt. eigenvalues --    2.26222   2.26930   2.27355   2.27858   2.28825
 Alpha virt. eigenvalues --    2.29995   2.30051   2.31449   2.31708   2.31961
 Alpha virt. eigenvalues --    2.32110   2.32728   2.33711   2.33917   2.34919
 Alpha virt. eigenvalues --    2.35032   2.36092   2.36288   2.37282   2.37507
 Alpha virt. eigenvalues --    2.37825   2.38041   2.39350   2.39442   2.39898
 Alpha virt. eigenvalues --    2.40028   2.40743   2.41374   2.42057   2.42207
 Alpha virt. eigenvalues --    2.42740   2.43030   2.43462   2.43485   2.44599
 Alpha virt. eigenvalues --    2.44971   2.45117   2.45159   2.45588   2.45831
 Alpha virt. eigenvalues --    2.46333   2.46689   2.46760   2.47484   2.47541
 Alpha virt. eigenvalues --    2.48448   2.49820   2.49831   2.51064   2.51362
 Alpha virt. eigenvalues --    2.51734   2.53885   2.53891   2.54572   2.55370
 Alpha virt. eigenvalues --    2.55486   2.55952   2.57010   2.57280   2.57382
 Alpha virt. eigenvalues --    2.57937   2.57955   2.58177   2.58610   2.58961
 Alpha virt. eigenvalues --    2.59381   2.60069   2.60219   2.60928   2.61405
 Alpha virt. eigenvalues --    2.61429   2.62018   2.62252   2.63270   2.63594
 Alpha virt. eigenvalues --    2.64925   2.65704   2.65877   2.66471   2.67234
 Alpha virt. eigenvalues --    2.67259   2.67481   2.67802   2.68777   2.69809
 Alpha virt. eigenvalues --    2.69862   2.70579   2.70936   2.71897   2.72764
 Alpha virt. eigenvalues --    2.73287   2.74528   2.75119   2.75286   2.75394
 Alpha virt. eigenvalues --    2.76774   2.77299   2.78363   2.78563   2.80370
 Alpha virt. eigenvalues --    2.81308   2.81802   2.82116   2.82335   2.82517
 Alpha virt. eigenvalues --    2.82875   2.84427   2.85005   2.85064   2.85893
 Alpha virt. eigenvalues --    2.87694   2.87866   2.88230   2.89376   2.89479
 Alpha virt. eigenvalues --    2.89767   2.91308   2.92050   2.92627   2.94048
 Alpha virt. eigenvalues --    2.94303   2.94654   2.95301   2.95566   2.96061
 Alpha virt. eigenvalues --    2.96490   2.97227   2.98688   2.98715   2.98935
 Alpha virt. eigenvalues --    2.99551   2.99622   2.99772   2.99927   3.00854
 Alpha virt. eigenvalues --    3.01115   3.01354   3.01724   3.02889   3.02984
 Alpha virt. eigenvalues --    3.03249   3.03936   3.04426   3.05071   3.05257
 Alpha virt. eigenvalues --    3.05380   3.05492   3.05771   3.05979   3.06082
 Alpha virt. eigenvalues --    3.06460   3.06931   3.07546   3.07731   3.08479
 Alpha virt. eigenvalues --    3.09242   3.09436   3.09783   3.09872   3.10114
 Alpha virt. eigenvalues --    3.10517   3.11143   3.11323   3.11665   3.11700
 Alpha virt. eigenvalues --    3.12128   3.12736   3.12883   3.13491   3.13699
 Alpha virt. eigenvalues --    3.14014   3.14380   3.14761   3.15169   3.15406
 Alpha virt. eigenvalues --    3.15473   3.15809   3.16191   3.16540   3.16619
 Alpha virt. eigenvalues --    3.17591   3.17835   3.17857   3.18238   3.18960
 Alpha virt. eigenvalues --    3.19005   3.19174   3.20797   3.21002   3.21081
 Alpha virt. eigenvalues --    3.21566   3.22310   3.22808   3.23030   3.24444
 Alpha virt. eigenvalues --    3.27271   3.27896   3.28641   3.29294   3.30304
 Alpha virt. eigenvalues --    3.33502   3.34778   3.37497   3.40592   3.42337
 Alpha virt. eigenvalues --    3.42561   3.43611   3.46727   3.47511   3.49712
 Alpha virt. eigenvalues --    3.50730   3.50921   3.52457   3.53582   3.54254
 Alpha virt. eigenvalues --    3.55600   3.55770   3.57078   3.57130   3.57861
 Alpha virt. eigenvalues --    3.58840   3.60150   3.61080   3.61180   3.63177
 Alpha virt. eigenvalues --    3.63567   3.65000   3.65739   3.66142   3.66578
 Alpha virt. eigenvalues --    3.67626   3.69299   3.69527   3.70734   3.71618
 Alpha virt. eigenvalues --    3.73172   3.73536   3.73615   3.76790   3.76845
 Alpha virt. eigenvalues --    3.78216   3.78804   3.79443   3.82095   3.83377
 Alpha virt. eigenvalues --    3.84126   3.84912   3.86078   3.86974   3.87547
 Alpha virt. eigenvalues --    3.88098   3.88618   3.89288   3.90606   3.90921
 Alpha virt. eigenvalues --    3.91671   3.92152   3.92542   3.92725   3.93917
 Alpha virt. eigenvalues --    3.94224   3.95240   3.97375   4.01831   4.03045
 Alpha virt. eigenvalues --    4.08329   4.10906   4.16714   4.21674   4.23493
 Alpha virt. eigenvalues --    4.24961   4.28906   4.32694   4.35859   4.36401
 Alpha virt. eigenvalues --    4.38491   4.40379   4.40441   4.41479   4.42568
 Alpha virt. eigenvalues --    4.44016   4.49036   4.55845   4.57061   4.61109
 Alpha virt. eigenvalues --    4.61581   4.64150   4.66552   4.68929   4.69814
 Alpha virt. eigenvalues --    4.72179   4.75498   4.78633   4.83991   4.88227
 Alpha virt. eigenvalues --    4.96969   4.97390   5.00094   5.01385   5.03079
 Alpha virt. eigenvalues --    5.05395   5.06344  23.04347  23.20375  23.26553
 Alpha virt. eigenvalues --   23.29080  23.43711  23.47096  23.51166  23.51865
 Alpha virt. eigenvalues --   23.56220  23.64464  23.65710  23.67131  23.72989
 Alpha virt. eigenvalues --   23.74811  23.77699  23.78675  23.79733  23.81082
 Alpha virt. eigenvalues --   23.83367  23.84454  23.85227  23.85607  23.86094
 Alpha virt. eigenvalues --   23.88448  23.88580  23.89222  23.93485  23.94698
 Alpha virt. eigenvalues --   23.94971  23.95653  23.96933  23.97166  23.98498
 Alpha virt. eigenvalues --   23.98765  23.98847  23.99000  24.00248  24.00405
 Alpha virt. eigenvalues --   24.00571  24.00999  24.01393  24.02768  24.02777
 Alpha virt. eigenvalues --   24.03929  24.04496  24.04910  24.05735  24.07086
 Alpha virt. eigenvalues --   24.08142  24.09526  24.09833  24.10509  24.11209
 Alpha virt. eigenvalues --   24.11269  24.11774  24.12131  24.12221  24.12671
 Alpha virt. eigenvalues --   24.13656  24.13700  24.14211  24.14370  24.15110
 Alpha virt. eigenvalues --   24.15923  24.16766  24.18143
          Condensed to atoms (all electrons):
 Mulliken charges:
               1
     1  C   -0.007855
     2  C   -0.002261
     3  C   -0.005361
     4  C   -0.004376
     5  C   -0.005362
     6  C   -0.002260
     7  C   -0.124809
     8  C    0.000279
     9  C   -0.007856
    10  C   -0.172578
    11  C    0.003535
    12  C   -0.003350
    13  C   -0.004375
    14  C    0.010507
    15  C   -0.002920
    16  C   -0.009150
    17  C   -0.009778
    18  C   -0.025614
    19  C   -0.126950
    20  C   -0.126949
    21  C   -0.002286
    22  C    0.033057
    23  C   -0.026217
    24  C    0.017544
    25  C   -0.003901
    26  C   -0.003900
    27  C    0.017544
    28  C   -0.026217
    29  C    0.033057
    30  C   -0.002286
    31  C   -0.005591
    32  C    0.033211
    33  C   -0.177443
    34  C   -0.009778
    35  C   -0.014891
    36  C   -0.003938
    37  C   -0.128871
    38  C   -0.002921
    39  C   -0.003349
    40  C   -0.009152
    41  C    0.003534
    42  C   -0.002529
    43  C   -0.011952
    44  C   -0.009150
    45  C   -0.025614
    46  C   -0.009152
    47  C    0.010507
    48  C    0.033211
    49  C    0.030880
    50  C   -0.005591
    51  C   -0.035921
    52  C    0.004949
    53  C    0.004951
    54  C   -0.035923
    55  C    0.030881
    56  C   -0.014891
    57  C   -0.003939
    58  C   -0.011952
    59  C   -0.002529
    60  C   -0.004265
    61  C   -0.003061
    62  C   -0.002733
    63  C   -0.000625
    64  C   -0.002732
    65  C   -0.003063
    66  C   -0.004264
    67  H    0.165942
    68  H    0.160035
    69  H    0.159032
    70  H    0.160285
    71  H    0.169743
    72  H    0.169743
 Sum of Mulliken charges =  -0.00000
 Mulliken charges with hydrogens summed into heavy atoms:
               1
     1  C   -0.007855
     2  C   -0.002261
     3  C   -0.005361
     4  C   -0.004376
     5  C   -0.005362
     6  C   -0.002260
     7  C    0.041133
     8  C    0.000279
     9  C   -0.007856
    10  C   -0.012543
    11  C    0.003535
    12  C   -0.003350
    13  C   -0.004375
    14  C    0.010507
    15  C   -0.002920
    16  C   -0.009150
    17  C   -0.009778
    18  C   -0.025614
    19  C    0.042793
    20  C    0.042795
    21  C   -0.002286
    22  C    0.033057
    23  C   -0.026217
    24  C    0.017544
    25  C   -0.003901
    26  C   -0.003900
    27  C    0.017544
    28  C   -0.026217
    29  C    0.033057
    30  C   -0.002286
    31  C   -0.005591
    32  C    0.033211
    33  C   -0.018411
    34  C   -0.009778
    35  C   -0.014891
    36  C   -0.003938
    37  C    0.031414
    38  C   -0.002921
    39  C   -0.003349
    40  C   -0.009152
    41  C    0.003534
    42  C   -0.002529
    43  C   -0.011952
    44  C   -0.009150
    45  C   -0.025614
    46  C   -0.009152
    47  C    0.010507
    48  C    0.033211
    49  C    0.030880
    50  C   -0.005591
    51  C   -0.035921
    52  C    0.004949
    53  C    0.004951
    54  C   -0.035923
    55  C    0.030881
    56  C   -0.014891
    57  C   -0.003939
    58  C   -0.011952
    59  C   -0.002529
    60  C   -0.004265
    61  C   -0.003061
    62  C   -0.002733
    63  C   -0.000625
    64  C   -0.002732
    65  C   -0.003063
    66  C   -0.004264
 Electronic spatial extent (au):  <R**2>=          21286.9754
 Charge=             -0.0000 electrons
 Dipole moment (field-independent basis, Debye):
    X=              4.1189    Y=              0.0000    Z=              2.4791  Tot=              4.8074
 Quadrupole moment (field-independent basis, Debye-Ang):
   XX=           -358.4846   YY=           -384.1220   ZZ=           -351.5362
   XY=              0.0000   XZ=             -1.1711   YZ=              0.0000
 Traceless Quadrupole moment (field-independent basis, Debye-Ang):
   XX=              6.2296   YY=            -19.4077   ZZ=             13.1781
   XY=              0.0000   XZ=             -1.1711   YZ=              0.0000
 Octapole moment (field-independent basis, Debye-Ang**2):
  XXX=            132.0775  YYY=              0.0001  ZZZ=             85.0257  XYY=             -5.0243
  XXY=              0.0002  XXZ=             -4.9342  XZZ=             53.7311  YZZ=              0.0001
  YYZ=              3.2896  XYZ=             -0.0000
 Hexadecapole moment (field-independent basis, Debye-Ang**3):
 XXXX=         -12195.0808 YYYY=         -11238.7905 ZZZZ=          -8688.0786 XXXY=              0.0008
 XXXZ=             -5.2888 YYYX=             -0.0000 YYYZ=              0.0000 ZZZX=            -30.4152
 ZZZY=              0.0003 XXYY=          -4037.1812 XXZZ=          -3470.3192 YYZZ=          -3401.5242
 XXYZ=              0.0002 YYXZ=             -0.4862 ZZXY=             -0.0000
 N-N= 9.879334379504D+03 E-N=-2.560124225862D+04  KE= 2.508684365200D+03
 No NMR shielding tensors so no spin-rotation constants.
 Leave Link  601 at Tue Jul 19 23:51:06 2022, MaxMem=  1342177280 cpu:              59.9 elap:               1.5
 (Enter /home/mkliu/g16/l9999.exe)
 1\1\GINC-NODE01\FOpt\RB3LYP\6-311G(d,p)\C66H6\MKLIU\19-Jul-2022\0\\#P 
 opt b3lyp/6-311G(d, p) empiricaldispersion=GD3\\force\\0,1\C,12.770687
 062,12.094196427,21.9022103897\C,12.7853882946,13.0445267637,22.915116
 5288\C,12.6653938037,14.4532471058,22.5907687026\C,12.5934342761,14.86
 77044417,21.2627716215\C,13.4717920151,15.2001530893,23.5097620691\C,1
 4.1082590997,14.2698035264,24.4226982517\C,15.6163206919,17.37352024,1
 8.7447707753\C,13.7257855129,12.9297703007,24.0153097144\C,15.39193624
 53,14.5220610065,24.8894557101\C,16.9188224609,17.0004646788,17.905050
 5602\C,16.0612352699,15.7522151618,24.5184398071\C,15.4491599639,16.62
 78915348,23.6148374811\C,14.1610840473,16.3197014077,23.0493093792\C,1
 9.1994082556,14.0634614759,22.6036327353\C,16.2216005095,17.3097144286
 ,22.6137732456\C,19.1825614335,15.4575260012,22.6012125952\C,19.256559
 7802,16.1243351922,21.3461721929\C,17.4504774793,11.5919490618,19.3122
 385299\C,17.8760323252,11.0078270641,20.6864108425\C,18.7780023471,11.
 8432568714,21.7143291778\C,18.0181954381,16.8887895869,18.9360599608\C
 ,17.5651518998,17.4334739089,20.1775026869\C,16.1291737324,17.54006754
 98,20.1794107883\C,15.4496582757,17.3996693526,21.3812278198\C,14.1440
 986352,16.7305137785,21.6471110522\C,13.358586305,16.0029514049,20.751
 9187435\C,13.6362557566,15.7200494254,19.3146243754\C,14.6706191095,16
 .1891190495,18.517202119\C,15.2607144657,15.2990481826,17.5513040768\C
 ,16.6427451461,15.6148127784,17.3685591687\C,17.5745143676,14.60297958
 78,17.3763839717\C,17.1496670462,13.2544059594,17.5652879779\C,18.9759
 267704,14.7680450684,17.9143676753\C,15.8048914367,12.9273150351,17.41
 25588138\C,14.826403808,13.9826975256,17.4063951752\C,13.6799846937,13
 .5307845286,18.1247549407\C,19.2485369516,13.4397666403,18.7547083222\
 C,13.0819367215,14.4016799928,19.0357271234\C,12.4762034138,13.8742680
 767,20.226777316\C,17.9956650595,12.5868281745,18.5289890848\C,12.5619
 142424,12.5110592237,20.5305204982\C,13.35622215,11.6514552423,19.6775
 548947\C,13.8951633064,12.1473315108,18.5033317214\C,15.2628873477,11.
 827026408,18.134245444\C,19.2715114118,13.2786363465,21.3875362048\C,1
 9.4529857124,13.936633173,20.1897901924\C,16.0854074694,11.1791966736,
 19.0548341003\C,19.4470769538,15.3823242577,20.1834781305\C,15.5120077
 735,10.6093622602,20.2413901469\C,18.9477451179,15.874900114,18.941356
 7127\C,16.5042101331,10.5894283065,21.2623513562\C,16.1099458786,10.72
 76480039,22.5708251741\C,16.9346670045,11.4915204034,23.5107025316\C,1
 8.1050256014,12.0721460202,23.0866821041\C,18.4669570827,13.3463080902
 ,23.6089286493\C,18.2831351291,17.1844065865,21.3457786737\C,17.609579
 1027,17.1704717512,22.6030269713\C,18.2269407127,16.1595296127,23.4399
 410119\C,17.4726167267,15.4641603466,24.3687080202\C,17.6461688388,14.
 0349408766,24.5193003607\C,16.3825888057,13.4603275723,24.8884395868\C
 ,16.0453674776,12.1966878859,24.4066845529\C,14.683137733,11.914051471
 8,24.0007711219\C,14.7233277974,10.972183104,22.9000497502\C,13.757482
 9815,11.0288910491,21.8967951689\C,14.1498056964,10.7965239937,20.5347
 508063\H,15.1568877203,18.3017660019,18.393485216\H,17.1278573494,17.7
 360218881,17.1238061605\H,19.7254302776,14.9202418726,17.1329984342\H,
 20.1406795555,12.9172306014,18.3965587327\H,18.4439939004,10.093385775
 9,20.4807911957\H,19.6712159453,11.2300725489,21.8793714686\\Version=E
 S64L-G16RevA.03\State=1-A\HF=-2519.0456205\RMSD=3.113e-09\RMSF=7.671e-
 05\Dipole=1.4223902,-0.0018071,-1.2466426\Quadrupole=0.4389751,2.77631
 45,-3.2152896,-8.1322615,-6.4370258,-6.8477811\PG=C01 [X(C66H6)]\\@


 IF I HAVE SEEN FARTHER, IT IS BY STANDING ON THE
 SHOULDERS OF GIANTS. -- SIR ISAAC NEWTON
 Job cpu time:       1 days  2 hours  7 minutes 18.0 seconds.
 Elapsed time:       0 days  0 hours 32 minutes 43.4 seconds.
 File lengths (MBytes):  RWF=    920 Int=      0 D2E=      0 Chk=    114 Scr=      1
 Normal termination of Gaussian 16 at Tue Jul 19 23:51:06 2022.
