 Entering Gaussian System, Link 0=g16
 Input=dihept_8_addons_10.gjf
 Output=dihept_8_addons_10.log
 Initial command:
 /home/mkliu/g16/l1.exe "/data/scratch/Gau-186696.inp" -scrdir="/data/scratch/"
 Entering Link 1 = /home/mkliu/g16/l1.exe PID=    186697.
  
 Copyright (c) 1988,1990,1992,1993,1995,1998,2003,2009,2016,
            Gaussian, Inc.  All Rights Reserved.
  
 This is part of the Gaussian(R) 16 program.  It is based on
 the Gaussian(R) 09 system (copyright 2009, Gaussian, Inc.),
 the Gaussian(R) 03 system (copyright 2003, Gaussian, Inc.),
 the Gaussian(R) 98 system (copyright 1998, Gaussian, Inc.),
 the Gaussian(R) 94 system (copyright 1995, Gaussian, Inc.),
 the Gaussian 92(TM) system (copyright 1992, Gaussian, Inc.),
 the Gaussian 90(TM) system (copyright 1990, Gaussian, Inc.),
 the Gaussian 88(TM) system (copyright 1988, Gaussian, Inc.),
 the Gaussian 86(TM) system (copyright 1986, Carnegie Mellon
 University), and the Gaussian 82(TM) system (copyright 1983,
 Carnegie Mellon University). Gaussian is a federally registered
 trademark of Gaussian, Inc.
  
 This software contains proprietary and confidential information,
 including trade secrets, belonging to Gaussian, Inc.
  
 This software is provided under written license and may be
 used, copied, transmitted, or stored only in accord with that
 written license.
  
 The following legend is applicable only to US Government
 contracts under FAR:
  
                    RESTRICTED RIGHTS LEGEND
  
 Use, reproduction and disclosure by the US Government is
 subject to restrictions as set forth in subparagraphs (a)
 and (c) of the Commercial Computer Software - Restricted
 Rights clause in FAR 52.227-19.
  
 Gaussian, Inc.
 340 Quinnipiac St., Bldg. 40, Wallingford CT 06492
  
  
 ---------------------------------------------------------------
 Warning -- This program may not be used in any manner that
 competes with the business of Gaussian, Inc. or will provide
 assistance to any competitor of Gaussian, Inc.  The licensee
 of this program is prohibited from giving any competitor of
 Gaussian, Inc. access to this program.  By using this program,
 the user acknowledges that Gaussian, Inc. is engaged in the
 business of creating and licensing software in the field of
 computational chemistry and represents and warrants to the
 licensee that it is not a competitor of Gaussian, Inc. and that
 it will not use this program in any manner prohibited above.
 ---------------------------------------------------------------
  

 Cite this work as:
 Gaussian 16, Revision A.03,
 M. J. Frisch, G. W. Trucks, H. B. Schlegel, G. E. Scuseria, 
 M. A. Robb, J. R. Cheeseman, G. Scalmani, V. Barone, 
 G. A. Petersson, H. Nakatsuji, X. Li, M. Caricato, A. V. Marenich, 
 J. Bloino, B. G. Janesko, R. Gomperts, B. Mennucci, H. P. Hratchian, 
 J. V. Ortiz, A. F. Izmaylov, J. L. Sonnenberg, D. Williams-Young, 
 F. Ding, F. Lipparini, F. Egidi, J. Goings, B. Peng, A. Petrone, 
 T. Henderson, D. Ranasinghe, V. G. Zakrzewski, J. Gao, N. Rega, 
 G. Zheng, W. Liang, M. Hada, M. Ehara, K. Toyota, R. Fukuda, 
 J. Hasegawa, M. Ishida, T. Nakajima, Y. Honda, O. Kitao, H. Nakai, 
 T. Vreven, K. Throssell, J. A. Montgomery, Jr., J. E. Peralta, 
 F. Ogliaro, M. J. Bearpark, J. J. Heyd, E. N. Brothers, K. N. Kudin, 
 V. N. Staroverov, T. A. Keith, R. Kobayashi, J. Normand, 
 K. Raghavachari, A. P. Rendell, J. C. Burant, S. S. Iyengar, 
 J. Tomasi, M. Cossi, J. M. Millam, M. Klene, C. Adamo, R. Cammi, 
 J. W. Ochterski, R. L. Martin, K. Morokuma, O. Farkas, 
 J. B. Foresman, and D. J. Fox, Gaussian, Inc., Wallingford CT, 2016.
 
 ******************************************
 Gaussian 16:  ES64L-G16RevA.03 25-Dec-2016
                20-Jul-2022 
 ******************************************
 %mem=10GB
 %chk=dihept_8_addons_10.chk
 %nprocshared=48
 Will use up to   48 processors via shared memory.
 -------------------------------------------------
 #P opt b3lyp/6-311G(d, p) empiricaldispersion=GD3
 -------------------------------------------------
 1/18=20,19=15,26=3,38=1/1,3;
 2/9=110,12=2,17=6,18=5,40=1/2;
 3/5=4,6=6,7=101,11=2,25=1,30=1,71=1,74=-5,124=31/1,2,3;
 4//1;
 5/5=2,38=5/2;
 6/7=2,8=2,9=2,10=2,28=1/1;
 7//1,2,3,16;
 1/18=20,19=15,26=3/3(2);
 2/9=110/2;
 99//99;
 2/9=110/2;
 3/5=4,6=6,7=101,11=2,25=1,30=1,71=1,74=-5,124=31/1,2,3;
 4/5=5,16=3,69=1/1;
 5/5=2,38=5/2;
 7//1,2,3,16;
 1/18=20,19=15,26=3/3(-5);
 2/9=110/2;
 6/7=2,8=2,9=2,10=2,19=2,28=1/1;
 99/9=1/99;
 Leave Link    1 at Wed Jul 20 15:42:42 2022, MaxMem=  1342177280 cpu:               2.0 elap:               0.0
 (Enter /home/mkliu/g16/l101.exe)
 -----
 force
 -----
 Symbolic Z-matrix:
 Charge =  0 Multiplicity = 1
 C                     12.81505   12.08965   21.89945 
 C                     12.83379   13.03671   22.91207 
 C                     12.71388   14.43525   22.59095 
 C                     12.6294   14.84715   21.26513 
 C                     13.5053   15.18471   23.50405 
 C                     14.14281   14.24221   24.42429 
 C                     15.61778   17.32656   18.75442 
 C                     13.75974   12.91942   24.00778 
 C                     15.40964   14.49122   24.87987 
 C                     16.89732   17.00457   17.89577 
 C                     16.08632   15.8391   24.77742 
 C                     15.38368   16.83787   23.77556 
 C                     14.18548   16.28724   23.05102 
 C                     19.20816   14.02143   22.58959 
 C                     16.22341   17.27321   22.60724 
 C                     19.15251   15.41061   22.5861 
 C                     19.20869   16.06505   21.32809 
 C                     17.43847   11.61879   19.34211 
 C                     17.70391   11.29503   20.75395 
 C                     18.49087   12.00709   21.64292 
 C                     17.95198   16.79445   18.92826 
 C                     17.52554   17.35686   20.16749 
 C                     16.11508   17.47602   20.17952 
 C                     15.4632   17.32239   21.39299 
 C                     14.1847   16.6608   21.66772 
 C                     13.39516   15.9553   20.76442 
 C                     13.68266   15.67746   19.34791 
 C                     14.72628   16.13117   18.55444 
 C                     15.28935   15.28339   17.57956 
 C                     16.62524   15.72647   17.06636 
 C                     17.70715   14.55715   17.06622 
 C                     17.16365   13.25957   17.58188 
 C                     19.00284   14.73064   17.89361 
 C                     15.83946   12.92294   17.42563 
 C                     14.85042   13.98881   17.4227 
 C                     13.72568   13.52886   18.1491 
 C                     19.23272   13.4266   18.74418 
 C                     13.12008   14.39035   19.0586 
 C                     12.5055   13.85689   20.23605 
 C                     17.9695   12.62925   18.55231 
 C                     12.60539   12.50391   20.5375 
 C                     13.39763   11.6517   19.6858 
 C                     13.93503   12.15004   18.51567 
 C                     15.29417   11.83631   18.15129 
 C                     19.24307   13.24418   21.36888 
 C                     19.42863   13.90073   20.17153 
 C                     16.10763   11.16514   19.05808 
 C                     19.39661   15.32676   20.16976 
 C                     15.52888   10.58874   20.23342 
 C                     18.87115   15.79409   18.93065 
 C                     16.52454   10.61835   21.26076 
 C                     16.11672   10.71484   22.58513 
 C                     16.92047   11.45959   23.49741 
 C                     18.0829   12.05751   23.03383 
 C                     18.47747   13.31768   23.58469 
 C                     18.24357   17.11672   21.33085 
 C                     17.58918   17.12823   22.58941 
 C                     18.21815   16.11039   23.43007 
 C                     17.47586   15.42363   24.34912 
 C                     17.63778   14.01285   24.45889 
 C                     16.37774   13.44139   24.83488 
 C                     16.04153   12.16616   24.39749 
 C                     14.69214   11.8829   24.00735 
 C                     14.73051   10.94892   22.91123 
 C                     13.78914   11.0254   21.89592 
 C                     14.18515   10.79172   20.53462 
 H                     15.11659   18.24149   18.42017 
 H                     17.15198   17.84115   17.24033 
 H                     19.85483   14.92746   17.23797 
 H                     20.10396   12.85866   18.40054 
 H                     16.11629   16.32354   25.75835 
 H                     15.08795   17.71905   24.35619 
 H                     17.98394   14.41856   16.01623 
 H                     16.51037   16.01528   16.01691 
 
 ITRead=  0  0  0  0  0  0  0  0  0  0  0  0  0  0  0  0  0  0  0  0
 ITRead=  0  0  0  0  0  0  0  0  0  0  0  0  0  0  0  0  0  0  0  0
 ITRead=  0  0  0  0  0  0  0  0  0  0  0  0  0  0  0  0  0  0  0  0
 ITRead=  0  0  0  0  0  0  0  0  0  0  0  0  0  0
 MicOpt= -1 -1 -1 -1 -1 -1 -1 -1 -1 -1 -1 -1 -1 -1 -1 -1 -1 -1 -1 -1
 MicOpt= -1 -1 -1 -1 -1 -1 -1 -1 -1 -1 -1 -1 -1 -1 -1 -1 -1 -1 -1 -1
 MicOpt= -1 -1 -1 -1 -1 -1 -1 -1 -1 -1 -1 -1 -1 -1 -1 -1 -1 -1 -1 -1
 MicOpt= -1 -1 -1 -1 -1 -1 -1 -1 -1 -1 -1 -1 -1 -1
 NAtoms=     74 NQM=       74 NQMF=       0 NMMI=      0 NMMIF=      0
                NMic=       0 NMicF=      0.
                    Isotopes and Nuclear Properties:
 (Nuclear quadrupole moments (NQMom) in fm**2, nuclear magnetic moments (NMagM)
  in nuclear magnetons)

  Atom         1           2           3           4           5           6           7           8           9          10
 IAtWgt=          12          12          12          12          12          12          12          12          12          12
 AtmWgt=  12.0000000  12.0000000  12.0000000  12.0000000  12.0000000  12.0000000  12.0000000  12.0000000  12.0000000  12.0000000
 NucSpn=           0           0           0           0           0           0           0           0           0           0
 AtZEff=  -0.0000000  -0.0000000  -0.0000000  -0.0000000  -0.0000000  -0.0000000  -0.0000000  -0.0000000  -0.0000000  -0.0000000
 NQMom=    0.0000000   0.0000000   0.0000000   0.0000000   0.0000000   0.0000000   0.0000000   0.0000000   0.0000000   0.0000000
 NMagM=    0.0000000   0.0000000   0.0000000   0.0000000   0.0000000   0.0000000   0.0000000   0.0000000   0.0000000   0.0000000
 AtZNuc=   6.0000000   6.0000000   6.0000000   6.0000000   6.0000000   6.0000000   6.0000000   6.0000000   6.0000000   6.0000000

  Atom        11          12          13          14          15          16          17          18          19          20
 IAtWgt=          12          12          12          12          12          12          12          12          12          12
 AtmWgt=  12.0000000  12.0000000  12.0000000  12.0000000  12.0000000  12.0000000  12.0000000  12.0000000  12.0000000  12.0000000
 NucSpn=           0           0           0           0           0           0           0           0           0           0
 AtZEff=  -0.0000000  -0.0000000  -0.0000000  -0.0000000  -0.0000000  -0.0000000  -0.0000000  -0.0000000  -0.0000000  -0.0000000
 NQMom=    0.0000000   0.0000000   0.0000000   0.0000000   0.0000000   0.0000000   0.0000000   0.0000000   0.0000000   0.0000000
 NMagM=    0.0000000   0.0000000   0.0000000   0.0000000   0.0000000   0.0000000   0.0000000   0.0000000   0.0000000   0.0000000
 AtZNuc=   6.0000000   6.0000000   6.0000000   6.0000000   6.0000000   6.0000000   6.0000000   6.0000000   6.0000000   6.0000000

  Atom        21          22          23          24          25          26          27          28          29          30
 IAtWgt=          12          12          12          12          12          12          12          12          12          12
 AtmWgt=  12.0000000  12.0000000  12.0000000  12.0000000  12.0000000  12.0000000  12.0000000  12.0000000  12.0000000  12.0000000
 NucSpn=           0           0           0           0           0           0           0           0           0           0
 AtZEff=  -0.0000000  -0.0000000  -0.0000000  -0.0000000  -0.0000000  -0.0000000  -0.0000000  -0.0000000  -0.0000000  -0.0000000
 NQMom=    0.0000000   0.0000000   0.0000000   0.0000000   0.0000000   0.0000000   0.0000000   0.0000000   0.0000000   0.0000000
 NMagM=    0.0000000   0.0000000   0.0000000   0.0000000   0.0000000   0.0000000   0.0000000   0.0000000   0.0000000   0.0000000
 AtZNuc=   6.0000000   6.0000000   6.0000000   6.0000000   6.0000000   6.0000000   6.0000000   6.0000000   6.0000000   6.0000000

  Atom        31          32          33          34          35          36          37          38          39          40
 IAtWgt=          12          12          12          12          12          12          12          12          12          12
 AtmWgt=  12.0000000  12.0000000  12.0000000  12.0000000  12.0000000  12.0000000  12.0000000  12.0000000  12.0000000  12.0000000
 NucSpn=           0           0           0           0           0           0           0           0           0           0
 AtZEff=  -0.0000000  -0.0000000  -0.0000000  -0.0000000  -0.0000000  -0.0000000  -0.0000000  -0.0000000  -0.0000000  -0.0000000
 NQMom=    0.0000000   0.0000000   0.0000000   0.0000000   0.0000000   0.0000000   0.0000000   0.0000000   0.0000000   0.0000000
 NMagM=    0.0000000   0.0000000   0.0000000   0.0000000   0.0000000   0.0000000   0.0000000   0.0000000   0.0000000   0.0000000
 AtZNuc=   6.0000000   6.0000000   6.0000000   6.0000000   6.0000000   6.0000000   6.0000000   6.0000000   6.0000000   6.0000000

  Atom        41          42          43          44          45          46          47          48          49          50
 IAtWgt=          12          12          12          12          12          12          12          12          12          12
 AtmWgt=  12.0000000  12.0000000  12.0000000  12.0000000  12.0000000  12.0000000  12.0000000  12.0000000  12.0000000  12.0000000
 NucSpn=           0           0           0           0           0           0           0           0           0           0
 AtZEff=  -0.0000000  -0.0000000  -0.0000000  -0.0000000  -0.0000000  -0.0000000  -0.0000000  -0.0000000  -0.0000000  -0.0000000
 NQMom=    0.0000000   0.0000000   0.0000000   0.0000000   0.0000000   0.0000000   0.0000000   0.0000000   0.0000000   0.0000000
 NMagM=    0.0000000   0.0000000   0.0000000   0.0000000   0.0000000   0.0000000   0.0000000   0.0000000   0.0000000   0.0000000
 AtZNuc=   6.0000000   6.0000000   6.0000000   6.0000000   6.0000000   6.0000000   6.0000000   6.0000000   6.0000000   6.0000000

  Atom        51          52          53          54          55          56          57          58          59          60
 IAtWgt=          12          12          12          12          12          12          12          12          12          12
 AtmWgt=  12.0000000  12.0000000  12.0000000  12.0000000  12.0000000  12.0000000  12.0000000  12.0000000  12.0000000  12.0000000
 NucSpn=           0           0           0           0           0           0           0           0           0           0
 AtZEff=  -0.0000000  -0.0000000  -0.0000000  -0.0000000  -0.0000000  -0.0000000  -0.0000000  -0.0000000  -0.0000000  -0.0000000
 NQMom=    0.0000000   0.0000000   0.0000000   0.0000000   0.0000000   0.0000000   0.0000000   0.0000000   0.0000000   0.0000000
 NMagM=    0.0000000   0.0000000   0.0000000   0.0000000   0.0000000   0.0000000   0.0000000   0.0000000   0.0000000   0.0000000
 AtZNuc=   6.0000000   6.0000000   6.0000000   6.0000000   6.0000000   6.0000000   6.0000000   6.0000000   6.0000000   6.0000000

  Atom        61          62          63          64          65          66          67          68          69          70
 IAtWgt=          12          12          12          12          12          12           1           1           1           1
 AtmWgt=  12.0000000  12.0000000  12.0000000  12.0000000  12.0000000  12.0000000   1.0078250   1.0078250   1.0078250   1.0078250
 NucSpn=           0           0           0           0           0           0           1           1           1           1
 AtZEff=  -0.0000000  -0.0000000  -0.0000000  -0.0000000  -0.0000000  -0.0000000  -0.0000000  -0.0000000  -0.0000000  -0.0000000
 NQMom=    0.0000000   0.0000000   0.0000000   0.0000000   0.0000000   0.0000000   0.0000000   0.0000000   0.0000000   0.0000000
 NMagM=    0.0000000   0.0000000   0.0000000   0.0000000   0.0000000   0.0000000   2.7928460   2.7928460   2.7928460   2.7928460
 AtZNuc=   6.0000000   6.0000000   6.0000000   6.0000000   6.0000000   6.0000000   1.0000000   1.0000000   1.0000000   1.0000000

  Atom        71          72          73          74
 IAtWgt=           1           1           1           1
 AtmWgt=   1.0078250   1.0078250   1.0078250   1.0078250
 NucSpn=           1           1           1           1
 AtZEff=  -0.0000000  -0.0000000  -0.0000000  -0.0000000
 NQMom=    0.0000000   0.0000000   0.0000000   0.0000000
 NMagM=    2.7928460   2.7928460   2.7928460   2.7928460
 AtZNuc=   1.0000000   1.0000000   1.0000000   1.0000000
 Leave Link  101 at Wed Jul 20 15:42:42 2022, MaxMem=  1342177280 cpu:              21.0 elap:               0.5
 (Enter /home/mkliu/g16/l103.exe)

 GradGradGradGradGradGradGradGradGradGradGradGradGradGradGradGradGradGrad
 Berny optimization.
 Initialization pass.
                           ----------------------------
                           !    Initial Parameters    !
                           ! (Angstroms and Degrees)  !
 --------------------------                            --------------------------
 ! Name  Definition              Value          Derivative Info.                !
 --------------------------------------------------------------------------------
 ! R1    R(1,2)                  1.3866         estimate D2E/DX2                !
 ! R2    R(1,41)                 1.4389         estimate D2E/DX2                !
 ! R3    R(1,65)                 1.4427         estimate D2E/DX2                !
 ! R4    R(2,3)                  1.4399         estimate D2E/DX2                !
 ! R5    R(2,8)                  1.4393         estimate D2E/DX2                !
 ! R6    R(3,4)                  1.3909         estimate D2E/DX2                !
 ! R7    R(3,5)                  1.4219         estimate D2E/DX2                !
 ! R8    R(4,26)                 1.4371         estimate D2E/DX2                !
 ! R9    R(4,39)                 1.4335         estimate D2E/DX2                !
 ! R10   R(5,6)                  1.4634         estimate D2E/DX2                !
 ! R11   R(5,13)                 1.3724         estimate D2E/DX2                !
 ! R12   R(6,8)                  1.4387         estimate D2E/DX2                !
 ! R13   R(6,9)                  1.3691         estimate D2E/DX2                !
 ! R14   R(7,10)                 1.5742         estimate D2E/DX2                !
 ! R15   R(7,23)                 1.5168         estimate D2E/DX2                !
 ! R16   R(7,28)                 1.5046         estimate D2E/DX2                !
 ! R17   R(7,67)                 1.0955         estimate D2E/DX2                !
 ! R18   R(8,63)                 1.3942         estimate D2E/DX2                !
 ! R19   R(9,11)                 1.5117         estimate D2E/DX2                !
 ! R20   R(9,61)                 1.4288         estimate D2E/DX2                !
 ! R21   R(10,21)                1.4908         estimate D2E/DX2                !
 ! R22   R(10,30)                1.5477         estimate D2E/DX2                !
 ! R23   R(10,68)                1.0928         estimate D2E/DX2                !
 ! R24   R(11,12)                1.5795         estimate D2E/DX2                !
 ! R25   R(11,59)                1.5122         estimate D2E/DX2                !
 ! R26   R(11,71)                1.0944         estimate D2E/DX2                !
 ! R27   R(12,13)                1.5046         estimate D2E/DX2                !
 ! R28   R(12,15)                1.5032         estimate D2E/DX2                !
 ! R29   R(12,72)                1.0959         estimate D2E/DX2                !
 ! R30   R(13,25)                1.4329         estimate D2E/DX2                !
 ! R31   R(14,16)                1.3903         estimate D2E/DX2                !
 ! R32   R(14,45)                1.4476         estimate D2E/DX2                !
 ! R33   R(14,55)                1.4211         estimate D2E/DX2                !
 ! R34   R(15,24)                1.4334         estimate D2E/DX2                !
 ! R35   R(15,57)                1.3736         estimate D2E/DX2                !
 ! R36   R(16,17)                1.4192         estimate D2E/DX2                !
 ! R37   R(16,58)                1.4405         estimate D2E/DX2                !
 ! R38   R(17,48)                1.3864         estimate D2E/DX2                !
 ! R39   R(17,56)                1.4274         estimate D2E/DX2                !
 ! R40   R(18,19)                1.4726         estimate D2E/DX2                !
 ! R41   R(18,40)                1.3881         estimate D2E/DX2                !
 ! R42   R(18,47)                1.4344         estimate D2E/DX2                !
 ! R43   R(19,20)                1.3844         estimate D2E/DX2                !
 ! R44   R(19,51)                1.4511         estimate D2E/DX2                !
 ! R45   R(20,45)                1.4735         estimate D2E/DX2                !
 ! R46   R(20,54)                1.4504         estimate D2E/DX2                !
 ! R47   R(21,22)                1.4261         estimate D2E/DX2                !
 ! R48   R(21,50)                1.3585         estimate D2E/DX2                !
 ! R49   R(22,23)                1.4155         estimate D2E/DX2                !
 ! R50   R(22,56)                1.388          estimate D2E/DX2                !
 ! R51   R(23,24)                1.386          estimate D2E/DX2                !
 ! R52   R(24,25)                1.4655         estimate D2E/DX2                !
 ! R53   R(25,26)                1.3918         estimate D2E/DX2                !
 ! R54   R(26,27)                1.4718         estimate D2E/DX2                !
 ! R55   R(27,28)                1.3873         estimate D2E/DX2                !
 ! R56   R(27,38)                1.4342         estimate D2E/DX2                !
 ! R57   R(28,29)                1.4093         estimate D2E/DX2                !
 ! R58   R(29,30)                1.4981         estimate D2E/DX2                !
 ! R59   R(29,35)                1.3759         estimate D2E/DX2                !
 ! R60   R(30,31)                1.5931         estimate D2E/DX2                !
 ! R61   R(30,74)                1.0945         estimate D2E/DX2                !
 ! R62   R(31,32)                1.4983         estimate D2E/DX2                !
 ! R63   R(31,33)                1.5471         estimate D2E/DX2                !
 ! R64   R(31,73)                1.0947         estimate D2E/DX2                !
 ! R65   R(32,34)                1.3752         estimate D2E/DX2                !
 ! R66   R(32,40)                1.4101         estimate D2E/DX2                !
 ! R67   R(33,37)                1.5738         estimate D2E/DX2                !
 ! R68   R(33,50)                1.4912         estimate D2E/DX2                !
 ! R69   R(33,69)                1.0929         estimate D2E/DX2                !
 ! R70   R(34,35)                1.4541         estimate D2E/DX2                !
 ! R71   R(34,44)                1.4159         estimate D2E/DX2                !
 ! R72   R(35,36)                1.4157         estimate D2E/DX2                !
 ! R73   R(36,38)                1.3914         estimate D2E/DX2                !
 ! R74   R(36,43)                1.442          estimate D2E/DX2                !
 ! R75   R(37,40)                1.5061         estimate D2E/DX2                !
 ! R76   R(37,46)                1.5168         estimate D2E/DX2                !
 ! R77   R(37,70)                1.0953         estimate D2E/DX2                !
 ! R78   R(38,39)                1.4313         estimate D2E/DX2                !
 ! R79   R(39,41)                1.3898         estimate D2E/DX2                !
 ! R80   R(41,42)                1.442          estimate D2E/DX2                !
 ! R81   R(42,43)                1.3807         estimate D2E/DX2                !
 ! R82   R(42,66)                1.4423         estimate D2E/DX2                !
 ! R83   R(43,44)                1.4417         estimate D2E/DX2                !
 ! R84   R(44,47)                1.3908         estimate D2E/DX2                !
 ! R85   R(45,46)                1.3781         estimate D2E/DX2                !
 ! R86   R(46,48)                1.4264         estimate D2E/DX2                !
 ! R87   R(47,49)                1.4313         estimate D2E/DX2                !
 ! R88   R(48,50)                1.4247         estimate D2E/DX2                !
 ! R89   R(49,51)                1.431          estimate D2E/DX2                !
 ! R90   R(49,66)                1.3919         estimate D2E/DX2                !
 ! R91   R(51,52)                1.3891         estimate D2E/DX2                !
 ! R92   R(52,53)                1.4258         estimate D2E/DX2                !
 ! R93   R(52,64)                1.4432         estimate D2E/DX2                !
 ! R94   R(53,54)                1.387          estimate D2E/DX2                !
 ! R95   R(53,62)                1.4429         estimate D2E/DX2                !
 ! R96   R(54,55)                1.4308         estimate D2E/DX2                !
 ! R97   R(55,60)                1.3973         estimate D2E/DX2                !
 ! R98   R(56,57)                1.4186         estimate D2E/DX2                !
 ! R99   R(57,58)                1.4623         estimate D2E/DX2                !
 ! R100  R(58,59)                1.3665         estimate D2E/DX2                !
 ! R101  R(59,60)                1.4243         estimate D2E/DX2                !
 ! R102  R(60,61)                1.4337         estimate D2E/DX2                !
 ! R103  R(61,62)                1.3894         estimate D2E/DX2                !
 ! R104  R(62,63)                1.4329         estimate D2E/DX2                !
 ! R105  R(63,64)                1.4406         estimate D2E/DX2                !
 ! R106  R(64,65)                1.3867         estimate D2E/DX2                !
 ! R107  R(65,66)                1.4369         estimate D2E/DX2                !
 ! A1    A(2,1,41)             119.7724         estimate D2E/DX2                !
 ! A2    A(2,1,65)             119.7681         estimate D2E/DX2                !
 ! A3    A(41,1,65)            107.9644         estimate D2E/DX2                !
 ! A4    A(1,2,3)              119.9592         estimate D2E/DX2                !
 ! A5    A(1,2,8)              120.5951         estimate D2E/DX2                !
 ! A6    A(3,2,8)              107.6074         estimate D2E/DX2                !
 ! A7    A(2,3,4)              120.349          estimate D2E/DX2                !
 ! A8    A(2,3,5)              108.8063         estimate D2E/DX2                !
 ! A9    A(4,3,5)              119.3302         estimate D2E/DX2                !
 ! A10   A(3,4,26)             121.8785         estimate D2E/DX2                !
 ! A11   A(3,4,39)             119.01           estimate D2E/DX2                !
 ! A12   A(26,4,39)            109.1849         estimate D2E/DX2                !
 ! A13   A(3,5,6)              107.8678         estimate D2E/DX2                !
 ! A14   A(3,5,13)             119.1647         estimate D2E/DX2                !
 ! A15   A(6,5,13)             120.6019         estimate D2E/DX2                !
 ! A16   A(5,6,8)              107.104          estimate D2E/DX2                !
 ! A17   A(5,6,9)              119.6834         estimate D2E/DX2                !
 ! A18   A(8,6,9)              120.6582         estimate D2E/DX2                !
 ! A19   A(10,7,23)            105.4344         estimate D2E/DX2                !
 ! A20   A(10,7,28)            104.2769         estimate D2E/DX2                !
 ! A21   A(10,7,67)            112.1034         estimate D2E/DX2                !
 ! A22   A(23,7,28)            113.4187         estimate D2E/DX2                !
 ! A23   A(23,7,67)            110.7558         estimate D2E/DX2                !
 ! A24   A(28,7,67)            110.6061         estimate D2E/DX2                !
 ! A25   A(2,8,6)              108.4656         estimate D2E/DX2                !
 ! A26   A(2,8,63)             119.3789         estimate D2E/DX2                !
 ! A27   A(6,8,63)             120.3689         estimate D2E/DX2                !
 ! A28   A(6,9,11)             123.6291         estimate D2E/DX2                !
 ! A29   A(6,9,61)             118.8716         estimate D2E/DX2                !
 ! A30   A(11,9,61)            110.4704         estimate D2E/DX2                !
 ! A31   A(7,10,21)            103.0669         estimate D2E/DX2                !
 ! A32   A(7,10,30)            108.5604         estimate D2E/DX2                !
 ! A33   A(7,10,68)            111.0975         estimate D2E/DX2                !
 ! A34   A(21,10,30)           112.2789         estimate D2E/DX2                !
 ! A35   A(21,10,68)           111.0032         estimate D2E/DX2                !
 ! A36   A(30,10,68)           110.5919         estimate D2E/DX2                !
 ! A37   A(9,11,12)            114.0582         estimate D2E/DX2                !
 ! A38   A(9,11,59)            100.6926         estimate D2E/DX2                !
 ! A39   A(9,11,71)            110.2545         estimate D2E/DX2                !
 ! A40   A(12,11,59)           113.7549         estimate D2E/DX2                !
 ! A41   A(12,11,71)           107.5047         estimate D2E/DX2                !
 ! A42   A(59,11,71)           110.5048         estimate D2E/DX2                !
 ! A43   A(11,12,13)           115.3581         estimate D2E/DX2                !
 ! A44   A(11,12,15)           115.3147         estimate D2E/DX2                !
 ! A45   A(11,12,72)           107.0021         estimate D2E/DX2                !
 ! A46   A(13,12,15)           100.1712         estimate D2E/DX2                !
 ! A47   A(13,12,72)           109.5416         estimate D2E/DX2                !
 ! A48   A(15,12,72)           109.2475         estimate D2E/DX2                !
 ! A49   A(5,13,12)            121.9877         estimate D2E/DX2                !
 ! A50   A(5,13,25)            121.8608         estimate D2E/DX2                !
 ! A51   A(12,13,25)           111.7104         estimate D2E/DX2                !
 ! A52   A(16,14,45)           122.3674         estimate D2E/DX2                !
 ! A53   A(16,14,55)           118.4253         estimate D2E/DX2                !
 ! A54   A(45,14,55)           109.6947         estimate D2E/DX2                !
 ! A55   A(12,15,24)           111.8417         estimate D2E/DX2                !
 ! A56   A(12,15,57)           122.3427         estimate D2E/DX2                !
 ! A57   A(24,15,57)           121.3291         estimate D2E/DX2                !
 ! A58   A(14,16,17)           117.4785         estimate D2E/DX2                !
 ! A59   A(14,16,58)           120.6568         estimate D2E/DX2                !
 ! A60   A(17,16,58)           108.724          estimate D2E/DX2                !
 ! A61   A(16,17,48)           120.0273         estimate D2E/DX2                !
 ! A62   A(16,17,56)           108.1365         estimate D2E/DX2                !
 ! A63   A(48,17,56)           119.0524         estimate D2E/DX2                !
 ! A64   A(19,18,40)           129.5382         estimate D2E/DX2                !
 ! A65   A(19,18,47)           106.7107         estimate D2E/DX2                !
 ! A66   A(40,18,47)           118.1957         estimate D2E/DX2                !
 ! A67   A(18,19,20)           127.2299         estimate D2E/DX2                !
 ! A68   A(18,19,51)           106.9098         estimate D2E/DX2                !
 ! A69   A(20,19,51)           118.5276         estimate D2E/DX2                !
 ! A70   A(19,20,45)           127.0536         estimate D2E/DX2                !
 ! A71   A(19,20,54)           118.2804         estimate D2E/DX2                !
 ! A72   A(45,20,54)           107.0227         estimate D2E/DX2                !
 ! A73   A(10,21,22)           109.5537         estimate D2E/DX2                !
 ! A74   A(10,21,50)           125.7079         estimate D2E/DX2                !
 ! A75   A(22,21,50)           119.4177         estimate D2E/DX2                !
 ! A76   A(21,22,23)           109.7872         estimate D2E/DX2                !
 ! A77   A(21,22,56)           120.3572         estimate D2E/DX2                !
 ! A78   A(23,22,56)           121.5256         estimate D2E/DX2                !
 ! A79   A(7,23,22)            108.0843         estimate D2E/DX2                !
 ! A80   A(7,23,24)            131.1073         estimate D2E/DX2                !
 ! A81   A(22,23,24)           117.8232         estimate D2E/DX2                !
 ! A82   A(15,24,23)           119.7362         estimate D2E/DX2                !
 ! A83   A(15,24,25)           106.7608         estimate D2E/DX2                !
 ! A84   A(23,24,25)           128.6429         estimate D2E/DX2                !
 ! A85   A(13,25,24)           107.3494         estimate D2E/DX2                !
 ! A86   A(13,25,26)           119.6523         estimate D2E/DX2                !
 ! A87   A(24,25,26)           127.0179         estimate D2E/DX2                !
 ! A88   A(4,26,25)            117.8425         estimate D2E/DX2                !
 ! A89   A(4,26,27)            107.0884         estimate D2E/DX2                !
 ! A90   A(25,26,27)           127.5534         estimate D2E/DX2                !
 ! A91   A(26,27,28)           129.4686         estimate D2E/DX2                !
 ! A92   A(26,27,38)           106.6746         estimate D2E/DX2                !
 ! A93   A(28,27,38)           118.2435         estimate D2E/DX2                !
 ! A94   A(7,28,27)            129.0175         estimate D2E/DX2                !
 ! A95   A(7,28,29)            109.4602         estimate D2E/DX2                !
 ! A96   A(27,28,29)           119.9646         estimate D2E/DX2                !
 ! A97   A(28,29,30)           114.5397         estimate D2E/DX2                !
 ! A98   A(28,29,35)           121.1579         estimate D2E/DX2                !
 ! A99   A(30,29,35)           121.5793         estimate D2E/DX2                !
 ! A100  A(10,30,29)           102.5577         estimate D2E/DX2                !
 ! A101  A(10,30,31)           119.1297         estimate D2E/DX2                !
 ! A102  A(10,30,74)           108.3229         estimate D2E/DX2                !
 ! A103  A(29,30,31)           112.8643         estimate D2E/DX2                !
 ! A104  A(29,30,74)           108.2355         estimate D2E/DX2                !
 ! A105  A(31,30,74)           105.3592         estimate D2E/DX2                !
 ! A106  A(30,31,32)           112.9097         estimate D2E/DX2                !
 ! A107  A(30,31,33)           119.1059         estimate D2E/DX2                !
 ! A108  A(30,31,73)           105.3511         estimate D2E/DX2                !
 ! A109  A(32,31,33)           102.524          estimate D2E/DX2                !
 ! A110  A(32,31,73)           108.1909         estimate D2E/DX2                !
 ! A111  A(33,31,73)           108.3859         estimate D2E/DX2                !
 ! A112  A(31,32,34)           121.4775         estimate D2E/DX2                !
 ! A113  A(31,32,40)           114.6239         estimate D2E/DX2                !
 ! A114  A(34,32,40)           121.2678         estimate D2E/DX2                !
 ! A115  A(31,33,37)           108.5695         estimate D2E/DX2                !
 ! A116  A(31,33,50)           112.2057         estimate D2E/DX2                !
 ! A117  A(31,33,69)           110.6244         estimate D2E/DX2                !
 ! A118  A(37,33,50)           103.177          estimate D2E/DX2                !
 ! A119  A(37,33,69)           111.0736         estimate D2E/DX2                !
 ! A120  A(50,33,69)           110.9528         estimate D2E/DX2                !
 ! A121  A(32,34,35)           118.4079         estimate D2E/DX2                !
 ! A122  A(32,34,44)           120.0308         estimate D2E/DX2                !
 ! A123  A(35,34,44)           107.5568         estimate D2E/DX2                !
 ! A124  A(29,35,34)           118.1955         estimate D2E/DX2                !
 ! A125  A(29,35,36)           120.0406         estimate D2E/DX2                !
 ! A126  A(34,35,36)           107.53           estimate D2E/DX2                !
 ! A127  A(35,36,38)           118.6863         estimate D2E/DX2                !
 ! A128  A(35,36,43)           109.0105         estimate D2E/DX2                !
 ! A129  A(38,36,43)           119.2775         estimate D2E/DX2                !
 ! A130  A(33,37,40)           104.3184         estimate D2E/DX2                !
 ! A131  A(33,37,46)           105.5724         estimate D2E/DX2                !
 ! A132  A(33,37,70)           112.1029         estimate D2E/DX2                !
 ! A133  A(40,37,46)           113.1862         estimate D2E/DX2                !
 ! A134  A(40,37,70)           110.651          estimate D2E/DX2                !
 ! A135  A(46,37,70)           110.768          estimate D2E/DX2                !
 ! A136  A(27,38,36)           121.1163         estimate D2E/DX2                !
 ! A137  A(27,38,39)           109.6919         estimate D2E/DX2                !
 ! A138  A(36,38,39)           119.593          estimate D2E/DX2                !
 ! A139  A(4,39,38)            107.2163         estimate D2E/DX2                !
 ! A140  A(4,39,41)            120.7033         estimate D2E/DX2                !
 ! A141  A(38,39,41)           120.6912         estimate D2E/DX2                !
 ! A142  A(18,40,32)           119.8905         estimate D2E/DX2                !
 ! A143  A(18,40,37)           129.3288         estimate D2E/DX2                !
 ! A144  A(32,40,37)           109.2892         estimate D2E/DX2                !
 ! A145  A(1,41,39)            119.7395         estimate D2E/DX2                !
 ! A146  A(1,41,42)            107.9905         estimate D2E/DX2                !
 ! A147  A(39,41,42)           119.1262         estimate D2E/DX2                !
 ! A148  A(41,42,43)           120.0731         estimate D2E/DX2                !
 ! A149  A(41,42,66)           107.7439         estimate D2E/DX2                !
 ! A150  A(43,42,66)           120.0958         estimate D2E/DX2                !
 ! A151  A(36,43,42)           120.2681         estimate D2E/DX2                !
 ! A152  A(36,43,44)           106.3017         estimate D2E/DX2                !
 ! A153  A(42,43,44)           120.1718         estimate D2E/DX2                !
 ! A154  A(34,44,43)           109.0022         estimate D2E/DX2                !
 ! A155  A(34,44,47)           118.6368         estimate D2E/DX2                !
 ! A156  A(43,44,47)           119.4461         estimate D2E/DX2                !
 ! A157  A(14,45,20)           106.3578         estimate D2E/DX2                !
 ! A158  A(14,45,46)           118.6936         estimate D2E/DX2                !
 ! A159  A(20,45,46)           129.0719         estimate D2E/DX2                !
 ! A160  A(37,46,45)           130.6413         estimate D2E/DX2                !
 ! A161  A(37,46,48)           107.9655         estimate D2E/DX2                !
 ! A162  A(45,46,48)           118.3174         estimate D2E/DX2                !
 ! A163  A(18,47,44)           121.2723         estimate D2E/DX2                !
 ! A164  A(18,47,49)           109.8718         estimate D2E/DX2                !
 ! A165  A(44,47,49)           119.5523         estimate D2E/DX2                !
 ! A166  A(17,48,46)           122.3026         estimate D2E/DX2                !
 ! A167  A(17,48,50)           120.1305         estimate D2E/DX2                !
 ! A168  A(46,48,50)           109.7117         estimate D2E/DX2                !
 ! A169  A(47,49,51)           107.4493         estimate D2E/DX2                !
 ! A170  A(47,49,66)           120.6181         estimate D2E/DX2                !
 ! A171  A(51,49,66)           120.886          estimate D2E/DX2                !
 ! A172  A(21,50,33)           125.7081         estimate D2E/DX2                !
 ! A173  A(21,50,48)           119.5112         estimate D2E/DX2                !
 ! A174  A(33,50,48)           109.7754         estimate D2E/DX2                !
 ! A175  A(19,51,49)           108.9304         estimate D2E/DX2                !
 ! A176  A(19,51,52)           122.6294         estimate D2E/DX2                !
 ! A177  A(49,51,52)           118.7928         estimate D2E/DX2                !
 ! A178  A(51,52,53)           118.7378         estimate D2E/DX2                !
 ! A179  A(51,52,64)           120.5773         estimate D2E/DX2                !
 ! A180  A(53,52,64)           108.1903         estimate D2E/DX2                !
 ! A181  A(52,53,54)           118.9327         estimate D2E/DX2                !
 ! A182  A(52,53,62)           108.1509         estimate D2E/DX2                !
 ! A183  A(54,53,62)           120.5262         estimate D2E/DX2                !
 ! A184  A(20,54,53)           122.7719         estimate D2E/DX2                !
 ! A185  A(20,54,55)           108.8            estimate D2E/DX2                !
 ! A186  A(53,54,55)           118.8252         estimate D2E/DX2                !
 ! A187  A(14,55,54)           107.9612         estimate D2E/DX2                !
 ! A188  A(14,55,60)           120.0464         estimate D2E/DX2                !
 ! A189  A(54,55,60)           120.885          estimate D2E/DX2                !
 ! A190  A(17,56,22)           118.3991         estimate D2E/DX2                !
 ! A191  A(17,56,57)           108.6385         estimate D2E/DX2                !
 ! A192  A(22,56,57)           120.2363         estimate D2E/DX2                !
 ! A193  A(15,57,56)           118.1032         estimate D2E/DX2                !
 ! A194  A(15,57,58)           119.5837         estimate D2E/DX2                !
 ! A195  A(56,57,58)           107.8171         estimate D2E/DX2                !
 ! A196  A(16,58,57)           106.2792         estimate D2E/DX2                !
 ! A197  A(16,58,59)           120.149          estimate D2E/DX2                !
 ! A198  A(57,58,59)           120.1867         estimate D2E/DX2                !
 ! A199  A(11,59,58)           123.473          estimate D2E/DX2                !
 ! A200  A(11,59,60)           110.7792         estimate D2E/DX2                !
 ! A201  A(58,59,60)           119.2018         estimate D2E/DX2                !
 ! A202  A(55,60,59)           120.8557         estimate D2E/DX2                !
 ! A203  A(55,60,61)           119.5964         estimate D2E/DX2                !
 ! A204  A(59,60,61)           108.3666         estimate D2E/DX2                !
 ! A205  A(9,61,60)            108.1121         estimate D2E/DX2                !
 ! A206  A(9,61,62)            121.3543         estimate D2E/DX2                !
 ! A207  A(60,61,62)           119.7306         estimate D2E/DX2                !
 ! A208  A(53,62,61)           119.8946         estimate D2E/DX2                !
 ! A209  A(53,62,63)           107.8781         estimate D2E/DX2                !
 ! A210  A(61,62,63)           119.6706         estimate D2E/DX2                !
 ! A211  A(8,63,62)            118.8642         estimate D2E/DX2                !
 ! A212  A(8,63,64)            120.004          estimate D2E/DX2                !
 ! A213  A(62,63,64)           108.0744         estimate D2E/DX2                !
 ! A214  A(52,64,63)           107.6182         estimate D2E/DX2                !
 ! A215  A(52,64,65)           119.7077         estimate D2E/DX2                !
 ! A216  A(63,64,65)           120.2167         estimate D2E/DX2                !
 ! A217  A(1,65,64)            119.8179         estimate D2E/DX2                !
 ! A218  A(1,65,66)            107.9612         estimate D2E/DX2                !
 ! A219  A(64,65,66)           119.8424         estimate D2E/DX2                !
 ! A220  A(42,66,49)           119.1236         estimate D2E/DX2                !
 ! A221  A(42,66,65)           108.066          estimate D2E/DX2                !
 ! A222  A(49,66,65)           119.655          estimate D2E/DX2                !
 ! D1    D(41,1,2,3)            -3.2506         estimate D2E/DX2                !
 ! D2    D(41,1,2,8)          -141.5327         estimate D2E/DX2                !
 ! D3    D(65,1,2,3)           134.1875         estimate D2E/DX2                !
 ! D4    D(65,1,2,8)            -4.0946         estimate D2E/DX2                !
 ! D5    D(2,1,41,39)            3.9555         estimate D2E/DX2                !
 ! D6    D(2,1,41,42)          144.7521         estimate D2E/DX2                !
 ! D7    D(65,1,41,39)        -137.9309         estimate D2E/DX2                !
 ! D8    D(65,1,41,42)           2.8657         estimate D2E/DX2                !
 ! D9    D(2,1,65,64)            0.5765         estimate D2E/DX2                !
 ! D10   D(2,1,65,66)         -141.4895         estimate D2E/DX2                !
 ! D11   D(41,1,65,64)         142.4649         estimate D2E/DX2                !
 ! D12   D(41,1,65,66)           0.3989         estimate D2E/DX2                !
 ! D13   D(1,2,3,4)             -2.4154         estimate D2E/DX2                !
 ! D14   D(1,2,3,5)           -145.4533         estimate D2E/DX2                !
 ! D15   D(8,2,3,4)            140.6448         estimate D2E/DX2                !
 ! D16   D(8,2,3,5)             -2.3931         estimate D2E/DX2                !
 ! D17   D(1,2,8,6)            146.6175         estimate D2E/DX2                !
 ! D18   D(1,2,8,63)             3.5192         estimate D2E/DX2                !
 ! D19   D(3,2,8,6)              3.838          estimate D2E/DX2                !
 ! D20   D(3,2,8,63)          -139.2604         estimate D2E/DX2                !
 ! D21   D(2,3,4,26)          -134.7001         estimate D2E/DX2                !
 ! D22   D(2,3,4,39)             7.2418         estimate D2E/DX2                !
 ! D23   D(5,3,4,26)             4.541          estimate D2E/DX2                !
 ! D24   D(5,3,4,39)           146.4829         estimate D2E/DX2                !
 ! D25   D(2,3,5,6)              0.0558         estimate D2E/DX2                !
 ! D26   D(2,3,5,13)           142.4687         estimate D2E/DX2                !
 ! D27   D(4,3,5,6)           -143.4184         estimate D2E/DX2                !
 ! D28   D(4,3,5,13)            -1.0055         estimate D2E/DX2                !
 ! D29   D(3,4,26,25)           -3.2504         estimate D2E/DX2                !
 ! D30   D(3,4,26,27)          148.8181         estimate D2E/DX2                !
 ! D31   D(39,4,26,25)        -148.4431         estimate D2E/DX2                !
 ! D32   D(39,4,26,27)           3.6253         estimate D2E/DX2                !
 ! D33   D(3,4,39,38)         -150.2011         estimate D2E/DX2                !
 ! D34   D(3,4,39,41)           -6.5448         estimate D2E/DX2                !
 ! D35   D(26,4,39,38)          -3.8609         estimate D2E/DX2                !
 ! D36   D(26,4,39,41)         139.7953         estimate D2E/DX2                !
 ! D37   D(3,5,6,8)              2.2976         estimate D2E/DX2                !
 ! D38   D(3,5,6,9)            144.4359         estimate D2E/DX2                !
 ! D39   D(13,5,6,8)          -139.4723         estimate D2E/DX2                !
 ! D40   D(13,5,6,9)             2.6661         estimate D2E/DX2                !
 ! D41   D(3,5,13,12)         -158.1076         estimate D2E/DX2                !
 ! D42   D(3,5,13,25)           -3.7285         estimate D2E/DX2                !
 ! D43   D(6,5,13,12)          -20.5217         estimate D2E/DX2                !
 ! D44   D(6,5,13,25)          133.8574         estimate D2E/DX2                !
 ! D45   D(5,6,8,2)             -3.7822         estimate D2E/DX2                !
 ! D46   D(5,6,8,63)           138.8858         estimate D2E/DX2                !
 ! D47   D(9,6,8,2)           -145.4765         estimate D2E/DX2                !
 ! D48   D(9,6,8,63)            -2.8085         estimate D2E/DX2                !
 ! D49   D(5,6,9,11)            15.7765         estimate D2E/DX2                !
 ! D50   D(5,6,9,61)          -132.0431         estimate D2E/DX2                !
 ! D51   D(8,6,9,11)           152.782          estimate D2E/DX2                !
 ! D52   D(8,6,9,61)             4.9624         estimate D2E/DX2                !
 ! D53   D(23,7,10,21)           8.3791         estimate D2E/DX2                !
 ! D54   D(23,7,10,30)         127.6197         estimate D2E/DX2                !
 ! D55   D(23,7,10,68)        -110.5634         estimate D2E/DX2                !
 ! D56   D(28,7,10,21)        -111.3378         estimate D2E/DX2                !
 ! D57   D(28,7,10,30)           7.9028         estimate D2E/DX2                !
 ! D58   D(28,7,10,68)         129.7198         estimate D2E/DX2                !
 ! D59   D(67,7,10,21)         128.972          estimate D2E/DX2                !
 ! D60   D(67,7,10,30)        -111.7874         estimate D2E/DX2                !
 ! D61   D(67,7,10,68)          10.0296         estimate D2E/DX2                !
 ! D62   D(10,7,23,22)           3.7444         estimate D2E/DX2                !
 ! D63   D(10,7,23,24)        -155.7407         estimate D2E/DX2                !
 ! D64   D(28,7,23,22)         117.2216         estimate D2E/DX2                !
 ! D65   D(28,7,23,24)         -42.2635         estimate D2E/DX2                !
 ! D66   D(67,7,23,22)        -117.7277         estimate D2E/DX2                !
 ! D67   D(67,7,23,24)          82.7872         estimate D2E/DX2                !
 ! D68   D(10,7,28,27)         158.6472         estimate D2E/DX2                !
 ! D69   D(10,7,28,29)          -6.8426         estimate D2E/DX2                !
 ! D70   D(23,7,28,27)          44.4747         estimate D2E/DX2                !
 ! D71   D(23,7,28,29)        -121.0151         estimate D2E/DX2                !
 ! D72   D(67,7,28,27)         -80.6564         estimate D2E/DX2                !
 ! D73   D(67,7,28,29)         113.8537         estimate D2E/DX2                !
 ! D74   D(2,8,63,62)          137.2221         estimate D2E/DX2                !
 ! D75   D(2,8,63,64)            0.555          estimate D2E/DX2                !
 ! D76   D(6,8,63,62)           -1.4702         estimate D2E/DX2                !
 ! D77   D(6,8,63,64)         -138.1373         estimate D2E/DX2                !
 ! D78   D(6,9,11,12)          -15.2791         estimate D2E/DX2                !
 ! D79   D(6,9,11,59)         -137.5036         estimate D2E/DX2                !
 ! D80   D(6,9,11,71)          105.7754         estimate D2E/DX2                !
 ! D81   D(61,9,11,12)         134.8648         estimate D2E/DX2                !
 ! D82   D(61,9,11,59)          12.6402         estimate D2E/DX2                !
 ! D83   D(61,9,11,71)        -104.0808         estimate D2E/DX2                !
 ! D84   D(6,9,61,60)          141.1637         estimate D2E/DX2                !
 ! D85   D(6,9,61,62)           -2.9614         estimate D2E/DX2                !
 ! D86   D(11,9,61,60)         -10.5848         estimate D2E/DX2                !
 ! D87   D(11,9,61,62)        -154.7099         estimate D2E/DX2                !
 ! D88   D(7,10,21,22)         -17.9331         estimate D2E/DX2                !
 ! D89   D(7,10,21,50)         135.8597         estimate D2E/DX2                !
 ! D90   D(30,10,21,22)       -134.5625         estimate D2E/DX2                !
 ! D91   D(30,10,21,50)         19.2303         estimate D2E/DX2                !
 ! D92   D(68,10,21,22)        101.0749         estimate D2E/DX2                !
 ! D93   D(68,10,21,50)       -105.1323         estimate D2E/DX2                !
 ! D94   D(7,10,30,29)          -5.9256         estimate D2E/DX2                !
 ! D95   D(7,10,30,31)        -131.3652         estimate D2E/DX2                !
 ! D96   D(7,10,30,74)         108.3723         estimate D2E/DX2                !
 ! D97   D(21,10,30,29)        107.3589         estimate D2E/DX2                !
 ! D98   D(21,10,30,31)        -18.0807         estimate D2E/DX2                !
 ! D99   D(21,10,30,74)       -138.3432         estimate D2E/DX2                !
 ! D100  D(68,10,30,29)       -128.051          estimate D2E/DX2                !
 ! D101  D(68,10,30,31)        106.5094         estimate D2E/DX2                !
 ! D102  D(68,10,30,74)        -13.7531         estimate D2E/DX2                !
 ! D103  D(9,11,12,13)          -1.8048         estimate D2E/DX2                !
 ! D104  D(9,11,12,15)        -117.9314         estimate D2E/DX2                !
 ! D105  D(9,11,12,72)         120.3352         estimate D2E/DX2                !
 ! D106  D(59,11,12,13)        112.9341         estimate D2E/DX2                !
 ! D107  D(59,11,12,15)         -3.1925         estimate D2E/DX2                !
 ! D108  D(59,11,12,72)       -124.9259         estimate D2E/DX2                !
 ! D109  D(71,11,12,13)       -124.3754         estimate D2E/DX2                !
 ! D110  D(71,11,12,15)        119.4981         estimate D2E/DX2                !
 ! D111  D(71,11,12,72)         -2.2354         estimate D2E/DX2                !
 ! D112  D(9,11,59,58)         140.726          estimate D2E/DX2                !
 ! D113  D(9,11,59,60)         -10.4948         estimate D2E/DX2                !
 ! D114  D(12,11,59,58)         18.2891         estimate D2E/DX2                !
 ! D115  D(12,11,59,60)       -132.9317         estimate D2E/DX2                !
 ! D116  D(71,11,59,58)       -102.7385         estimate D2E/DX2                !
 ! D117  D(71,11,59,60)        106.0407         estimate D2E/DX2                !
 ! D118  D(11,12,13,5)          19.2129         estimate D2E/DX2                !
 ! D119  D(11,12,13,25)       -137.5021         estimate D2E/DX2                !
 ! D120  D(15,12,13,5)         143.6683         estimate D2E/DX2                !
 ! D121  D(15,12,13,25)        -13.0467         estimate D2E/DX2                !
 ! D122  D(72,12,13,5)        -101.5563         estimate D2E/DX2                !
 ! D123  D(72,12,13,25)        101.7287         estimate D2E/DX2                !
 ! D124  D(11,12,15,24)        139.2658         estimate D2E/DX2                !
 ! D125  D(11,12,15,57)        -17.2009         estimate D2E/DX2                !
 ! D126  D(13,12,15,24)         14.7804         estimate D2E/DX2                !
 ! D127  D(13,12,15,57)       -141.6863         estimate D2E/DX2                !
 ! D128  D(72,12,15,24)       -100.2181         estimate D2E/DX2                !
 ! D129  D(72,12,15,57)        103.3152         estimate D2E/DX2                !
 ! D130  D(5,13,25,24)        -149.6401         estimate D2E/DX2                !
 ! D131  D(5,13,25,26)           5.0039         estimate D2E/DX2                !
 ! D132  D(12,13,25,24)          7.1089         estimate D2E/DX2                !
 ! D133  D(12,13,25,26)        161.7529         estimate D2E/DX2                !
 ! D134  D(45,14,16,17)         -3.572          estimate D2E/DX2                !
 ! D135  D(45,14,16,58)        133.2216         estimate D2E/DX2                !
 ! D136  D(55,14,16,17)       -146.3944         estimate D2E/DX2                !
 ! D137  D(55,14,16,58)         -9.6008         estimate D2E/DX2                !
 ! D138  D(16,14,45,20)       -145.528          estimate D2E/DX2                !
 ! D139  D(16,14,45,46)          9.9079         estimate D2E/DX2                !
 ! D140  D(55,14,45,20)          0.1077         estimate D2E/DX2                !
 ! D141  D(55,14,45,46)        155.5436         estimate D2E/DX2                !
 ! D142  D(16,14,55,54)        149.5578         estimate D2E/DX2                !
 ! D143  D(16,14,55,60)          5.3743         estimate D2E/DX2                !
 ! D144  D(45,14,55,54)          2.3854         estimate D2E/DX2                !
 ! D145  D(45,14,55,60)       -141.7981         estimate D2E/DX2                !
 ! D146  D(12,15,24,23)       -168.8435         estimate D2E/DX2                !
 ! D147  D(12,15,24,25)        -11.4582         estimate D2E/DX2                !
 ! D148  D(57,15,24,23)        -12.1045         estimate D2E/DX2                !
 ! D149  D(57,15,24,25)        145.2808         estimate D2E/DX2                !
 ! D150  D(12,15,57,56)        158.3928         estimate D2E/DX2                !
 ! D151  D(12,15,57,58)         23.8018         estimate D2E/DX2                !
 ! D152  D(24,15,57,56)          4.1069         estimate D2E/DX2                !
 ! D153  D(24,15,57,58)       -130.484          estimate D2E/DX2                !
 ! D154  D(14,16,17,48)         -3.9184         estimate D2E/DX2                !
 ! D155  D(14,16,17,56)        137.2994         estimate D2E/DX2                !
 ! D156  D(58,16,17,48)       -145.4667         estimate D2E/DX2                !
 ! D157  D(58,16,17,56)         -4.2489         estimate D2E/DX2                !
 ! D158  D(14,16,58,57)       -133.7698         estimate D2E/DX2                !
 ! D159  D(14,16,58,59)          7.07           estimate D2E/DX2                !
 ! D160  D(17,16,58,57)          6.3388         estimate D2E/DX2                !
 ! D161  D(17,16,58,59)        147.1787         estimate D2E/DX2                !
 ! D162  D(16,17,48,46)          5.3087         estimate D2E/DX2                !
 ! D163  D(16,17,48,50)        151.2364         estimate D2E/DX2                !
 ! D164  D(56,17,48,46)       -131.7758         estimate D2E/DX2                !
 ! D165  D(56,17,48,50)         14.1519         estimate D2E/DX2                !
 ! D166  D(16,17,56,22)       -141.4992         estimate D2E/DX2                !
 ! D167  D(16,17,56,57)          0.3611         estimate D2E/DX2                !
 ! D168  D(48,17,56,22)          0.159          estimate D2E/DX2                !
 ! D169  D(48,17,56,57)        142.0193         estimate D2E/DX2                !
 ! D170  D(40,18,19,20)          5.0499         estimate D2E/DX2                !
 ! D171  D(40,18,19,51)        154.1347         estimate D2E/DX2                !
 ! D172  D(47,18,19,20)       -147.5098         estimate D2E/DX2                !
 ! D173  D(47,18,19,51)          1.575          estimate D2E/DX2                !
 ! D174  D(19,18,40,32)       -144.4273         estimate D2E/DX2                !
 ! D175  D(19,18,40,37)         20.0519         estimate D2E/DX2                !
 ! D176  D(47,18,40,32)          5.5206         estimate D2E/DX2                !
 ! D177  D(47,18,40,37)        169.9998         estimate D2E/DX2                !
 ! D178  D(19,18,47,44)        147.0995         estimate D2E/DX2                !
 ! D179  D(19,18,47,49)          0.6796         estimate D2E/DX2                !
 ! D180  D(40,18,47,44)         -9.1199         estimate D2E/DX2                !
 ! D181  D(40,18,47,49)       -155.5398         estimate D2E/DX2                !
 ! D182  D(18,19,20,45)         -0.3523         estimate D2E/DX2                !
 ! D183  D(18,19,20,54)        145.0082         estimate D2E/DX2                !
 ! D184  D(51,19,20,45)       -146.3322         estimate D2E/DX2                !
 ! D185  D(51,19,20,54)         -0.9717         estimate D2E/DX2                !
 ! D186  D(18,19,51,49)         -3.2682         estimate D2E/DX2                !
 ! D187  D(18,19,51,52)       -148.7747         estimate D2E/DX2                !
 ! D188  D(20,19,51,49)        148.9828         estimate D2E/DX2                !
 ! D189  D(20,19,51,52)          3.4763         estimate D2E/DX2                !
 ! D190  D(19,20,45,14)        145.9197         estimate D2E/DX2                !
 ! D191  D(19,20,45,46)         -6.0648         estimate D2E/DX2                !
 ! D192  D(54,20,45,14)         -2.513          estimate D2E/DX2                !
 ! D193  D(54,20,45,46)       -154.4975         estimate D2E/DX2                !
 ! D194  D(19,20,54,53)         -2.0782         estimate D2E/DX2                !
 ! D195  D(19,20,54,55)       -147.6542         estimate D2E/DX2                !
 ! D196  D(45,20,54,53)        149.6004         estimate D2E/DX2                !
 ! D197  D(45,20,54,55)          4.0244         estimate D2E/DX2                !
 ! D198  D(10,21,22,23)         21.6415         estimate D2E/DX2                !
 ! D199  D(10,21,22,56)        170.3682         estimate D2E/DX2                !
 ! D200  D(50,21,22,23)       -134.0483         estimate D2E/DX2                !
 ! D201  D(50,21,22,56)         14.6784         estimate D2E/DX2                !
 ! D202  D(10,21,50,33)          0.6677         estimate D2E/DX2                !
 ! D203  D(10,21,50,48)       -151.6628         estimate D2E/DX2                !
 ! D204  D(22,21,50,33)        152.1291         estimate D2E/DX2                !
 ! D205  D(22,21,50,48)         -0.2013         estimate D2E/DX2                !
 ! D206  D(21,22,23,7)         -15.4042         estimate D2E/DX2                !
 ! D207  D(21,22,23,24)        147.2237         estimate D2E/DX2                !
 ! D208  D(56,22,23,7)        -163.7019         estimate D2E/DX2                !
 ! D209  D(56,22,23,24)         -1.074          estimate D2E/DX2                !
 ! D210  D(21,22,56,17)        -14.5277         estimate D2E/DX2                !
 ! D211  D(21,22,56,57)       -151.8916         estimate D2E/DX2                !
 ! D212  D(23,22,56,17)        130.5092         estimate D2E/DX2                !
 ! D213  D(23,22,56,57)         -6.8547         estimate D2E/DX2                !
 ! D214  D(7,23,24,15)         168.1398         estimate D2E/DX2                !
 ! D215  D(7,23,24,25)          16.2656         estimate D2E/DX2                !
 ! D216  D(22,23,24,15)         10.2684         estimate D2E/DX2                !
 ! D217  D(22,23,24,25)       -141.6058         estimate D2E/DX2                !
 ! D218  D(15,24,25,13)          2.5865         estimate D2E/DX2                !
 ! D219  D(15,24,25,26)       -149.6317         estimate D2E/DX2                !
 ! D220  D(23,24,25,13)        157.2779         estimate D2E/DX2                !
 ! D221  D(23,24,25,26)          5.0597         estimate D2E/DX2                !
 ! D222  D(13,25,26,4)          -1.4532         estimate D2E/DX2                !
 ! D223  D(13,25,26,27)       -147.0673         estimate D2E/DX2                !
 ! D224  D(24,25,26,4)         147.7535         estimate D2E/DX2                !
 ! D225  D(24,25,26,27)          2.1394         estimate D2E/DX2                !
 ! D226  D(4,26,27,28)        -154.4187         estimate D2E/DX2                !
 ! D227  D(4,26,27,38)          -1.9763         estimate D2E/DX2                !
 ! D228  D(25,26,27,28)         -5.9154         estimate D2E/DX2                !
 ! D229  D(25,26,27,38)        146.5271         estimate D2E/DX2                !
 ! D230  D(26,27,28,7)         -20.3532         estimate D2E/DX2                !
 ! D231  D(26,27,28,29)        143.8225         estimate D2E/DX2                !
 ! D232  D(38,27,28,7)        -170.1493         estimate D2E/DX2                !
 ! D233  D(38,27,28,29)         -5.9736         estimate D2E/DX2                !
 ! D234  D(26,27,38,36)       -146.3461         estimate D2E/DX2                !
 ! D235  D(26,27,38,39)         -0.3813         estimate D2E/DX2                !
 ! D236  D(28,27,38,36)          9.737          estimate D2E/DX2                !
 ! D237  D(28,27,38,39)        155.7018         estimate D2E/DX2                !
 ! D238  D(7,28,29,30)           3.4097         estimate D2E/DX2                !
 ! D239  D(7,28,29,35)         164.99           estimate D2E/DX2                !
 ! D240  D(27,28,29,30)       -163.605          estimate D2E/DX2                !
 ! D241  D(27,28,29,35)         -2.0246         estimate D2E/DX2                !
 ! D242  D(28,29,30,10)          1.7179         estimate D2E/DX2                !
 ! D243  D(28,29,30,31)        131.151          estimate D2E/DX2                !
 ! D244  D(28,29,30,74)       -112.6439         estimate D2E/DX2                !
 ! D245  D(35,29,30,10)       -159.7767         estimate D2E/DX2                !
 ! D246  D(35,29,30,31)        -30.3436         estimate D2E/DX2                !
 ! D247  D(35,29,30,74)         85.8616         estimate D2E/DX2                !
 ! D248  D(28,29,35,34)       -128.2444         estimate D2E/DX2                !
 ! D249  D(28,29,35,36)          6.5699         estimate D2E/DX2                !
 ! D250  D(30,29,35,34)         32.0373         estimate D2E/DX2                !
 ! D251  D(30,29,35,36)        166.8516         estimate D2E/DX2                !
 ! D252  D(10,30,31,32)        120.2208         estimate D2E/DX2                !
 ! D253  D(10,30,31,33)         -0.0924         estimate D2E/DX2                !
 ! D254  D(10,30,31,73)       -121.9085         estimate D2E/DX2                !
 ! D255  D(29,30,31,32)         -0.1186         estimate D2E/DX2                !
 ! D256  D(29,30,31,33)       -120.4318         estimate D2E/DX2                !
 ! D257  D(29,30,31,73)        117.7521         estimate D2E/DX2                !
 ! D258  D(74,30,31,32)       -118.024          estimate D2E/DX2                !
 ! D259  D(74,30,31,33)        121.6629         estimate D2E/DX2                !
 ! D260  D(74,30,31,73)         -0.1533         estimate D2E/DX2                !
 ! D261  D(30,31,32,34)         30.4056         estimate D2E/DX2                !
 ! D262  D(30,31,32,40)       -131.4185         estimate D2E/DX2                !
 ! D263  D(33,31,32,34)        159.813          estimate D2E/DX2                !
 ! D264  D(33,31,32,40)         -2.011          estimate D2E/DX2                !
 ! D265  D(73,31,32,34)        -85.7875         estimate D2E/DX2                !
 ! D266  D(73,31,32,40)        112.3884         estimate D2E/DX2                !
 ! D267  D(30,31,33,37)        131.8369         estimate D2E/DX2                !
 ! D268  D(30,31,33,50)         18.4536         estimate D2E/DX2                !
 ! D269  D(30,31,33,69)       -106.0409         estimate D2E/DX2                !
 ! D270  D(32,31,33,37)          6.3814         estimate D2E/DX2                !
 ! D271  D(32,31,33,50)       -107.0019         estimate D2E/DX2                !
 ! D272  D(32,31,33,69)        128.5035         estimate D2E/DX2                !
 ! D273  D(73,31,33,37)       -107.8756         estimate D2E/DX2                !
 ! D274  D(73,31,33,50)        138.7412         estimate D2E/DX2                !
 ! D275  D(73,31,33,69)         14.2466         estimate D2E/DX2                !
 ! D276  D(31,32,34,35)        -31.8503         estimate D2E/DX2                !
 ! D277  D(31,32,34,44)       -166.9866         estimate D2E/DX2                !
 ! D278  D(40,32,34,35)        128.7743         estimate D2E/DX2                !
 ! D279  D(40,32,34,44)         -6.362          estimate D2E/DX2                !
 ! D280  D(31,32,40,18)        163.9341         estimate D2E/DX2                !
 ! D281  D(31,32,40,37)         -3.3982         estimate D2E/DX2                !
 ! D282  D(34,32,40,18)          2.0681         estimate D2E/DX2                !
 ! D283  D(34,32,40,37)       -165.2642         estimate D2E/DX2                !
 ! D284  D(31,33,37,40)         -8.3727         estimate D2E/DX2                !
 ! D285  D(31,33,37,46)       -127.9079         estimate D2E/DX2                !
 ! D286  D(31,33,37,70)        111.3967         estimate D2E/DX2                !
 ! D287  D(50,33,37,40)        110.8446         estimate D2E/DX2                !
 ! D288  D(50,33,37,46)         -8.6906         estimate D2E/DX2                !
 ! D289  D(50,33,37,70)       -129.386          estimate D2E/DX2                !
 ! D290  D(69,33,37,40)       -130.2209         estimate D2E/DX2                !
 ! D291  D(69,33,37,46)        110.2439         estimate D2E/DX2                !
 ! D292  D(69,33,37,70)        -10.4515         estimate D2E/DX2                !
 ! D293  D(31,33,50,21)        -20.1873         estimate D2E/DX2                !
 ! D294  D(31,33,50,48)        134.3801         estimate D2E/DX2                !
 ! D295  D(37,33,50,21)       -136.8565         estimate D2E/DX2                !
 ! D296  D(37,33,50,48)         17.7109         estimate D2E/DX2                !
 ! D297  D(69,33,50,21)        104.1253         estimate D2E/DX2                !
 ! D298  D(69,33,50,48)       -101.3074         estimate D2E/DX2                !
 ! D299  D(32,34,35,29)         -0.1357         estimate D2E/DX2                !
 ! D300  D(32,34,35,36)       -140.0442         estimate D2E/DX2                !
 ! D301  D(44,34,35,29)        140.0305         estimate D2E/DX2                !
 ! D302  D(44,34,35,36)          0.1221         estimate D2E/DX2                !
 ! D303  D(32,34,44,43)        144.0697         estimate D2E/DX2                !
 ! D304  D(32,34,44,47)          2.768          estimate D2E/DX2                !
 ! D305  D(35,34,44,43)          4.671          estimate D2E/DX2                !
 ! D306  D(35,34,44,47)       -136.6307         estimate D2E/DX2                !
 ! D307  D(29,35,36,38)         -2.8077         estimate D2E/DX2                !
 ! D308  D(29,35,36,43)       -143.8982         estimate D2E/DX2                !
 ! D309  D(34,35,36,38)        136.222          estimate D2E/DX2                !
 ! D310  D(34,35,36,43)         -4.8686         estimate D2E/DX2                !
 ! D311  D(35,36,38,27)         -5.3511         estimate D2E/DX2                !
 ! D312  D(35,36,38,39)       -148.0486         estimate D2E/DX2                !
 ! D313  D(43,36,38,27)        131.7429         estimate D2E/DX2                !
 ! D314  D(43,36,38,39)        -10.9547         estimate D2E/DX2                !
 ! D315  D(35,36,43,42)        148.6211         estimate D2E/DX2                !
 ! D316  D(35,36,43,44)          7.6366         estimate D2E/DX2                !
 ! D317  D(38,36,43,42)          7.7961         estimate D2E/DX2                !
 ! D318  D(38,36,43,44)       -133.1884         estimate D2E/DX2                !
 ! D319  D(33,37,40,18)       -158.6518         estimate D2E/DX2                !
 ! D320  D(33,37,40,32)          7.1195         estimate D2E/DX2                !
 ! D321  D(46,37,40,18)        -44.4011         estimate D2E/DX2                !
 ! D322  D(46,37,40,32)        121.3703         estimate D2E/DX2                !
 ! D323  D(70,37,40,18)         80.6045         estimate D2E/DX2                !
 ! D324  D(70,37,40,32)       -113.6241         estimate D2E/DX2                !
 ! D325  D(33,37,46,45)        156.3995         estimate D2E/DX2                !
 ! D326  D(33,37,46,48)         -2.9102         estimate D2E/DX2                !
 ! D327  D(40,37,46,45)         42.9051         estimate D2E/DX2                !
 ! D328  D(40,37,46,48)       -116.4045         estimate D2E/DX2                !
 ! D329  D(70,37,46,45)        -82.0373         estimate D2E/DX2                !
 ! D330  D(70,37,46,48)        118.653          estimate D2E/DX2                !
 ! D331  D(27,38,39,4)           2.598          estimate D2E/DX2                !
 ! D332  D(27,38,39,41)       -141.0635         estimate D2E/DX2                !
 ! D333  D(36,38,39,4)         149.1586         estimate D2E/DX2                !
 ! D334  D(36,38,39,41)          5.4971         estimate D2E/DX2                !
 ! D335  D(4,39,41,1)            0.954          estimate D2E/DX2                !
 ! D336  D(4,39,41,42)        -135.5586         estimate D2E/DX2                !
 ! D337  D(38,39,41,1)         139.7852         estimate D2E/DX2                !
 ! D338  D(38,39,41,42)          3.2726         estimate D2E/DX2                !
 ! D339  D(1,41,42,43)        -147.5532         estimate D2E/DX2                !
 ! D340  D(1,41,42,66)          -5.0225         estimate D2E/DX2                !
 ! D341  D(39,41,42,43)         -6.4758         estimate D2E/DX2                !
 ! D342  D(39,41,42,66)        136.0549         estimate D2E/DX2                !
 ! D343  D(41,42,43,36)          0.9849         estimate D2E/DX2                !
 ! D344  D(41,42,43,44)        136.6455         estimate D2E/DX2                !
 ! D345  D(66,42,43,36)       -136.9729         estimate D2E/DX2                !
 ! D346  D(66,42,43,44)         -1.3123         estimate D2E/DX2                !
 ! D347  D(41,42,66,49)       -135.7564         estimate D2E/DX2                !
 ! D348  D(41,42,66,65)          5.2747         estimate D2E/DX2                !
 ! D349  D(43,42,66,49)          6.7642         estimate D2E/DX2                !
 ! D350  D(43,42,66,65)        147.7953         estimate D2E/DX2                !
 ! D351  D(36,43,44,34)         -7.5576         estimate D2E/DX2                !
 ! D352  D(36,43,44,47)        133.3818         estimate D2E/DX2                !
 ! D353  D(42,43,44,34)       -148.5876         estimate D2E/DX2                !
 ! D354  D(42,43,44,47)         -7.6482         estimate D2E/DX2                !
 ! D355  D(34,44,47,18)          4.9802         estimate D2E/DX2                !
 ! D356  D(34,44,47,49)        148.2564         estimate D2E/DX2                !
 ! D357  D(43,44,47,18)       -132.2665         estimate D2E/DX2                !
 ! D358  D(43,44,47,49)         11.0096         estimate D2E/DX2                !
 ! D359  D(14,45,46,37)       -165.9086         estimate D2E/DX2                !
 ! D360  D(14,45,46,48)         -8.3523         estimate D2E/DX2                !
 ! D361  D(20,45,46,37)        -16.8252         estimate D2E/DX2                !
 ! D362  D(20,45,46,48)        140.7311         estimate D2E/DX2                !
 ! D363  D(37,46,48,17)        163.3653         estimate D2E/DX2                !
 ! D364  D(37,46,48,50)         14.3428         estimate D2E/DX2                !
 ! D365  D(45,46,48,17)          1.0958         estimate D2E/DX2                !
 ! D366  D(45,46,48,50)       -147.9266         estimate D2E/DX2                !
 ! D367  D(18,47,49,51)         -2.7045         estimate D2E/DX2                !
 ! D368  D(18,47,49,66)        141.518          estimate D2E/DX2                !
 ! D369  D(44,47,49,51)       -149.7864         estimate D2E/DX2                !
 ! D370  D(44,47,49,66)         -5.5638         estimate D2E/DX2                !
 ! D371  D(17,48,50,21)        -14.213          estimate D2E/DX2                !
 ! D372  D(17,48,50,33)       -170.591          estimate D2E/DX2                !
 ! D373  D(46,48,50,21)        135.5876         estimate D2E/DX2                !
 ! D374  D(46,48,50,33)        -20.7904         estimate D2E/DX2                !
 ! D375  D(47,49,51,19)          3.6907         estimate D2E/DX2                !
 ! D376  D(47,49,51,52)        150.7194         estimate D2E/DX2                !
 ! D377  D(66,49,51,19)       -140.4168         estimate D2E/DX2                !
 ! D378  D(66,49,51,52)          6.612          estimate D2E/DX2                !
 ! D379  D(47,49,66,42)         -3.3586         estimate D2E/DX2                !
 ! D380  D(47,49,66,65)       -139.8859         estimate D2E/DX2                !
 ! D381  D(51,49,66,42)        136.1076         estimate D2E/DX2                !
 ! D382  D(51,49,66,65)         -0.4197         estimate D2E/DX2                !
 ! D383  D(19,51,52,53)         -2.8591         estimate D2E/DX2                !
 ! D384  D(19,51,52,64)        134.6621         estimate D2E/DX2                !
 ! D385  D(49,51,52,53)       -145.1789         estimate D2E/DX2                !
 ! D386  D(49,51,52,64)         -7.6577         estimate D2E/DX2                !
 ! D387  D(51,52,53,54)         -0.2317         estimate D2E/DX2                !
 ! D388  D(51,52,53,62)        142.139          estimate D2E/DX2                !
 ! D389  D(64,52,53,54)       -142.4979         estimate D2E/DX2                !
 ! D390  D(64,52,53,62)         -0.1271         estimate D2E/DX2                !
 ! D391  D(51,52,64,63)       -139.5386         estimate D2E/DX2                !
 ! D392  D(51,52,64,65)          2.5666         estimate D2E/DX2                !
 ! D393  D(53,52,64,63)          1.9048         estimate D2E/DX2                !
 ! D394  D(53,52,64,65)        144.01           estimate D2E/DX2                !
 ! D395  D(52,53,54,20)          2.7165         estimate D2E/DX2                !
 ! D396  D(52,53,54,55)        145.0663         estimate D2E/DX2                !
 ! D397  D(62,53,54,20)       -134.9442         estimate D2E/DX2                !
 ! D398  D(62,53,54,55)          7.4056         estimate D2E/DX2                !
 ! D399  D(52,53,62,61)       -143.4692         estimate D2E/DX2                !
 ! D400  D(52,53,62,63)         -1.7113         estimate D2E/DX2                !
 ! D401  D(54,53,62,61)         -1.809          estimate D2E/DX2                !
 ! D402  D(54,53,62,63)        139.9488         estimate D2E/DX2                !
 ! D403  D(20,54,55,14)         -3.9874         estimate D2E/DX2                !
 ! D404  D(20,54,55,60)        139.8378         estimate D2E/DX2                !
 ! D405  D(53,54,55,14)       -151.1294         estimate D2E/DX2                !
 ! D406  D(53,54,55,60)         -7.3042         estimate D2E/DX2                !
 ! D407  D(14,55,60,59)          1.4889         estimate D2E/DX2                !
 ! D408  D(14,55,60,61)        141.0824         estimate D2E/DX2                !
 ! D409  D(54,55,60,59)       -138.0712         estimate D2E/DX2                !
 ! D410  D(54,55,60,61)          1.5224         estimate D2E/DX2                !
 ! D411  D(17,56,57,15)       -135.8321         estimate D2E/DX2                !
 ! D412  D(17,56,57,58)          3.5886         estimate D2E/DX2                !
 ! D413  D(22,56,57,15)          5.206          estimate D2E/DX2                !
 ! D414  D(22,56,57,58)        144.6267         estimate D2E/DX2                !
 ! D415  D(15,57,58,16)        132.6393         estimate D2E/DX2                !
 ! D416  D(15,57,58,59)         -8.1827         estimate D2E/DX2                !
 ! D417  D(56,57,58,16)         -6.0744         estimate D2E/DX2                !
 ! D418  D(56,57,58,59)       -146.8964         estimate D2E/DX2                !
 ! D419  D(16,58,59,11)       -149.0187         estimate D2E/DX2                !
 ! D420  D(16,58,59,60)         -0.0601         estimate D2E/DX2                !
 ! D421  D(57,58,59,11)        -13.5477         estimate D2E/DX2                !
 ! D422  D(57,58,59,60)        135.4109         estimate D2E/DX2                !
 ! D423  D(11,59,60,55)        148.4626         estimate D2E/DX2                !
 ! D424  D(11,59,60,61)          4.8957         estimate D2E/DX2                !
 ! D425  D(58,59,60,55)         -4.1465         estimate D2E/DX2                !
 ! D426  D(58,59,60,61)       -147.7134         estimate D2E/DX2                !
 ! D427  D(55,60,61,9)        -140.6281         estimate D2E/DX2                !
 ! D428  D(55,60,61,62)          4.1812         estimate D2E/DX2                !
[...]
 Alpha virt. eigenvalues --    1.34149   1.34300   1.34620   1.35104   1.35323
 Alpha virt. eigenvalues --    1.35593   1.35848   1.36303   1.36565   1.36772
 Alpha virt. eigenvalues --    1.37339   1.37788   1.38511   1.38855   1.39439
 Alpha virt. eigenvalues --    1.39687   1.40083   1.40243   1.40581   1.40816
 Alpha virt. eigenvalues --    1.41422   1.41756   1.41874   1.41970   1.42659
 Alpha virt. eigenvalues --    1.42747   1.42965   1.43299   1.43846   1.44221
 Alpha virt. eigenvalues --    1.44478   1.44711   1.44801   1.45202   1.45559
 Alpha virt. eigenvalues --    1.45892   1.45941   1.46004   1.46301   1.46708
 Alpha virt. eigenvalues --    1.46773   1.46974   1.47333   1.47545   1.47933
 Alpha virt. eigenvalues --    1.48066   1.48175   1.48689   1.48874   1.48952
 Alpha virt. eigenvalues --    1.49305   1.49846   1.50065   1.50607   1.50739
 Alpha virt. eigenvalues --    1.51039   1.51181   1.51712   1.51779   1.52323
 Alpha virt. eigenvalues --    1.52390   1.52593   1.52722   1.53134   1.53350
 Alpha virt. eigenvalues --    1.53413   1.53647   1.54068   1.54418   1.54508
 Alpha virt. eigenvalues --    1.55007   1.55305   1.55686   1.56111   1.56151
 Alpha virt. eigenvalues --    1.56728   1.57026   1.57547   1.57811   1.58281
 Alpha virt. eigenvalues --    1.58595   1.58802   1.59033   1.59393   1.59841
 Alpha virt. eigenvalues --    1.60304   1.60561   1.60842   1.61471   1.61661
 Alpha virt. eigenvalues --    1.62352   1.62655   1.63077   1.63317   1.63839
 Alpha virt. eigenvalues --    1.64077   1.64508   1.64849   1.65449   1.65713
 Alpha virt. eigenvalues --    1.65847   1.66360   1.66659   1.67432   1.67506
 Alpha virt. eigenvalues --    1.67961   1.68580   1.68987   1.69440   1.69691
 Alpha virt. eigenvalues --    1.70086   1.70318   1.70584   1.70872   1.71233
 Alpha virt. eigenvalues --    1.71666   1.71938   1.72674   1.73568   1.73888
 Alpha virt. eigenvalues --    1.73917   1.74302   1.74661   1.75091   1.75429
 Alpha virt. eigenvalues --    1.75563   1.76344   1.76532   1.76729   1.77430
 Alpha virt. eigenvalues --    1.77612   1.78225   1.78555   1.78955   1.79317
 Alpha virt. eigenvalues --    1.79764   1.79792   1.80067   1.80696   1.80908
 Alpha virt. eigenvalues --    1.81207   1.81866   1.82261   1.82417   1.82470
 Alpha virt. eigenvalues --    1.82845   1.83392   1.83909   1.84696   1.85051
 Alpha virt. eigenvalues --    1.85644   1.86266   1.86486   1.86773   1.87226
 Alpha virt. eigenvalues --    1.87317   1.88244   1.88567   1.88952   1.89159
 Alpha virt. eigenvalues --    1.89430   1.89817   1.90124   1.90725   1.90926
 Alpha virt. eigenvalues --    1.91514   1.91980   1.92262   1.92602   1.92741
 Alpha virt. eigenvalues --    1.93291   1.93329   1.94124   1.94276   1.94782
 Alpha virt. eigenvalues --    1.95384   1.96072   1.96332   1.96975   1.97667
 Alpha virt. eigenvalues --    1.97970   1.98640   1.99435   1.99981   2.00289
 Alpha virt. eigenvalues --    2.00616   2.01057   2.01422   2.02174   2.02349
 Alpha virt. eigenvalues --    2.03407   2.03505   2.03769   2.04214   2.04702
 Alpha virt. eigenvalues --    2.04764   2.05270   2.05510   2.06851   2.07027
 Alpha virt. eigenvalues --    2.07350   2.08000   2.08279   2.08666   2.08856
 Alpha virt. eigenvalues --    2.09236   2.09697   2.09922   2.10167   2.11060
 Alpha virt. eigenvalues --    2.11205   2.11420   2.11842   2.12312   2.12876
 Alpha virt. eigenvalues --    2.13404   2.13775   2.14706   2.15304   2.15440
 Alpha virt. eigenvalues --    2.16010   2.16042   2.16273   2.16722   2.16984
 Alpha virt. eigenvalues --    2.17429   2.18397   2.18600   2.18957   2.19471
 Alpha virt. eigenvalues --    2.20585   2.20979   2.21076   2.22389   2.22937
 Alpha virt. eigenvalues --    2.22967   2.23506   2.24195   2.24784   2.24924
 Alpha virt. eigenvalues --    2.25145   2.26390   2.26861   2.27124   2.27364
 Alpha virt. eigenvalues --    2.27660   2.28268   2.29607   2.30135   2.30595
 Alpha virt. eigenvalues --    2.30971   2.32191   2.32596   2.32778   2.33135
 Alpha virt. eigenvalues --    2.33614   2.34030   2.34489   2.35163   2.35599
 Alpha virt. eigenvalues --    2.36285   2.36558   2.37372   2.38006   2.38662
 Alpha virt. eigenvalues --    2.38712   2.39502   2.39744   2.40132   2.40773
 Alpha virt. eigenvalues --    2.41228   2.42275   2.42538   2.42851   2.43069
 Alpha virt. eigenvalues --    2.43462   2.44272   2.44470   2.44835   2.44971
 Alpha virt. eigenvalues --    2.45608   2.45690   2.46402   2.46678   2.47049
 Alpha virt. eigenvalues --    2.47345   2.48145   2.48345   2.48805   2.50249
 Alpha virt. eigenvalues --    2.50623   2.51639   2.52025   2.52374   2.52799
 Alpha virt. eigenvalues --    2.54064   2.54144   2.54840   2.55047   2.56165
 Alpha virt. eigenvalues --    2.56460   2.56839   2.57622   2.57877   2.58232
 Alpha virt. eigenvalues --    2.58892   2.59064   2.59274   2.59521   2.59896
 Alpha virt. eigenvalues --    2.60292   2.60580   2.61286   2.61938   2.62564
 Alpha virt. eigenvalues --    2.63183   2.63741   2.64159   2.64332   2.65811
 Alpha virt. eigenvalues --    2.65872   2.66083   2.67099   2.67192   2.67532
 Alpha virt. eigenvalues --    2.67850   2.68829   2.70123   2.71050   2.72071
 Alpha virt. eigenvalues --    2.72888   2.72966   2.73397   2.73775   2.74223
 Alpha virt. eigenvalues --    2.74605   2.75830   2.76215   2.76626   2.77588
 Alpha virt. eigenvalues --    2.78322   2.78792   2.79104   2.80421   2.81799
 Alpha virt. eigenvalues --    2.82228   2.82624   2.83572   2.84007   2.84307
 Alpha virt. eigenvalues --    2.85022   2.85448   2.85848   2.86939   2.87297
 Alpha virt. eigenvalues --    2.88099   2.89210   2.90203   2.90614   2.90910
 Alpha virt. eigenvalues --    2.91535   2.92083   2.92595   2.93176   2.93368
 Alpha virt. eigenvalues --    2.94108   2.94392   2.95133   2.95698   2.96220
 Alpha virt. eigenvalues --    2.96528   2.97805   2.98368   2.98556   2.99327
 Alpha virt. eigenvalues --    2.99696   2.99881   3.00215   3.00455   3.01051
 Alpha virt. eigenvalues --    3.01217   3.02121   3.02405   3.03157   3.03608
 Alpha virt. eigenvalues --    3.03950   3.04325   3.04491   3.05014   3.05189
 Alpha virt. eigenvalues --    3.05599   3.05829   3.06169   3.06506   3.06834
 Alpha virt. eigenvalues --    3.07067   3.07704   3.07893   3.08417   3.09006
 Alpha virt. eigenvalues --    3.09320   3.09583   3.10241   3.10512   3.10871
 Alpha virt. eigenvalues --    3.11082   3.11403   3.11588   3.12216   3.12397
 Alpha virt. eigenvalues --    3.12639   3.13294   3.13707   3.13951   3.14087
 Alpha virt. eigenvalues --    3.14591   3.14780   3.15250   3.15314   3.15707
 Alpha virt. eigenvalues --    3.15863   3.16160   3.16354   3.16693   3.16788
 Alpha virt. eigenvalues --    3.17121   3.17571   3.18109   3.18762   3.19108
 Alpha virt. eigenvalues --    3.20141   3.20928   3.21325   3.21524   3.21868
 Alpha virt. eigenvalues --    3.22339   3.23232   3.23638   3.25336   3.26532
 Alpha virt. eigenvalues --    3.27187   3.29084   3.30354   3.32562   3.32652
 Alpha virt. eigenvalues --    3.33458   3.36259   3.37714   3.38186   3.41627
 Alpha virt. eigenvalues --    3.42281   3.43542   3.44412   3.46831   3.47230
 Alpha virt. eigenvalues --    3.48218   3.48775   3.50787   3.52399   3.53375
 Alpha virt. eigenvalues --    3.54124   3.54694   3.55220   3.55572   3.57067
 Alpha virt. eigenvalues --    3.57373   3.58925   3.59257   3.60255   3.61871
 Alpha virt. eigenvalues --    3.62666   3.63886   3.65351   3.65466   3.67464
 Alpha virt. eigenvalues --    3.69027   3.69547   3.70401   3.70791   3.72360
 Alpha virt. eigenvalues --    3.72666   3.74383   3.75461   3.75974   3.77678
 Alpha virt. eigenvalues --    3.79668   3.80195   3.80705   3.82596   3.83477
 Alpha virt. eigenvalues --    3.84546   3.85104   3.85836   3.86714   3.87364
 Alpha virt. eigenvalues --    3.88518   3.89079   3.89551   3.90096   3.90947
 Alpha virt. eigenvalues --    3.92215   3.92563   3.93441   3.94049   3.95343
 Alpha virt. eigenvalues --    3.96138   3.97995   3.98613   4.01796   4.03697
 Alpha virt. eigenvalues --    4.04775   4.08311   4.12884   4.17504   4.22367
 Alpha virt. eigenvalues --    4.24247   4.25177   4.30401   4.34355   4.35017
 Alpha virt. eigenvalues --    4.36196   4.38372   4.40154   4.40719   4.41969
 Alpha virt. eigenvalues --    4.42416   4.45342   4.53069   4.55788   4.56848
 Alpha virt. eigenvalues --    4.58357   4.60085   4.63761   4.64166   4.66747
 Alpha virt. eigenvalues --    4.68643   4.70744   4.76351   4.77040   4.83487
 Alpha virt. eigenvalues --    4.89631   4.92166   4.93794   4.97412   5.01335
 Alpha virt. eigenvalues --    5.03325   5.04873   5.06376  23.05709  23.22113
 Alpha virt. eigenvalues --   23.27754  23.28980  23.46044  23.49733  23.50968
 Alpha virt. eigenvalues --   23.52770  23.54582  23.65823  23.67565  23.69695
 Alpha virt. eigenvalues --   23.72721  23.77196  23.79680  23.80235  23.81229
 Alpha virt. eigenvalues --   23.83332  23.84197  23.85104  23.85313  23.86317
 Alpha virt. eigenvalues --   23.86690  23.88283  23.89160  23.90184  23.91803
 Alpha virt. eigenvalues --   23.93609  23.94333  23.95004  23.95365  23.96109
 Alpha virt. eigenvalues --   23.96768  23.97855  23.98704  23.99159  23.99755
 Alpha virt. eigenvalues --   24.00021  24.00494  24.00936  24.01038  24.02051
 Alpha virt. eigenvalues --   24.02397  24.02726  24.03447  24.04465  24.05462
 Alpha virt. eigenvalues --   24.06012  24.06326  24.08014  24.10440  24.11018
 Alpha virt. eigenvalues --   24.11250  24.11412  24.11728  24.11813  24.13064
 Alpha virt. eigenvalues --   24.13404  24.13726  24.14186  24.14712  24.15243
 Alpha virt. eigenvalues --   24.15953  24.16148  24.17178  24.19420
          Condensed to atoms (all electrons):
 Mulliken charges:
               1
     1  C   -0.005353
     2  C   -0.003292
     3  C   -0.005104
     4  C   -0.005199
     5  C    0.010120
     6  C    0.000196
     7  C   -0.129736
     8  C   -0.000853
     9  C   -0.017622
    10  C   -0.146816
    11  C   -0.154690
    12  C   -0.121746
    13  C   -0.046494
    14  C   -0.001948
    15  C   -0.038964
    16  C   -0.006243
    17  C   -0.006318
    18  C    0.019045
    19  C   -0.004387
    20  C   -0.001636
    21  C    0.003896
    22  C    0.017146
    23  C   -0.035480
    24  C    0.040098
    25  C    0.018552
    26  C   -0.005214
    27  C    0.016631
    28  C   -0.010380
    29  C   -0.004518
    30  C   -0.134160
    31  C   -0.134276
    32  C   -0.004579
    33  C   -0.146332
    34  C    0.002529
    35  C    0.001023
    36  C   -0.003247
    37  C   -0.134536
    38  C   -0.000199
    39  C   -0.009179
    40  C   -0.009089
    41  C    0.004489
    42  C   -0.005642
    43  C   -0.011526
    44  C   -0.002362
    45  C    0.015803
    46  C   -0.033629
    47  C   -0.000274
    48  C    0.022776
    49  C   -0.006019
    50  C    0.004892
    51  C   -0.002849
    52  C   -0.006940
    53  C   -0.004231
    54  C   -0.005925
    55  C   -0.007501
    56  C   -0.008344
    57  C    0.001474
    58  C   -0.005582
    59  C   -0.015690
    60  C    0.020456
    61  C    0.014253
    62  C   -0.009562
    63  C   -0.001473
    64  C   -0.004903
    65  C   -0.004902
    66  C    0.002634
    67  H    0.158969
    68  H    0.145529
    69  H    0.145579
    70  H    0.160387
    71  H    0.170030
    72  H    0.169955
    73  H    0.149153
    74  H    0.149328
 Sum of Mulliken charges =  -0.00000
 Mulliken charges with hydrogens summed into heavy atoms:
               1
     1  C   -0.005353
     2  C   -0.003292
     3  C   -0.005104
     4  C   -0.005199
     5  C    0.010120
     6  C    0.000196
     7  C    0.029233
     8  C   -0.000853
     9  C   -0.017622
    10  C   -0.001287
    11  C    0.015340
    12  C    0.048210
    13  C   -0.046494
    14  C   -0.001948
    15  C   -0.038964
    16  C   -0.006243
    17  C   -0.006318
    18  C    0.019045
    19  C   -0.004387
    20  C   -0.001636
    21  C    0.003896
    22  C    0.017146
    23  C   -0.035480
    24  C    0.040098
    25  C    0.018552
    26  C   -0.005214
    27  C    0.016631
    28  C   -0.010380
    29  C   -0.004518
    30  C    0.015167
    31  C    0.014876
    32  C   -0.004579
    33  C   -0.000754
    34  C    0.002529
    35  C    0.001023
    36  C   -0.003247
    37  C    0.025851
    38  C   -0.000199
    39  C   -0.009179
    40  C   -0.009089
    41  C    0.004489
    42  C   -0.005642
    43  C   -0.011526
    44  C   -0.002362
    45  C    0.015803
    46  C   -0.033629
    47  C   -0.000274
    48  C    0.022776
    49  C   -0.006019
    50  C    0.004892
    51  C   -0.002849
    52  C   -0.006940
    53  C   -0.004231
    54  C   -0.005925
    55  C   -0.007501
    56  C   -0.008344
    57  C    0.001474
    58  C   -0.005582
    59  C   -0.015690
    60  C    0.020456
    61  C    0.014253
    62  C   -0.009562
    63  C   -0.001473
    64  C   -0.004903
    65  C   -0.004902
    66  C    0.002634
 Electronic spatial extent (au):  <R**2>=          21585.6476
 Charge=             -0.0000 electrons
 Dipole moment (field-independent basis, Debye):
    X=             -4.2356    Y=             -2.2949    Z=             -1.1846  Tot=              4.9609
 Quadrupole moment (field-independent basis, Debye-Ang):
   XX=           -345.6844   YY=           -375.6998   ZZ=           -367.5426
   XY=             -6.3058   XZ=             -4.0986   YZ=              7.0586
 Traceless Quadrupole moment (field-independent basis, Debye-Ang):
   XX=             17.2912   YY=            -12.7242   ZZ=             -4.5670
   XY=             -6.3058   XZ=             -4.0986   YZ=              7.0586
 Octapole moment (field-independent basis, Debye-Ang**2):
  XXX=           -178.0651  YYY=            -33.9287  ZZZ=            -11.4318  XYY=             29.0899
  XXY=            -31.1051  XXZ=            -12.8230  XZZ=            -47.7436  YZZ=            -27.8259
  YYZ=            -25.4159  XYZ=             13.5271
 Hexadecapole moment (field-independent basis, Debye-Ang**3):
 XXXX=         -12348.4846 YYYY=         -11192.3730 ZZZZ=          -8893.6834 XXXY=            -95.8466
 XXXZ=            -39.3588 YYYX=           -130.5915 YYYZ=            101.6752 ZZZX=            -35.0142
 ZZZY=             77.6192 XXYY=          -3972.5764 XXZZ=          -3502.9517 YYZZ=          -3342.6149
 XXYZ=             61.9122 YYXZ=            -68.5030 ZZXY=             -8.8680
 N-N= 9.946326363262D+03 E-N=-2.573889224581D+04  KE= 2.509868584508D+03
 No NMR shielding tensors so no spin-rotation constants.
 Leave Link  601 at Wed Jul 20 16:15:42 2022, MaxMem=  1342177280 cpu:              57.9 elap:               1.4
 (Enter /home/mkliu/g16/l9999.exe)
 1\1\GINC-NODE01\FOpt\RB3LYP\6-311G(d,p)\C66H8\MKLIU\20-Jul-2022\0\\#P 
 opt b3lyp/6-311G(d, p) empiricaldispersion=GD3\\force\\0,1\C,12.801637
 0818,12.0843820803,21.9062460714\C,12.8220672915,13.0341242163,22.9215
 381168\C,12.6949124326,14.4432968745,22.6007374899\C,12.6028828129,14.
 854552365,21.2695726976\C,13.488293776,15.1955823977,23.5158978841\C,1
 4.1356397613,14.2409380794,24.4496183483\C,15.6056389729,17.344560371,
 18.7454763332\C,13.7509420803,12.9117007427,24.0260812479\C,15.4031517
 249,14.4822139483,24.9127635249\C,16.9038976924,17.0182008949,17.87923
 96711\C,16.0897610187,15.8391174627,24.8010610079\C,15.3759486187,16.8
 540113466,23.7859321641\C,14.1617927491,16.3065099097,23.0642465978\C,
 19.2288094038,14.0198582212,22.6082011361\C,16.2248899754,17.302862800
 2,22.6172692167\C,19.1686407731,15.4149201861,22.595503881\C,19.222284
 1058,16.0755497955,21.3365055995\C,17.4452396217,11.5897681596,19.3235
 889465\C,17.7191623725,11.2680839721,20.7551739583\C,18.5094037317,11.
 9844713214,21.6483635231\C,17.9632513602,16.8112700735,18.9206699363\C
 ,17.5376194686,17.3790279304,20.1679211443\C,16.1202876979,17.50496619
 58,20.1789206131\C,15.4587440519,17.3574688862,21.3988582415\C,14.1632
 441098,16.6836440712,21.6703264304\C,13.3658121938,15.9744903825,20.76
 33974138\C,13.6552570519,15.6853374951,19.3279001406\C,14.7076681393,1
 6.1408822165,18.5291572013\C,15.2695364332,15.2888766845,17.5448459897
 \C,16.617202498,15.7368829206,17.0373006944\C,17.7180592808,14.5476174
 148,17.0381281247\C,17.1683256637,13.239566368,17.5489677637\C,19.0171
 201543,14.7365358809,17.8793459451\C,15.8373275812,12.907471912,17.404
 8200218\C,14.834128959,13.9867381246,17.3988215163\C,13.7094796491,13.
 5285789425,18.1275401868\C,19.2492653618,13.4134330725,18.7394731238\C
 ,13.0948189303,14.3915806112,19.0422134386\C,12.4866586624,13.85946711
 57,20.2327630736\C,17.9780394335,12.6095606016,18.5293512125\C,12.5918
 559141,12.5021280612,20.5364381309\C,13.3896274804,11.6448745038,19.67
 77611153\C,13.9276270798,12.1427508216,18.5065173959\C,15.2933285366,1
 1.8195900821,18.1316753507\C,19.2739776386,13.238971556,21.3788616954\
 C,19.4526647878,13.9032903717,20.1763200753\C,16.106757012,11.14050635
 67,19.0443158241\C,19.412032358,15.3398582579,20.1719422792\C,15.52839
 15789,10.5681123895,20.2316079596\C,18.8877805018,15.8069195627,18.923
 0393924\C,16.5257418622,10.5898232373,21.266737632\C,16.1210166178,10.
 6919278544,22.5959732548\C,16.9282335592,11.4379761183,23.5125555033\C
 ,18.0937912563,12.0401816764,23.0516099054\C,18.4923871083,13.30871381
 01,23.5998857743\C,18.2544549937,17.138856161,21.3382824288\C,17.59497
 78249,17.1504826822,22.5978930728\C,18.2267608485,16.1146485291,23.447
 0495397\C,17.4949974938,15.4252863698,24.3749138126\C,17.6476010135,14
 .0063148472,24.4796712816\C,16.380715859,13.4285368461,24.8599400553\C
 ,16.0430067702,12.1502817878,24.4205691348\C,14.6862917524,11.86884166
 08,24.0273679796\C,14.7245506851,10.9309826403,22.9225894942\C,13.7820
 590437,11.0111107276,21.9031588627\C,14.1796412484,10.7769229624,20.53
 45622707\H,15.1127108835,18.2600746386,18.403929805\H,17.1513080964,17
 .8578183995,17.225886539\H,19.8727174772,14.9240406378,17.2268090373\H
 ,20.1237432057,12.8551499567,18.3918955086\H,16.1131381274,16.33340057
 81,25.7764693152\H,15.0877452987,17.729003415,24.3777497634\H,17.99745
 9068,14.4192736366,15.9902894246\H,16.5134297066,16.0265457936,15.9896
 122157\\Version=ES64L-G16RevA.03\State=1-A\HF=-2520.2683697\RMSD=4.989
 e-09\RMSF=9.406e-05\Dipole=0.8157364,1.4353666,-1.0410181\Quadrupole=-
 8.0805205,-2.8587526,10.9392731,-2.7921484,-9.3058089,-0.994137\PG=C01
  [X(C66H8)]\\@


 NOBODY LOSES ALL THE TIME
 I HAD AN UNCLE NAMED
 SOL WHO WAS A BORN FAILURE AND
 NEARLY EVERYBODY SAID HE SHOULD HAVE GONE
 INTO VAUDEVILLE PERHAPS BECAUSE MY UNCLE SOL COULD
 SING MCCANN HE WAS A DIVER ON XMAS EVE LIKE HELL ITSELF WHICH
 MAY OR MAY NOT ACCOUNT FOR THE FACT THAT MY UNCLE
 SOL INDULGED IN THAT POSSIBLY MOST INEXCUSABLE
 OF ALL TO USE A HIGHFALOOTIN PHRASE
 LUXURIES THAT IS OR TO
 WIT FARMING AND BE
 IT NEEDLESSLY
 ADDED
 MY UNCLE SOL'S FARM     
 FAILED BECAUSE THE CHICKENS
 ATE THE VEGETABLES SO
 MY UNCLE SOL HAD A
 CHICKEN FARM TILL THE
 SKUNKS ATE THE CHICKENS WHEN 
 MY UNCLE SOL
 HAD A SKUNK FARM BUT
 THE SKUNKS CAUGHT COLD AND
 DIED AND SO
 MY UNCLE SOL IMITATED THE
 SKUNKS IN A SUBTLE MANNER
 OR BY DROWNING HIMSELF IN THE WATERTANK
 BUT SOMEBODY WHO'D GIVEN MY UNCLE SOL A VICTOR     
 VICTROLA AND RECORDS WHILE HE LIVED PRESENTED TO
 HIM UPON THE AUSPICIOUS OCCASION OF HIS DECEASE A
 SCRUMPTIOUS NOT TO MENTION SPLENDIFEROUS FUNERAL WITH
 TALL BOYS IN BLACK GLOVES AND FLOWERS AND EVERYTHING AND
 I REMEMBER WE ALL CRIED LIKE THE MISSOURI
 WHEN MY UNCLE SOL'S COFFIN LURCHED BECAUSE     
 SOMEBODY PRESSED A BUTTON
 (AND DOWN WENT
 MY UNCLE
 SOL
 AND STARTED A WORM FARM)
           E. E. CUMMINGS
 Job cpu time:       1 days  2 hours 17 minutes 20.7 seconds.
 Elapsed time:       0 days  0 hours 32 minutes 56.8 seconds.
 File lengths (MBytes):  RWF=    939 Int=      0 D2E=      0 Chk=    116 Scr=      1
 Normal termination of Gaussian 16 at Wed Jul 20 16:15:43 2022.
