 Entering Gaussian System, Link 0=g16
 Input=dihept_8_addons_6.gjf
 Output=dihept_8_addons_6.log
 Initial command:
 /home/mkliu/g16/l1.exe "/data/scratch/Gau-213682.inp" -scrdir="/data/scratch/"
 Entering Link 1 = /home/mkliu/g16/l1.exe PID=    213683.
  
 Copyright (c) 1988,1990,1992,1993,1995,1998,2003,2009,2016,
            Gaussian, Inc.  All Rights Reserved.
  
 This is part of the Gaussian(R) 16 program.  It is based on
 the Gaussian(R) 09 system (copyright 2009, Gaussian, Inc.),
 the Gaussian(R) 03 system (copyright 2003, Gaussian, Inc.),
 the Gaussian(R) 98 system (copyright 1998, Gaussian, Inc.),
 the Gaussian(R) 94 system (copyright 1995, Gaussian, Inc.),
 the Gaussian 92(TM) system (copyright 1992, Gaussian, Inc.),
 the Gaussian 90(TM) system (copyright 1990, Gaussian, Inc.),
 the Gaussian 88(TM) system (copyright 1988, Gaussian, Inc.),
 the Gaussian 86(TM) system (copyright 1986, Carnegie Mellon
 University), and the Gaussian 82(TM) system (copyright 1983,
 Carnegie Mellon University). Gaussian is a federally registered
 trademark of Gaussian, Inc.
  
 This software contains proprietary and confidential information,
 including trade secrets, belonging to Gaussian, Inc.
  
 This software is provided under written license and may be
 used, copied, transmitted, or stored only in accord with that
 written license.
  
 The following legend is applicable only to US Government
 contracts under FAR:
  
                    RESTRICTED RIGHTS LEGEND
  
 Use, reproduction and disclosure by the US Government is
 subject to restrictions as set forth in subparagraphs (a)
 and (c) of the Commercial Computer Software - Restricted
 Rights clause in FAR 52.227-19.
  
 Gaussian, Inc.
 340 Quinnipiac St., Bldg. 40, Wallingford CT 06492
  
  
 ---------------------------------------------------------------
 Warning -- This program may not be used in any manner that
 competes with the business of Gaussian, Inc. or will provide
 assistance to any competitor of Gaussian, Inc.  The licensee
 of this program is prohibited from giving any competitor of
 Gaussian, Inc. access to this program.  By using this program,
 the user acknowledges that Gaussian, Inc. is engaged in the
 business of creating and licensing software in the field of
 computational chemistry and represents and warrants to the
 licensee that it is not a competitor of Gaussian, Inc. and that
 it will not use this program in any manner prohibited above.
 ---------------------------------------------------------------
  

 Cite this work as:
 Gaussian 16, Revision A.03,
 M. J. Frisch, G. W. Trucks, H. B. Schlegel, G. E. Scuseria, 
 M. A. Robb, J. R. Cheeseman, G. Scalmani, V. Barone, 
 G. A. Petersson, H. Nakatsuji, X. Li, M. Caricato, A. V. Marenich, 
 J. Bloino, B. G. Janesko, R. Gomperts, B. Mennucci, H. P. Hratchian, 
 J. V. Ortiz, A. F. Izmaylov, J. L. Sonnenberg, D. Williams-Young, 
 F. Ding, F. Lipparini, F. Egidi, J. Goings, B. Peng, A. Petrone, 
 T. Henderson, D. Ranasinghe, V. G. Zakrzewski, J. Gao, N. Rega, 
 G. Zheng, W. Liang, M. Hada, M. Ehara, K. Toyota, R. Fukuda, 
 J. Hasegawa, M. Ishida, T. Nakajima, Y. Honda, O. Kitao, H. Nakai, 
 T. Vreven, K. Throssell, J. A. Montgomery, Jr., J. E. Peralta, 
 F. Ogliaro, M. J. Bearpark, J. J. Heyd, E. N. Brothers, K. N. Kudin, 
 V. N. Staroverov, T. A. Keith, R. Kobayashi, J. Normand, 
 K. Raghavachari, A. P. Rendell, J. C. Burant, S. S. Iyengar, 
 J. Tomasi, M. Cossi, J. M. Millam, M. Klene, C. Adamo, R. Cammi, 
 J. W. Ochterski, R. L. Martin, K. Morokuma, O. Farkas, 
 J. B. Foresman, and D. J. Fox, Gaussian, Inc., Wallingford CT, 2016.
 
 ******************************************
 Gaussian 16:  ES64L-G16RevA.03 25-Dec-2016
                19-Jul-2022 
 ******************************************
 %mem=10GB
 %chk=dihept_8_addons_6.chk
 %nprocshared=48
 Will use up to   48 processors via shared memory.
 -------------------------------------------------
 #P opt b3lyp/6-311G(d, p) empiricaldispersion=GD3
 -------------------------------------------------
 1/18=20,19=15,26=3,38=1/1,3;
 2/9=110,12=2,17=6,18=5,40=1/2;
 3/5=4,6=6,7=101,11=2,25=1,30=1,71=1,74=-5,124=31/1,2,3;
 4//1;
 5/5=2,38=5/2;
 6/7=2,8=2,9=2,10=2,28=1/1;
 7//1,2,3,16;
 1/18=20,19=15,26=3/3(2);
 2/9=110/2;
 99//99;
 2/9=110/2;
 3/5=4,6=6,7=101,11=2,25=1,30=1,71=1,74=-5,124=31/1,2,3;
 4/5=5,16=3,69=1/1;
 5/5=2,38=5/2;
 7//1,2,3,16;
 1/18=20,19=15,26=3/3(-5);
 2/9=110/2;
 6/7=2,8=2,9=2,10=2,19=2,28=1/1;
 99/9=1/99;
 Leave Link    1 at Tue Jul 19 23:12:57 2022, MaxMem=  1342177280 cpu:               3.0 elap:               0.1
 (Enter /home/mkliu/g16/l101.exe)
 -----
 force
 -----
 Symbolic Z-matrix:
 Charge =  0 Multiplicity = 1
 C                     12.54556   11.92042   21.93437 
 C                     12.54971   12.99159   23.06821 
 C                     12.6998   14.42368   22.58656 
 C                     12.64002   14.83254   21.28033 
 C                     13.51595   15.15622   23.47722 
 C                     14.14002   14.23494   24.38923 
 C                     15.64149   17.33274   18.76442 
 C                     13.73558   12.91679   24.01716 
 C                     15.42407   14.49609   24.85677 
 C                     16.91689   17.00294   17.90399 
 C                     16.08865   15.71731   24.48664 
 C                     15.477    16.59328   23.59784 
 C                     14.19789   16.28395   23.0287 
 C                     19.20961   14.02325   22.58312 
 C                     16.23772   17.26103   22.58762 
 C                     19.18156   15.41454   22.56062 
 C                     19.26619   16.07348   21.31102 
 C                     17.45702   11.59112   19.33072 
 C                     17.7057   11.28809   20.75178 
 C                     18.47806   12.01924   21.63982 
 C                     18.16781   17.13276   18.80522 
 C                     17.56983   17.37411   20.15787 
 C                     16.16382   17.44485   20.17219 
 C                     15.47648   17.32739   21.37279 
 C                     14.18419   16.68286   21.64729 
 C                     13.39885   15.9485   20.76764 
 C                     13.67751   15.67893   19.35062 
 C                     14.69807   16.16215   18.55932 
 C                     15.29732   15.27722   17.61384 
 C                     16.6761   15.59816   17.46831 
 C                     17.59967   14.59888   17.46624 
 C                     17.17253   13.24893   17.60657 
 C                     19.02005   14.72845   17.90009 
 C                     15.83511   12.92048   17.44015 
 C                     14.86452   13.97139   17.44313 
 C                     13.71812   13.51102   18.14576 
 C                     19.25051   13.42895   18.75691 
 C                     13.12569   14.3717   19.06449 
 C                     12.5147   13.83349   20.23527 
 C                     18.01272   12.57818   18.54523 
 C                     12.59036   12.49399   20.53147 
 C                     13.39486   11.66144   19.69616 
 C                     13.92974   12.13948   18.50955 
 C                     15.28734   11.81247   18.14147 
 C                     19.2178   13.25898   21.36791 
 C                     19.39396   13.93625   20.16802 
 C                     16.10634   11.15272   19.04718 
 C                     19.43619   15.34365   20.15653 
 C                     15.53028   10.59878   20.23257 
 C                     19.24754   15.96248   18.80489 
 C                     16.52059   10.62827   21.25567 
 C                     16.09602   10.74529   22.57479 
 C                     16.90118   11.48325   23.48965 
 C                     18.07378   12.06779   23.03225 
 C                     18.48445   13.31978   23.59463 
 C                     18.28424   17.14453   21.31253 
 C                     17.62206   17.11528   22.56244 
 C                     18.24205   16.11693   23.39886 
 C                     17.49285   15.42739   24.33157 
 C                     17.66576   14.00322   24.48847 
 C                     16.39659   13.44214   24.86161 
 C                     16.03035   12.1848   24.39697 
 C                     14.67382   11.9142   24.00869 
 C                     14.7132   10.9728   22.89182 
 C                     13.77909   11.03617   21.89544 
 C                     14.18753   10.81853   20.54865 
 H                     15.16614   18.26982   18.45456 
 H                     16.99333   17.67051   17.04196 
 H                     18.71481   18.03295   18.50747 
 H                     20.18966   16.43641   18.51139 
 H                     19.69029   14.75493   17.03712 
 H                     20.15102   12.88596   18.44989 
 H                     11.62015   12.89054   23.63922 
 H                     11.64864   11.30162   22.04892 
 
 ITRead=  0  0  0  0  0  0  0  0  0  0  0  0  0  0  0  0  0  0  0  0
 ITRead=  0  0  0  0  0  0  0  0  0  0  0  0  0  0  0  0  0  0  0  0
 ITRead=  0  0  0  0  0  0  0  0  0  0  0  0  0  0  0  0  0  0  0  0
 ITRead=  0  0  0  0  0  0  0  0  0  0  0  0  0  0
 MicOpt= -1 -1 -1 -1 -1 -1 -1 -1 -1 -1 -1 -1 -1 -1 -1 -1 -1 -1 -1 -1
 MicOpt= -1 -1 -1 -1 -1 -1 -1 -1 -1 -1 -1 -1 -1 -1 -1 -1 -1 -1 -1 -1
 MicOpt= -1 -1 -1 -1 -1 -1 -1 -1 -1 -1 -1 -1 -1 -1 -1 -1 -1 -1 -1 -1
 MicOpt= -1 -1 -1 -1 -1 -1 -1 -1 -1 -1 -1 -1 -1 -1
 NAtoms=     74 NQM=       74 NQMF=       0 NMMI=      0 NMMIF=      0
                NMic=       0 NMicF=      0.
                    Isotopes and Nuclear Properties:
 (Nuclear quadrupole moments (NQMom) in fm**2, nuclear magnetic moments (NMagM)
  in nuclear magnetons)

  Atom         1           2           3           4           5           6           7           8           9          10
 IAtWgt=          12          12          12          12          12          12          12          12          12          12
 AtmWgt=  12.0000000  12.0000000  12.0000000  12.0000000  12.0000000  12.0000000  12.0000000  12.0000000  12.0000000  12.0000000
 NucSpn=           0           0           0           0           0           0           0           0           0           0
 AtZEff=  -0.0000000  -0.0000000  -0.0000000  -0.0000000  -0.0000000  -0.0000000  -0.0000000  -0.0000000  -0.0000000  -0.0000000
 NQMom=    0.0000000   0.0000000   0.0000000   0.0000000   0.0000000   0.0000000   0.0000000   0.0000000   0.0000000   0.0000000
 NMagM=    0.0000000   0.0000000   0.0000000   0.0000000   0.0000000   0.0000000   0.0000000   0.0000000   0.0000000   0.0000000
 AtZNuc=   6.0000000   6.0000000   6.0000000   6.0000000   6.0000000   6.0000000   6.0000000   6.0000000   6.0000000   6.0000000

  Atom        11          12          13          14          15          16          17          18          19          20
 IAtWgt=          12          12          12          12          12          12          12          12          12          12
 AtmWgt=  12.0000000  12.0000000  12.0000000  12.0000000  12.0000000  12.0000000  12.0000000  12.0000000  12.0000000  12.0000000
 NucSpn=           0           0           0           0           0           0           0           0           0           0
 AtZEff=  -0.0000000  -0.0000000  -0.0000000  -0.0000000  -0.0000000  -0.0000000  -0.0000000  -0.0000000  -0.0000000  -0.0000000
 NQMom=    0.0000000   0.0000000   0.0000000   0.0000000   0.0000000   0.0000000   0.0000000   0.0000000   0.0000000   0.0000000
 NMagM=    0.0000000   0.0000000   0.0000000   0.0000000   0.0000000   0.0000000   0.0000000   0.0000000   0.0000000   0.0000000
 AtZNuc=   6.0000000   6.0000000   6.0000000   6.0000000   6.0000000   6.0000000   6.0000000   6.0000000   6.0000000   6.0000000

  Atom        21          22          23          24          25          26          27          28          29          30
 IAtWgt=          12          12          12          12          12          12          12          12          12          12
 AtmWgt=  12.0000000  12.0000000  12.0000000  12.0000000  12.0000000  12.0000000  12.0000000  12.0000000  12.0000000  12.0000000
 NucSpn=           0           0           0           0           0           0           0           0           0           0
 AtZEff=  -0.0000000  -0.0000000  -0.0000000  -0.0000000  -0.0000000  -0.0000000  -0.0000000  -0.0000000  -0.0000000  -0.0000000
 NQMom=    0.0000000   0.0000000   0.0000000   0.0000000   0.0000000   0.0000000   0.0000000   0.0000000   0.0000000   0.0000000
 NMagM=    0.0000000   0.0000000   0.0000000   0.0000000   0.0000000   0.0000000   0.0000000   0.0000000   0.0000000   0.0000000
 AtZNuc=   6.0000000   6.0000000   6.0000000   6.0000000   6.0000000   6.0000000   6.0000000   6.0000000   6.0000000   6.0000000

  Atom        31          32          33          34          35          36          37          38          39          40
 IAtWgt=          12          12          12          12          12          12          12          12          12          12
 AtmWgt=  12.0000000  12.0000000  12.0000000  12.0000000  12.0000000  12.0000000  12.0000000  12.0000000  12.0000000  12.0000000
 NucSpn=           0           0           0           0           0           0           0           0           0           0
 AtZEff=  -0.0000000  -0.0000000  -0.0000000  -0.0000000  -0.0000000  -0.0000000  -0.0000000  -0.0000000  -0.0000000  -0.0000000
 NQMom=    0.0000000   0.0000000   0.0000000   0.0000000   0.0000000   0.0000000   0.0000000   0.0000000   0.0000000   0.0000000
 NMagM=    0.0000000   0.0000000   0.0000000   0.0000000   0.0000000   0.0000000   0.0000000   0.0000000   0.0000000   0.0000000
 AtZNuc=   6.0000000   6.0000000   6.0000000   6.0000000   6.0000000   6.0000000   6.0000000   6.0000000   6.0000000   6.0000000

  Atom        41          42          43          44          45          46          47          48          49          50
 IAtWgt=          12          12          12          12          12          12          12          12          12          12
 AtmWgt=  12.0000000  12.0000000  12.0000000  12.0000000  12.0000000  12.0000000  12.0000000  12.0000000  12.0000000  12.0000000
 NucSpn=           0           0           0           0           0           0           0           0           0           0
 AtZEff=  -0.0000000  -0.0000000  -0.0000000  -0.0000000  -0.0000000  -0.0000000  -0.0000000  -0.0000000  -0.0000000  -0.0000000
 NQMom=    0.0000000   0.0000000   0.0000000   0.0000000   0.0000000   0.0000000   0.0000000   0.0000000   0.0000000   0.0000000
 NMagM=    0.0000000   0.0000000   0.0000000   0.0000000   0.0000000   0.0000000   0.0000000   0.0000000   0.0000000   0.0000000
 AtZNuc=   6.0000000   6.0000000   6.0000000   6.0000000   6.0000000   6.0000000   6.0000000   6.0000000   6.0000000   6.0000000

  Atom        51          52          53          54          55          56          57          58          59          60
 IAtWgt=          12          12          12          12          12          12          12          12          12          12
 AtmWgt=  12.0000000  12.0000000  12.0000000  12.0000000  12.0000000  12.0000000  12.0000000  12.0000000  12.0000000  12.0000000
 NucSpn=           0           0           0           0           0           0           0           0           0           0
 AtZEff=  -0.0000000  -0.0000000  -0.0000000  -0.0000000  -0.0000000  -0.0000000  -0.0000000  -0.0000000  -0.0000000  -0.0000000
 NQMom=    0.0000000   0.0000000   0.0000000   0.0000000   0.0000000   0.0000000   0.0000000   0.0000000   0.0000000   0.0000000
 NMagM=    0.0000000   0.0000000   0.0000000   0.0000000   0.0000000   0.0000000   0.0000000   0.0000000   0.0000000   0.0000000
 AtZNuc=   6.0000000   6.0000000   6.0000000   6.0000000   6.0000000   6.0000000   6.0000000   6.0000000   6.0000000   6.0000000

  Atom        61          62          63          64          65          66          67          68          69          70
 IAtWgt=          12          12          12          12          12          12           1           1           1           1
 AtmWgt=  12.0000000  12.0000000  12.0000000  12.0000000  12.0000000  12.0000000   1.0078250   1.0078250   1.0078250   1.0078250
 NucSpn=           0           0           0           0           0           0           1           1           1           1
 AtZEff=  -0.0000000  -0.0000000  -0.0000000  -0.0000000  -0.0000000  -0.0000000  -0.0000000  -0.0000000  -0.0000000  -0.0000000
 NQMom=    0.0000000   0.0000000   0.0000000   0.0000000   0.0000000   0.0000000   0.0000000   0.0000000   0.0000000   0.0000000
 NMagM=    0.0000000   0.0000000   0.0000000   0.0000000   0.0000000   0.0000000   2.7928460   2.7928460   2.7928460   2.7928460
 AtZNuc=   6.0000000   6.0000000   6.0000000   6.0000000   6.0000000   6.0000000   1.0000000   1.0000000   1.0000000   1.0000000

  Atom        71          72          73          74
 IAtWgt=           1           1           1           1
 AtmWgt=   1.0078250   1.0078250   1.0078250   1.0078250
 NucSpn=           1           1           1           1
 AtZEff=  -0.0000000  -0.0000000  -0.0000000  -0.0000000
 NQMom=    0.0000000   0.0000000   0.0000000   0.0000000
 NMagM=    2.7928460   2.7928460   2.7928460   2.7928460
 AtZNuc=   1.0000000   1.0000000   1.0000000   1.0000000
 Leave Link  101 at Tue Jul 19 23:12:58 2022, MaxMem=  1342177280 cpu:              29.5 elap:               0.6
 (Enter /home/mkliu/g16/l103.exe)

 GradGradGradGradGradGradGradGradGradGradGradGradGradGradGradGradGradGrad
 Berny optimization.
 Initialization pass.
                           ----------------------------
                           !    Initial Parameters    !
                           ! (Angstroms and Degrees)  !
 --------------------------                            --------------------------
 ! Name  Definition              Value          Derivative Info.                !
 --------------------------------------------------------------------------------
 ! R1    R(1,2)                  1.5598         estimate D2E/DX2                !
 ! R2    R(1,41)                 1.5163         estimate D2E/DX2                !
 ! R3    R(1,65)                 1.5182         estimate D2E/DX2                !
 ! R4    R(1,74)                 1.0957         estimate D2E/DX2                !
 ! R5    R(2,3)                  1.5184         estimate D2E/DX2                !
 ! R6    R(2,8)                  1.5207         estimate D2E/DX2                !
 ! R7    R(2,73)                 1.0956         estimate D2E/DX2                !
 ! R8    R(3,4)                  1.37           estimate D2E/DX2                !
 ! R9    R(3,5)                  1.4128         estimate D2E/DX2                !
 ! R10   R(4,26)                 1.4436         estimate D2E/DX2                !
 ! R11   R(4,39)                 1.4512         estimate D2E/DX2                !
 ! R12   R(5,6)                  1.4387         estimate D2E/DX2                !
 ! R13   R(5,13)                 1.3921         estimate D2E/DX2                !
 ! R14   R(6,8)                  1.4281         estimate D2E/DX2                !
 ! R15   R(6,9)                  1.3913         estimate D2E/DX2                !
 ! R16   R(7,10)                 1.5735         estimate D2E/DX2                !
 ! R17   R(7,23)                 1.5057         estimate D2E/DX2                !
 ! R18   R(7,28)                 1.5174         estimate D2E/DX2                !
 ! R19   R(7,67)                 1.0955         estimate D2E/DX2                !
 ! R20   R(8,63)                 1.3731         estimate D2E/DX2                !
 ! R21   R(9,11)                 1.4388         estimate D2E/DX2                !
 ! R22   R(9,61)                 1.4341         estimate D2E/DX2                !
 ! R23   R(10,21)                1.5472         estimate D2E/DX2                !
 ! R24   R(10,30)                1.4904         estimate D2E/DX2                !
 ! R25   R(10,68)                1.093          estimate D2E/DX2                !
 ! R26   R(11,12)                1.3898         estimate D2E/DX2                !
 ! R27   R(11,59)                1.4422         estimate D2E/DX2                !
 ! R28   R(12,13)                1.4338         estimate D2E/DX2                !
 ! R29   R(12,15)                1.4301         estimate D2E/DX2                !
 ! R30   R(13,25)                1.4379         estimate D2E/DX2                !
 ! R31   R(14,16)                1.3918         estimate D2E/DX2                !
 ! R32   R(14,45)                1.4356         estimate D2E/DX2                !
 ! R33   R(14,55)                1.4297         estimate D2E/DX2                !
 ! R34   R(15,24)                1.4352         estimate D2E/DX2                !
 ! R35   R(15,57)                1.3922         estimate D2E/DX2                !
 ! R36   R(16,17)                1.4152         estimate D2E/DX2                !
 ! R37   R(16,58)                1.4418         estimate D2E/DX2                !
 ! R38   R(17,48)                1.3764         estimate D2E/DX2                !
 ! R39   R(17,56)                1.4531         estimate D2E/DX2                !
 ! R40   R(18,19)                1.4741         estimate D2E/DX2                !
 ! R41   R(18,40)                1.3784         estimate D2E/DX2                !
 ! R42   R(18,47)                1.4481         estimate D2E/DX2                !
 ! R43   R(19,20)                1.3855         estimate D2E/DX2                !
 ! R44   R(19,51)                1.447          estimate D2E/DX2                !
 ! R45   R(20,45)                1.4691         estimate D2E/DX2                !
 ! R46   R(20,54)                1.4507         estimate D2E/DX2                !
 ! R47   R(21,22)                1.4985         estimate D2E/DX2                !
 ! R48   R(21,50)                1.5923         estimate D2E/DX2                !
 ! R49   R(21,69)                1.0946         estimate D2E/DX2                !
 ! R50   R(22,23)                1.4079         estimate D2E/DX2                !
 ! R51   R(22,56)                1.3771         estimate D2E/DX2                !
 ! R52   R(23,24)                1.3884         estimate D2E/DX2                !
 ! R53   R(24,25)                1.47           estimate D2E/DX2                !
 ! R54   R(25,26)                1.3892         estimate D2E/DX2                !
 ! R55   R(26,27)                1.4691         estimate D2E/DX2                !
 ! R56   R(27,28)                1.3788         estimate D2E/DX2                !
 ! R57   R(27,38)                1.4475         estimate D2E/DX2                !
 ! R58   R(28,29)                1.4269         estimate D2E/DX2                !
 ! R59   R(29,30)                1.4231         estimate D2E/DX2                !
 ! R60   R(29,35)                1.3862         estimate D2E/DX2                !
 ! R61   R(30,31)                1.3607         estimate D2E/DX2                !
 ! R62   R(31,32)                1.4228         estimate D2E/DX2                !
 ! R63   R(31,33)                1.4908         estimate D2E/DX2                !
 ! R64   R(32,34)                1.3872         estimate D2E/DX2                !
 ! R65   R(32,40)                1.4272         estimate D2E/DX2                !
 ! R66   R(33,37)                1.5735         estimate D2E/DX2                !
 ! R67   R(33,50)                1.547          estimate D2E/DX2                !
 ! R68   R(33,71)                1.093          estimate D2E/DX2                !
 ! R69   R(34,35)                1.4306         estimate D2E/DX2                !
 ! R70   R(34,44)                1.4211         estimate D2E/DX2                !
 ! R71   R(35,36)                1.4212         estimate D2E/DX2                !
 ! R72   R(36,38)                1.3913         estimate D2E/DX2                !
 ! R73   R(36,43)                1.4347         estimate D2E/DX2                !
 ! R74   R(37,40)                1.5168         estimate D2E/DX2                !
 ! R75   R(37,46)                1.5064         estimate D2E/DX2                !
 ! R76   R(37,72)                1.0955         estimate D2E/DX2                !
 ! R77   R(38,39)                1.4261         estimate D2E/DX2                !
 ! R78   R(39,41)                1.3739         estimate D2E/DX2                !
 ! R79   R(41,42)                1.4276         estimate D2E/DX2                !
 ! R80   R(42,43)                1.3866         estimate D2E/DX2                !
 ! R81   R(42,66)                1.4372         estimate D2E/DX2                !
 ! R82   R(43,44)                1.4441         estimate D2E/DX2                !
 ! R83   R(44,47)                1.3879         estimate D2E/DX2                !
 ! R84   R(45,46)                1.3891         estimate D2E/DX2                !
 ! R85   R(46,48)                1.4081         estimate D2E/DX2                !
 ! R86   R(47,49)                1.4296         estimate D2E/DX2                !
 ! R87   R(48,50)                1.4985         estimate D2E/DX2                !
 ! R88   R(49,51)                1.4242         estimate D2E/DX2                !
 ! R89   R(49,66)                1.3968         estimate D2E/DX2                !
 ! R90   R(50,70)                1.0947         estimate D2E/DX2                !
 ! R91   R(51,52)                1.3907         estimate D2E/DX2                !
 ! R92   R(52,53)                1.4247         estimate D2E/DX2                !
 ! R93   R(52,64)                1.4368         estimate D2E/DX2                !
 ! R94   R(53,54)                1.3878         estimate D2E/DX2                !
 ! R95   R(53,62)                1.4401         estimate D2E/DX2                !
 ! R96   R(54,55)                1.4326         estimate D2E/DX2                !
 ! R97   R(55,60)                1.3915         estimate D2E/DX2                !
 ! R98   R(56,57)                1.4148         estimate D2E/DX2                !
 ! R99   R(57,58)                1.4425         estimate D2E/DX2                !
 ! R100  R(58,59)                1.3808         estimate D2E/DX2                !
 ! R101  R(59,60)                1.4432         estimate D2E/DX2                !
 ! R102  R(60,61)                1.437          estimate D2E/DX2                !
 ! R103  R(61,62)                1.3896         estimate D2E/DX2                !
 ! R104  R(62,63)                1.4367         estimate D2E/DX2                !
 ! R105  R(63,64)                1.4612         estimate D2E/DX2                !
 ! R106  R(64,65)                1.3672         estimate D2E/DX2                !
 ! R107  R(65,66)                1.4241         estimate D2E/DX2                !
 ! A1    A(2,1,41)             114.3745         estimate D2E/DX2                !
 ! A2    A(2,1,65)             114.6106         estimate D2E/DX2                !
 ! A3    A(2,1,74)             108.302          estimate D2E/DX2                !
 ! A4    A(41,1,65)             99.9379         estimate D2E/DX2                !
 ! A5    A(41,1,74)            109.5451         estimate D2E/DX2                !
 ! A6    A(65,1,74)            109.8067         estimate D2E/DX2                !
 ! A7    A(1,2,3)              114.6702         estimate D2E/DX2                !
 ! A8    A(1,2,8)              114.9552         estimate D2E/DX2                !
 ! A9    A(1,2,73)             108.2556         estimate D2E/DX2                !
 ! A10   A(3,2,8)               99.6287         estimate D2E/DX2                !
 ! A11   A(3,2,73)             109.645          estimate D2E/DX2                !
 ! A12   A(8,2,73)             109.3827         estimate D2E/DX2                !
 ! A13   A(2,3,4)              125.4229         estimate D2E/DX2                !
 ! A14   A(2,3,5)              110.2532         estimate D2E/DX2                !
 ! A15   A(4,3,5)              118.134          estimate D2E/DX2                !
 ! A16   A(3,4,26)             123.1185         estimate D2E/DX2                !
 ! A17   A(3,4,39)             119.0076         estimate D2E/DX2                !
 ! A18   A(26,4,39)            108.7726         estimate D2E/DX2                !
 ! A19   A(3,5,6)              108.5531         estimate D2E/DX2                !
 ! A20   A(3,5,13)             119.9936         estimate D2E/DX2                !
 ! A21   A(6,5,13)             120.6952         estimate D2E/DX2                !
 ! A22   A(5,6,8)              107.6402         estimate D2E/DX2                !
 ! A23   A(5,6,9)              119.5489         estimate D2E/DX2                !
 ! A24   A(8,6,9)              121.4788         estimate D2E/DX2                !
 ! A25   A(10,7,23)            104.2223         estimate D2E/DX2                !
 ! A26   A(10,7,28)            105.5667         estimate D2E/DX2                !
 ! A27   A(10,7,67)            112.1073         estimate D2E/DX2                !
 ! A28   A(23,7,28)            113.5468         estimate D2E/DX2                !
 ! A29   A(23,7,67)            110.5658         estimate D2E/DX2                !
 ! A30   A(28,7,67)            110.6031         estimate D2E/DX2                !
 ! A31   A(2,8,6)              109.7568         estimate D2E/DX2                !
 ! A32   A(2,8,63)             124.3963         estimate D2E/DX2                !
 ! A33   A(6,8,63)             118.8174         estimate D2E/DX2                !
 ! A34   A(6,9,11)             119.9467         estimate D2E/DX2                !
 ! A35   A(6,9,61)             119.2797         estimate D2E/DX2                !
 ! A36   A(11,9,61)            108.1453         estimate D2E/DX2                !
 ! A37   A(7,10,21)            108.6168         estimate D2E/DX2                !
 ! A38   A(7,10,30)            103.0889         estimate D2E/DX2                !
 ! A39   A(7,10,68)            111.0979         estimate D2E/DX2                !
 ! A40   A(21,10,30)           112.3328         estimate D2E/DX2                !
 ! A41   A(21,10,68)           110.5864         estimate D2E/DX2                !
 ! A42   A(30,10,68)           110.8819         estimate D2E/DX2                !
 ! A43   A(9,11,12)            119.7512         estimate D2E/DX2                !
 ! A44   A(9,11,59)            107.8649         estimate D2E/DX2                !
 ! A45   A(12,11,59)           119.1091         estimate D2E/DX2                !
 ! A46   A(11,12,13)           120.6982         estimate D2E/DX2                !
 ! A47   A(11,12,15)           120.7948         estimate D2E/DX2                !
 ! A48   A(13,12,15)           107.1513         estimate D2E/DX2                !
 ! A49   A(5,13,12)            118.9404         estimate D2E/DX2                !
 ! A50   A(5,13,25)            121.9778         estimate D2E/DX2                !
 ! A51   A(12,13,25)           109.2684         estimate D2E/DX2                !
 ! A52   A(16,14,45)           121.2406         estimate D2E/DX2                !
 ! A53   A(16,14,55)           119.5449         estimate D2E/DX2                !
 ! A54   A(45,14,55)           109.8674         estimate D2E/DX2                !
 ! A55   A(12,15,24)           109.7174         estimate D2E/DX2                !
 ! A56   A(12,15,57)           119.5266         estimate D2E/DX2                !
 ! A57   A(24,15,57)           121.1282         estimate D2E/DX2                !
 ! A58   A(14,16,17)           118.5888         estimate D2E/DX2                !
 ! A59   A(14,16,58)           119.3898         estimate D2E/DX2                !
 ! A60   A(17,16,58)           108.9955         estimate D2E/DX2                !
 ! A61   A(16,17,48)           120.0741         estimate D2E/DX2                !
 ! A62   A(16,17,56)           107.5699         estimate D2E/DX2                !
 ! A63   A(48,17,56)           118.3718         estimate D2E/DX2                !
 ! A64   A(19,18,40)           128.9409         estimate D2E/DX2                !
 ! A65   A(19,18,47)           106.4914         estimate D2E/DX2                !
 ! A66   A(40,18,47)           118.7659         estimate D2E/DX2                !
 ! A67   A(18,19,20)           127.1154         estimate D2E/DX2                !
 ! A68   A(18,19,51)           106.934          estimate D2E/DX2                !
 ! A69   A(20,19,51)           118.2934         estimate D2E/DX2                !
 ! A70   A(19,20,45)           127.4013         estimate D2E/DX2                !
 ! A71   A(19,20,54)           118.5216         estimate D2E/DX2                !
 ! A72   A(45,20,54)           106.8417         estimate D2E/DX2                !
 ! A73   A(10,21,22)           102.5138         estimate D2E/DX2                !
 ! A74   A(10,21,50)           119.1078         estimate D2E/DX2                !
 ! A75   A(10,21,69)           108.3352         estimate D2E/DX2                !
 ! A76   A(22,21,50)           112.9022         estimate D2E/DX2                !
 ! A77   A(22,21,69)           108.2099         estimate D2E/DX2                !
 ! A78   A(50,21,69)           105.3969         estimate D2E/DX2                !
 ! A79   A(21,22,23)           114.5697         estimate D2E/DX2                !
 ! A80   A(21,22,56)           121.5342         estimate D2E/DX2                !
 ! A81   A(23,22,56)           121.1952         estimate D2E/DX2                !
 ! A82   A(7,23,22)            109.4625         estimate D2E/DX2                !
 ! A83   A(7,23,24)            129.0827         estimate D2E/DX2                !
 ! A84   A(22,23,24)           119.9306         estimate D2E/DX2                !
 ! A85   A(15,24,23)           118.2481         estimate D2E/DX2                !
 ! A86   A(15,24,25)           106.7366         estimate D2E/DX2                !
 ! A87   A(23,24,25)           129.3308         estimate D2E/DX2                !
 ! A88   A(13,25,24)           107.0175         estimate D2E/DX2                !
 ! A89   A(13,25,26)           117.8437         estimate D2E/DX2                !
 ! A90   A(24,25,26)           127.6285         estimate D2E/DX2                !
 ! A91   A(4,26,25)            118.7454         estimate D2E/DX2                !
 ! A92   A(4,26,27)            107.4828         estimate D2E/DX2                !
 ! A93   A(25,26,27)           126.9077         estimate D2E/DX2                !
 ! A94   A(26,27,28)           129.0232         estimate D2E/DX2                !
 ! A95   A(26,27,38)           106.503          estimate D2E/DX2                !
 ! A96   A(28,27,38)           119.0271         estimate D2E/DX2                !
 ! A97   A(7,28,27)            130.767          estimate D2E/DX2                !
 ! A98   A(7,28,29)            107.8717         estimate D2E/DX2                !
 ! A99   A(27,28,29)           118.278          estimate D2E/DX2                !
 ! A100  A(28,29,30)           109.5592         estimate D2E/DX2                !
 ! A101  A(28,29,35)           122.3217         estimate D2E/DX2                !
 ! A102  A(30,29,35)           120.1545         estimate D2E/DX2                !
 ! A103  A(10,30,29)           109.8284         estimate D2E/DX2                !
 ! A104  A(10,30,31)           125.6613         estimate D2E/DX2                !
 ! A105  A(29,30,31)           119.4811         estimate D2E/DX2                !
 ! A106  A(30,31,32)           119.5277         estimate D2E/DX2                !
 ! A107  A(30,31,33)           125.6196         estimate D2E/DX2                !
 ! A108  A(32,31,33)           109.8639         estimate D2E/DX2                !
 ! A109  A(31,32,34)           120.1492         estimate D2E/DX2                !
 ! A110  A(31,32,40)           109.5137         estimate D2E/DX2                !
 ! A111  A(34,32,40)           122.3574         estimate D2E/DX2                !
 ! A112  A(31,33,37)           103.0749         estimate D2E/DX2                !
 ! A113  A(31,33,50)           112.3117         estimate D2E/DX2                !
 ! A114  A(31,33,71)           110.8904         estimate D2E/DX2                !
 ! A115  A(37,33,50)           108.5881         estimate D2E/DX2                !
 ! A116  A(37,33,71)           111.1077         estimate D2E/DX2                !
 ! A117  A(50,33,71)           110.627          estimate D2E/DX2                !
 ! A118  A(32,34,35)           118.6815         estimate D2E/DX2                !
 ! A119  A(32,34,44)           119.8037         estimate D2E/DX2                !
 ! A120  A(35,34,44)           108.0725         estimate D2E/DX2                !
 ! A121  A(29,35,34)           118.7141         estimate D2E/DX2                !
 ! A122  A(29,35,36)           119.742          estimate D2E/DX2                !
 ! A123  A(34,35,36)           108.08           estimate D2E/DX2                !
 ! A124  A(35,36,38)           118.0044         estimate D2E/DX2                !
 ! A125  A(35,36,43)           108.4243         estimate D2E/DX2                !
 ! A126  A(38,36,43)           119.1274         estimate D2E/DX2                !
 ! A127  A(33,37,40)           105.528          estimate D2E/DX2                !
 ! A128  A(33,37,46)           104.236          estimate D2E/DX2                !
 ! A129  A(33,37,72)           112.1567         estimate D2E/DX2                !
 ! A130  A(40,37,46)           113.4117         estimate D2E/DX2                !
 ! A131  A(40,37,72)           110.7127         estimate D2E/DX2                !
 ! A132  A(46,37,72)           110.56           estimate D2E/DX2                !
 ! A133  A(27,38,36)           121.7935         estimate D2E/DX2                !
 ! A134  A(27,38,39)           109.9911         estimate D2E/DX2                !
 ! A135  A(36,38,39)           119.4118         estimate D2E/DX2                !
 ! A136  A(4,39,38)            107.1221         estimate D2E/DX2                !
 ! A137  A(4,39,41)            120.742          estimate D2E/DX2                !
 ! A138  A(38,39,41)           121.4217         estimate D2E/DX2                !
 ! A139  A(18,40,32)           118.2938         estimate D2E/DX2                !
 ! A140  A(18,40,37)           130.6237         estimate D2E/DX2                !
 ! A141  A(32,40,37)           107.9736         estimate D2E/DX2                !
 ! A142  A(1,41,39)            124.5149         estimate D2E/DX2                !
 ! A143  A(1,41,42)            109.7186         estimate D2E/DX2                !
 ! A144  A(39,41,42)           118.2584         estimate D2E/DX2                !
 ! A145  A(41,42,43)           121.1336         estimate D2E/DX2                !
 ! A146  A(41,42,66)           107.8044         estimate D2E/DX2                !
 ! A147  A(43,42,66)           119.8053         estimate D2E/DX2                !
 ! A148  A(36,43,42)           119.3203         estimate D2E/DX2                !
 ! A149  A(36,43,44)           106.889          estimate D2E/DX2                !
 ! A150  A(42,43,44)           120.1781         estimate D2E/DX2                !
 ! A151  A(34,44,43)           108.155          estimate D2E/DX2                !
 ! A152  A(34,44,47)           117.7239         estimate D2E/DX2                !
 ! A153  A(43,44,47)           119.7384         estimate D2E/DX2                !
 ! A154  A(14,45,20)           106.842          estimate D2E/DX2                !
 ! A155  A(14,45,46)           118.1877         estimate D2E/DX2                !
 ! A156  A(20,45,46)           129.4359         estimate D2E/DX2                !
 ! A157  A(37,46,45)           129.2656         estimate D2E/DX2                !
 ! A158  A(37,46,48)           109.379          estimate D2E/DX2                !
 ! A159  A(45,46,48)           119.8805         estimate D2E/DX2                !
 ! A160  A(18,47,44)           122.2936         estimate D2E/DX2                !
 ! A161  A(18,47,49)           109.3169         estimate D2E/DX2                !
 ! A162  A(44,47,49)           119.1761         estimate D2E/DX2                !
 ! A163  A(17,48,46)           121.2955         estimate D2E/DX2                !
 ! A164  A(17,48,50)           121.471          estimate D2E/DX2                !
 ! A165  A(46,48,50)           114.6044         estimate D2E/DX2                !
 ! A166  A(47,49,51)           107.9047         estimate D2E/DX2                !
 ! A167  A(47,49,66)           120.9309         estimate D2E/DX2                !
 ! A168  A(51,49,66)           120.1728         estimate D2E/DX2                !
 ! A169  A(21,50,33)           119.1226         estimate D2E/DX2                !
 ! A170  A(21,50,48)           112.8733         estimate D2E/DX2                !
 ! A171  A(21,50,70)           105.3938         estimate D2E/DX2                !
 ! A172  A(33,50,48)           102.5124         estimate D2E/DX2                !
 ! A173  A(33,50,70)           108.3669         estimate D2E/DX2                !
 ! A174  A(48,50,70)           108.1966         estimate D2E/DX2                !
 ! A175  A(19,51,49)           109.1951         estimate D2E/DX2                !
 ! A176  A(19,51,52)           122.8188         estimate D2E/DX2                !
 ! A177  A(49,51,52)           118.0898         estimate D2E/DX2                !
 ! A178  A(51,52,53)           118.6942         estimate D2E/DX2                !
 ! A179  A(51,52,64)           121.0932         estimate D2E/DX2                !
 ! A180  A(53,52,64)           108.675          estimate D2E/DX2                !
 ! A181  A(52,53,54)           118.9501         estimate D2E/DX2                !
 ! A182  A(52,53,62)           108.3711         estimate D2E/DX2                !
 ! A183  A(54,53,62)           120.8919         estimate D2E/DX2                !
 ! A184  A(20,54,53)           122.5281         estimate D2E/DX2                !
 ! A185  A(20,54,55)           109.0348         estimate D2E/DX2                !
 ! A186  A(53,54,55)           118.7464         estimate D2E/DX2                !
 ! A187  A(14,55,54)           107.3179         estimate D2E/DX2                !
 ! A188  A(14,55,60)           120.7462         estimate D2E/DX2                !
 ! A189  A(54,55,60)           120.8458         estimate D2E/DX2                !
 ! A190  A(17,56,22)           118.2035         estimate D2E/DX2                !
 ! A191  A(17,56,57)           107.5763         estimate D2E/DX2                !
 ! A192  A(22,56,57)           120.0932         estimate D2E/DX2                !
 ! A193  A(15,57,56)           118.6335         estimate D2E/DX2                !
 ! A194  A(15,57,58)           119.2981         estimate D2E/DX2                !
 ! A195  A(56,57,58)           108.9909         estimate D2E/DX2                !
 ! A196  A(16,58,57)           106.2685         estimate D2E/DX2                !
 ! A197  A(16,58,59)           120.1988         estimate D2E/DX2                !
 ! A198  A(57,58,59)           120.2708         estimate D2E/DX2                !
 ! A199  A(11,59,58)           120.0345         estimate D2E/DX2                !
 ! A200  A(11,59,60)           107.6586         estimate D2E/DX2                !
 ! A201  A(58,59,60)           120.0802         estimate D2E/DX2                !
 ! A202  A(55,60,59)           119.0346         estimate D2E/DX2                !
 ! A203  A(55,60,61)           119.6484         estimate D2E/DX2                !
 ! A204  A(59,60,61)           107.9227         estimate D2E/DX2                !
 ! A205  A(9,61,60)            108.1269         estimate D2E/DX2                !
 ! A206  A(9,61,62)            119.0206         estimate D2E/DX2                !
 ! A207  A(60,61,62)           119.9513         estimate D2E/DX2                !
 ! A208  A(53,62,61)           119.4793         estimate D2E/DX2                !
 ! A209  A(53,62,63)           107.9951         estimate D2E/DX2                !
 ! A210  A(61,62,63)           120.6395         estimate D2E/DX2                !
 ! A211  A(8,63,62)            120.3948         estimate D2E/DX2                !
 ! A212  A(8,63,64)            119.5726         estimate D2E/DX2                !
 ! A213  A(62,63,64)           107.6052         estimate D2E/DX2                !
 ! A214  A(52,64,63)           107.2533         estimate D2E/DX2                !
 ! A215  A(52,64,65)           120.27           estimate D2E/DX2                !
 ! A216  A(63,64,65)           120.5795         estimate D2E/DX2                !
 ! A217  A(1,65,64)            124.2913         estimate D2E/DX2                !
 ! A218  A(1,65,66)            110.2608         estimate D2E/DX2                !
 ! A219  A(64,65,66)           119.0884         estimate D2E/DX2                !
 ! A220  A(42,66,49)           119.2237         estimate D2E/DX2                !
 ! A221  A(42,66,65)           108.2489         estimate D2E/DX2                !
 ! A222  A(49,66,65)           120.9138         estimate D2E/DX2                !
 ! D1    D(41,1,2,3)            -4.2468         estimate D2E/DX2                !
 ! D2    D(41,1,2,8)          -118.8773         estimate D2E/DX2                !
 ! D3    D(41,1,2,73)          118.5102         estimate D2E/DX2                !
 ! D4    D(65,1,2,3)           110.3317         estimate D2E/DX2                !
 ! D5    D(65,1,2,8)            -4.2988         estimate D2E/DX2                !
 ! D6    D(65,1,2,73)         -126.9113         estimate D2E/DX2                !
 ! D7    D(74,1,2,3)          -126.7071         estimate D2E/DX2                !
 ! D8    D(74,1,2,8)           118.6624         estimate D2E/DX2                !
 ! D9    D(74,1,2,73)           -3.9501         estimate D2E/DX2                !
 ! D10   D(2,1,41,39)           -5.9362         estimate D2E/DX2                !
 ! D11   D(2,1,41,42)          143.0289         estimate D2E/DX2                !
 ! D12   D(65,1,41,39)        -128.8618         estimate D2E/DX2                !
 ! D13   D(65,1,41,42)          20.1032         estimate D2E/DX2                !
 ! D14   D(74,1,41,39)         115.8453         estimate D2E/DX2                !
 ! D15   D(74,1,41,42)         -95.1896         estimate D2E/DX2                !
 ! D16   D(2,1,65,64)           12.1355         estimate D2E/DX2                !
 ! D17   D(2,1,65,66)         -139.3832         estimate D2E/DX2                !
 ! D18   D(41,1,65,64)         134.8945         estimate D2E/DX2                !
 ! D19   D(41,1,65,66)         -16.6242         estimate D2E/DX2                !
 ! D20   D(74,1,65,64)        -110.0115         estimate D2E/DX2                !
 ! D21   D(74,1,65,66)          98.4698         estimate D2E/DX2                !
 ! D22   D(1,2,3,4)              9.596          estimate D2E/DX2                !
 ! D23   D(1,2,3,5)           -141.9528         estimate D2E/DX2                !
 ! D24   D(8,2,3,4)            132.8839         estimate D2E/DX2                !
 ! D25   D(8,2,3,5)            -18.6649         estimate D2E/DX2                !
 ! D26   D(73,2,3,4)          -112.4087         estimate D2E/DX2                !
 ! D27   D(73,2,3,5)            96.0425         estimate D2E/DX2                !
 ! D28   D(1,2,8,6)            142.991          estimate D2E/DX2                !
 ! D29   D(1,2,8,63)            -7.074          estimate D2E/DX2                !
 ! D30   D(3,2,8,6)             19.9045         estimate D2E/DX2                !
 ! D31   D(3,2,8,63)          -130.1605         estimate D2E/DX2                !
 ! D32   D(73,2,8,6)           -95.004          estimate D2E/DX2                !
 ! D33   D(73,2,8,63)          114.9311         estimate D2E/DX2                !
 ! D34   D(2,3,4,26)          -147.7232         estimate D2E/DX2                !
 ! D35   D(2,3,4,39)            -4.4912         estimate D2E/DX2                !
 ! D36   D(5,3,4,26)             1.8234         estimate D2E/DX2                !
 ! D37   D(5,3,4,39)           145.0553         estimate D2E/DX2                !
 ! D38   D(2,3,5,6)             11.2565         estimate D2E/DX2                !
 ! D39   D(2,3,5,13)           155.887          estimate D2E/DX2                !
 ! D40   D(4,3,5,6)           -142.6244         estimate D2E/DX2                !
 ! D41   D(4,3,5,13)             2.0062         estimate D2E/DX2                !
 ! D42   D(3,4,26,25)           -2.893          estimate D2E/DX2                !
 ! D43   D(3,4,26,27)          150.0899         estimate D2E/DX2                !
 ! D44   D(39,4,26,25)        -149.3267         estimate D2E/DX2                !
 ! D45   D(39,4,26,27)           3.6562         estimate D2E/DX2                !
 ! D46   D(3,4,39,38)         -151.4152         estimate D2E/DX2                !
 ! D47   D(3,4,39,41)           -6.538          estimate D2E/DX2                !
 ! D48   D(26,4,39,38)          -3.3869         estimate D2E/DX2                !
 ! D49   D(26,4,39,41)         141.4902         estimate D2E/DX2                !
 ! D50   D(3,5,6,8)              2.1036         estimate D2E/DX2                !
 ! D51   D(3,5,6,9)            146.2135         estimate D2E/DX2                !
 ! D52   D(13,5,6,8)          -142.2338         estimate D2E/DX2                !
 ! D53   D(13,5,6,9)             1.8761         estimate D2E/DX2                !
 ! D54   D(3,5,13,12)         -146.9892         estimate D2E/DX2                !
 ! D55   D(3,5,13,25)           -4.8257         estimate D2E/DX2                !
 ! D56   D(6,5,13,12)           -6.6451         estimate D2E/DX2                !
 ! D57   D(6,5,13,25)          135.5184         estimate D2E/DX2                !
 ! D58   D(5,6,8,2)            -14.637          estimate D2E/DX2                !
 ! D59   D(5,6,8,63)           137.331          estimate D2E/DX2                !
 ! D60   D(9,6,8,2)           -157.9111         estimate D2E/DX2                !
 ! D61   D(9,6,8,63)            -5.9431         estimate D2E/DX2                !
 ! D62   D(5,6,9,11)             3.4619         estimate D2E/DX2                !
 ! D63   D(5,6,9,61)          -133.8526         estimate D2E/DX2                !
 ! D64   D(8,6,9,11)           142.5368         estimate D2E/DX2                !
 ! D65   D(8,6,9,61)             5.2223         estimate D2E/DX2                !
 ! D66   D(23,7,10,21)          -7.9791         estimate D2E/DX2                !
 ! D67   D(23,7,10,30)         111.3604         estimate D2E/DX2                !
 ! D68   D(23,7,10,68)        -129.8267         estimate D2E/DX2                !
 ! D69   D(28,7,10,21)        -127.8752         estimate D2E/DX2                !
 ! D70   D(28,7,10,30)          -8.5357         estimate D2E/DX2                !
 ! D71   D(28,7,10,68)         110.2771         estimate D2E/DX2                !
 ! D72   D(67,7,10,21)         111.6314         estimate D2E/DX2                !
 ! D73   D(67,7,10,30)        -129.0291         estimate D2E/DX2                !
 ! D74   D(67,7,10,68)         -10.2162         estimate D2E/DX2                !
 ! D75   D(10,7,23,22)           6.836          estimate D2E/DX2                !
 ! D76   D(10,7,23,24)        -158.8014         estimate D2E/DX2                !
 ! D77   D(28,7,23,22)         121.1943         estimate D2E/DX2                !
 ! D78   D(28,7,23,24)         -44.4431         estimate D2E/DX2                !
 ! D79   D(67,7,23,22)        -113.8121         estimate D2E/DX2                !
 ! D80   D(67,7,23,24)          80.5505         estimate D2E/DX2                !
 ! D81   D(10,7,28,27)         155.7258         estimate D2E/DX2                !
 ! D82   D(10,7,28,29)          -3.5405         estimate D2E/DX2                !
 ! D83   D(23,7,28,27)          42.1723         estimate D2E/DX2                !
 ! D84   D(23,7,28,29)        -117.0939         estimate D2E/DX2                !
 ! D85   D(67,7,28,27)         -82.8013         estimate D2E/DX2                !
 ! D86   D(67,7,28,29)         117.9324         estimate D2E/DX2                !
 ! D87   D(2,8,63,62)          148.9689         estimate D2E/DX2                !
 ! D88   D(2,8,63,64)           11.5753         estimate D2E/DX2                !
 ! D89   D(6,8,63,62)            1.3823         estimate D2E/DX2                !
 ! D90   D(6,8,63,64)         -136.0113         estimate D2E/DX2                !
 ! D91   D(6,9,11,12)           -3.908          estimate D2E/DX2                !
 ! D92   D(6,9,11,59)         -144.5271         estimate D2E/DX2                !
 ! D93   D(61,9,11,12)         137.6074         estimate D2E/DX2                !
 ! D94   D(61,9,11,59)          -3.0118         estimate D2E/DX2                !
 ! D95   D(6,9,61,60)          141.5335         estimate D2E/DX2                !
 ! D96   D(6,9,61,62)            0.0542         estimate D2E/DX2                !
 ! D97   D(11,9,61,60)          -0.2816         estimate D2E/DX2                !
 ! D98   D(11,9,61,62)        -141.7609         estimate D2E/DX2                !
 ! D99   D(7,10,21,22)           6.0508         estimate D2E/DX2                !
 ! D100  D(7,10,21,50)         131.489          estimate D2E/DX2                !
 ! D101  D(7,10,21,69)        -108.2029         estimate D2E/DX2                !
 ! D102  D(30,10,21,22)       -107.323          estimate D2E/DX2                !
 ! D103  D(30,10,21,50)         18.1152         estimate D2E/DX2                !
 ! D104  D(30,10,21,69)        138.4233         estimate D2E/DX2                !
 ! D105  D(68,10,21,22)        128.21           estimate D2E/DX2                !
 ! D106  D(68,10,21,50)       -106.3518         estimate D2E/DX2                !
 ! D107  D(68,10,21,69)         13.9563         estimate D2E/DX2                !
 ! D108  D(7,10,30,29)          18.1263         estimate D2E/DX2                !
 ! D109  D(7,10,30,31)        -136.3802         estimate D2E/DX2                !
 ! D110  D(21,10,30,29)        134.8598         estimate D2E/DX2                !
 ! D111  D(21,10,30,31)        -19.6467         estimate D2E/DX2                !
 ! D112  D(68,10,30,29)       -100.8367         estimate D2E/DX2                !
 ! D113  D(68,10,30,31)        104.6568         estimate D2E/DX2                !
 ! D114  D(9,11,12,13)          -0.9514         estimate D2E/DX2                !
 ! D115  D(9,11,12,15)        -139.8109         estimate D2E/DX2                !
 ! D116  D(59,11,12,13)        135.3251         estimate D2E/DX2                !
 ! D117  D(59,11,12,15)         -3.5343         estimate D2E/DX2                !
 ! D118  D(9,11,59,58)         147.4686         estimate D2E/DX2                !
 ! D119  D(9,11,59,60)           5.1304         estimate D2E/DX2                !
 ! D120  D(12,11,59,58)          6.5536         estimate D2E/DX2                !
 ! D121  D(12,11,59,60)       -135.7846         estimate D2E/DX2                !
 ! D122  D(11,12,13,5)           6.1983         estimate D2E/DX2                !
 ! D123  D(11,12,13,25)       -140.3519         estimate D2E/DX2                !
 ! D124  D(15,12,13,5)         149.9384         estimate D2E/DX2                !
 ! D125  D(15,12,13,25)          3.3882         estimate D2E/DX2                !
 ! D126  D(11,12,15,24)        141.3143         estimate D2E/DX2                !
 ! D127  D(11,12,15,57)         -5.2087         estimate D2E/DX2                !
 ! D128  D(13,12,15,24)         -2.3836         estimate D2E/DX2                !
 ! D129  D(13,12,15,57)       -148.9066         estimate D2E/DX2                !
 ! D130  D(5,13,25,24)        -148.4234         estimate D2E/DX2                !
 ! D131  D(5,13,25,26)           3.6764         estimate D2E/DX2                !
 ! D132  D(12,13,25,24)         -3.0806         estimate D2E/DX2                !
 ! D133  D(12,13,25,26)        149.0192         estimate D2E/DX2                !
 ! D134  D(45,14,16,17)         -4.8557         estimate D2E/DX2                !
 ! D135  D(45,14,16,58)        132.2312         estimate D2E/DX2                !
 ! D136  D(55,14,16,17)       -148.0536         estimate D2E/DX2                !
 ! D137  D(55,14,16,58)        -10.9667         estimate D2E/DX2                !
 ! D138  D(16,14,45,20)       -146.9872         estimate D2E/DX2                !
 ! D139  D(16,14,45,46)          9.2489         estimate D2E/DX2                !
 ! D140  D(55,14,45,20)         -0.6386         estimate D2E/DX2                !
 ! D141  D(55,14,45,46)        155.5975         estimate D2E/DX2                !
 ! D142  D(16,14,55,54)        149.3787         estimate D2E/DX2                !
 ! D143  D(16,14,55,60)          5.2443         estimate D2E/DX2                !
 ! D144  D(45,14,55,54)          2.3761         estimate D2E/DX2                !
 ! D145  D(45,14,55,60)       -141.7583         estimate D2E/DX2                !
 ! D146  D(12,15,24,23)       -155.4047         estimate D2E/DX2                !
 ! D147  D(12,15,24,25)          0.5008         estimate D2E/DX2                !
 ! D148  D(57,15,24,23)         -9.5087         estimate D2E/DX2                !
 ! D149  D(57,15,24,25)        146.3968         estimate D2E/DX2                !
 ! D150  D(12,15,57,56)        147.8415         estimate D2E/DX2                !
 ! D151  D(12,15,57,58)         10.8286         estimate D2E/DX2                !
 ! D152  D(24,15,57,56)          5.1859         estimate D2E/DX2                !
 ! D153  D(24,15,57,58)       -131.8271         estimate D2E/DX2                !
 ! D154  D(14,16,17,48)         -3.027          estimate D2E/DX2                !
 ! D155  D(14,16,17,56)        136.3793         estimate D2E/DX2                !
 ! D156  D(58,16,17,48)       -144.1666         estimate D2E/DX2                !
 ! D157  D(58,16,17,56)         -4.7602         estimate D2E/DX2                !
 ! D158  D(14,16,58,57)       -133.1888         estimate D2E/DX2                !
 ! D159  D(14,16,58,59)          7.8349         estimate D2E/DX2                !
 ! D160  D(17,16,58,57)          7.5908         estimate D2E/DX2                !
 ! D161  D(17,16,58,59)        148.6145         estimate D2E/DX2                !
 ! D162  D(16,17,48,46)          6.5144         estimate D2E/DX2                !
 ! D163  D(16,17,48,50)        167.1411         estimate D2E/DX2                !
 ! D164  D(56,17,48,46)       -128.6544         estimate D2E/DX2                !
 ! D165  D(56,17,48,50)         31.9722         estimate D2E/DX2                !
 ! D166  D(16,17,56,22)       -140.0736         estimate D2E/DX2                !
 ! D167  D(16,17,56,57)         -0.0159         estimate D2E/DX2                !
 ! D168  D(48,17,56,22)          0.1373         estimate D2E/DX2                !
 ! D169  D(48,17,56,57)        140.195          estimate D2E/DX2                !
 ! D170  D(40,18,19,20)          6.187          estimate D2E/DX2                !
 ! D171  D(40,18,19,51)        154.5882         estimate D2E/DX2                !
 ! D172  D(47,18,19,20)       -146.0018         estimate D2E/DX2                !
 ! D173  D(47,18,19,51)          2.3995         estimate D2E/DX2                !
 ! D174  D(19,18,40,32)       -140.9697         estimate D2E/DX2                !
 ! D175  D(19,18,40,37)         16.4721         estimate D2E/DX2                !
 ! D176  D(47,18,40,32)          8.3433         estimate D2E/DX2                !
 ! D177  D(47,18,40,37)        165.7851         estimate D2E/DX2                !
 ! D178  D(19,18,47,44)        146.3421         estimate D2E/DX2                !
 ! D179  D(19,18,47,49)         -0.0287         estimate D2E/DX2                !
 ! D180  D(40,18,47,44)         -9.2031         estimate D2E/DX2                !
 ! D181  D(40,18,47,49)       -155.5739         estimate D2E/DX2                !
 ! D182  D(18,19,20,45)          0.1867         estimate D2E/DX2                !
 ! D183  D(18,19,20,54)        146.3473         estimate D2E/DX2                !
 ! D184  D(51,19,20,45)       -145.1149         estimate D2E/DX2                !
 ! D185  D(51,19,20,54)          1.0457         estimate D2E/DX2                !
 ! D186  D(18,19,51,49)         -3.9424         estimate D2E/DX2                !
 ! D187  D(18,19,51,52)       -148.8064         estimate D2E/DX2                !
 ! D188  D(20,19,51,49)        147.73           estimate D2E/DX2                !
 ! D189  D(20,19,51,52)          2.866          estimate D2E/DX2                !
 ! D190  D(19,20,45,14)        147.9322         estimate D2E/DX2                !
 ! D191  D(19,20,45,46)         -4.6887         estimate D2E/DX2                !
 ! D192  D(54,20,45,14)         -1.3233         estimate D2E/DX2                !
 ! D193  D(54,20,45,46)       -153.9442         estimate D2E/DX2                !
 ! D194  D(19,20,54,53)         -4.2278         estimate D2E/DX2                !
 ! D195  D(19,20,54,55)       -149.6585         estimate D2E/DX2                !
 ! D196  D(45,20,54,53)        148.2431         estimate D2E/DX2                !
 ! D197  D(45,20,54,55)          2.8124         estimate D2E/DX2                !
 ! D198  D(10,21,22,23)         -1.8482         estimate D2E/DX2                !
 ! D199  D(10,21,22,56)        159.7275         estimate D2E/DX2                !
 ! D200  D(50,21,22,23)       -131.2458         estimate D2E/DX2                !
 ! D201  D(50,21,22,56)         30.3299         estimate D2E/DX2                !
 ! D202  D(69,21,22,23)        112.497          estimate D2E/DX2                !
 ! D203  D(69,21,22,56)        -85.9273         estimate D2E/DX2                !
 ! D204  D(10,21,50,33)          0.1995         estimate D2E/DX2                !
 ! D205  D(10,21,50,48)       -120.0784         estimate D2E/DX2                !
 ! D206  D(10,21,50,70)        122.0369         estimate D2E/DX2                !
 ! D207  D(22,21,50,33)        120.4932         estimate D2E/DX2                !
 ! D208  D(22,21,50,48)          0.2152         estimate D2E/DX2                !
 ! D209  D(22,21,50,70)       -117.6695         estimate D2E/DX2                !
 ! D210  D(69,21,50,33)       -121.5886         estimate D2E/DX2                !
 ! D211  D(69,21,50,48)        118.1335         estimate D2E/DX2                !
 ! D212  D(69,21,50,70)          0.2488         estimate D2E/DX2                !
 ! D213  D(21,22,23,7)          -3.3194         estimate D2E/DX2                !
 ! D214  D(21,22,23,24)        163.8433         estimate D2E/DX2                !
 ! D215  D(56,22,23,7)        -164.9638         estimate D2E/DX2                !
 ! D216  D(56,22,23,24)          2.1989         estimate D2E/DX2                !
 ! D217  D(21,22,56,17)        -32.0714         estimate D2E/DX2                !
 ! D218  D(21,22,56,57)       -167.0483         estimate D2E/DX2                !
 ! D219  D(23,22,56,17)        128.294          estimate D2E/DX2                !
 ! D220  D(23,22,56,57)         -6.6829         estimate D2E/DX2                !
 ! D221  D(7,23,24,15)         170.0856         estimate D2E/DX2                !
 ! D222  D(7,23,24,25)          20.4454         estimate D2E/DX2                !
 ! D223  D(22,23,24,15)          5.7425         estimate D2E/DX2                !
 ! D224  D(22,23,24,25)       -143.8977         estimate D2E/DX2                !
 ! D225  D(15,24,25,13)          1.571          estimate D2E/DX2                !
 ! D226  D(15,24,25,26)       -146.9335         estimate D2E/DX2                !
 ! D227  D(23,24,25,13)        153.8652         estimate D2E/DX2                !
 ! D228  D(23,24,25,26)          5.3607         estimate D2E/DX2                !
 ! D229  D(13,25,26,4)           0.1182         estimate D2E/DX2                !
 ! D230  D(13,25,26,27)       -147.0715         estimate D2E/DX2                !
 ! D231  D(24,25,26,4)         145.7183         estimate D2E/DX2                !
 ! D232  D(24,25,26,27)         -1.4714         estimate D2E/DX2                !
 ! D233  D(4,26,27,28)        -155.5646         estimate D2E/DX2                !
 ! D234  D(4,26,27,38)          -2.4998         estimate D2E/DX2                !
 ! D235  D(25,26,27,28)         -5.4385         estimate D2E/DX2                !
 ! D236  D(25,26,27,38)        147.6263         estimate D2E/DX2                !
 ! D237  D(26,27,28,7)         -16.1624         estimate D2E/DX2                !
 ! D238  D(26,27,28,29)        141.3426         estimate D2E/DX2                !
 ! D239  D(38,27,28,7)        -166.3796         estimate D2E/DX2                !
 ! D240  D(38,27,28,29)         -8.8745         estimate D2E/DX2                !
 ! D241  D(26,27,38,36)       -146.7507         estimate D2E/DX2                !
 ! D242  D(26,27,38,39)          0.424          estimate D2E/DX2                !
 ! D243  D(28,27,38,36)          9.5165         estimate D2E/DX2                !
 ! D244  D(28,27,38,39)        156.6912         estimate D2E/DX2                !
 ! D245  D(7,28,29,30)          15.2413         estimate D2E/DX2                !
 ! D246  D(7,28,29,35)         164.0702         estimate D2E/DX2                !
 ! D247  D(27,28,29,30)       -147.0329         estimate D2E/DX2                !
 ! D248  D(27,28,29,35)          1.796          estimate D2E/DX2                !
 ! D249  D(28,29,30,10)        -21.6401         estimate D2E/DX2                !
 ! D250  D(28,29,30,31)        134.6747         estimate D2E/DX2                !
 ! D251  D(35,29,30,10)       -171.2521         estimate D2E/DX2                !
 ! D252  D(35,29,30,31)        -14.9373         estimate D2E/DX2                !
 ! D253  D(28,29,35,34)       -130.8758         estimate D2E/DX2                !
 ! D254  D(28,29,35,36)          5.2233         estimate D2E/DX2                !
 ! D255  D(30,29,35,34)         14.7871         estimate D2E/DX2                !
 ! D256  D(30,29,35,36)        150.8863         estimate D2E/DX2                !
 ! D257  D(10,30,31,32)        152.4213         estimate D2E/DX2                !
 ! D258  D(10,30,31,33)          0.0231         estimate D2E/DX2                !
 ! D259  D(29,30,31,32)          0.139          estimate D2E/DX2                !
 ! D260  D(29,30,31,33)       -152.2592         estimate D2E/DX2                !
 ! D261  D(30,31,32,34)         14.679          estimate D2E/DX2                !
 ! D262  D(30,31,32,40)       -134.9173         estimate D2E/DX2                !
 ! D263  D(33,31,32,34)        171.0719         estimate D2E/DX2                !
 ! D264  D(33,31,32,40)         21.4756         estimate D2E/DX2                !
 ! D265  D(30,31,33,37)        136.3896         estimate D2E/DX2                !
 ! D266  D(30,31,33,50)         19.7078         estimate D2E/DX2                !
 ! D267  D(30,31,33,71)       -104.6397         estimate D2E/DX2                !
 ! D268  D(32,31,33,37)        -18.2285         estimate D2E/DX2                !
 ! D269  D(32,31,33,50)       -134.9103         estimate D2E/DX2                !
 ! D270  D(32,31,33,71)        100.7422         estimate D2E/DX2                !
 ! D271  D(31,32,34,35)        -14.5928         estimate D2E/DX2                !
 ! D272  D(31,32,34,44)       -150.7184         estimate D2E/DX2                !
 ! D273  D(40,32,34,35)        131.0254         estimate D2E/DX2                !
 ! D274  D(40,32,34,44)         -5.1002         estimate D2E/DX2                !
 ! D275  D(31,32,40,18)        147.2821         estimate D2E/DX2                !
 ! D276  D(31,32,40,37)        -14.893          estimate D2E/DX2                !
 ! D277  D(34,32,40,18)         -1.5151         estimate D2E/DX2                !
 ! D278  D(34,32,40,37)       -163.6903         estimate D2E/DX2                !
 ! D279  D(31,33,37,40)          8.8215         estimate D2E/DX2                !
 ! D280  D(31,33,37,46)       -110.9107         estimate D2E/DX2                !
 ! D281  D(31,33,37,72)        129.4515         estimate D2E/DX2                !
 ! D282  D(50,33,37,40)        128.1164         estimate D2E/DX2                !
 ! D283  D(50,33,37,46)          8.3843         estimate D2E/DX2                !
 ! D284  D(50,33,37,72)       -111.2535         estimate D2E/DX2                !
 ! D285  D(71,33,37,40)       -109.9981         estimate D2E/DX2                !
 ! D286  D(71,33,37,46)        130.2698         estimate D2E/DX2                !
 ! D287  D(71,33,37,72)         10.632          estimate D2E/DX2                !
 ! D288  D(31,33,50,21)        -18.3927         estimate D2E/DX2                !
 ! D289  D(31,33,50,48)        107.0159         estimate D2E/DX2                !
 ! D290  D(31,33,50,70)       -138.7336         estimate D2E/DX2                !
 ! D291  D(37,33,50,21)       -131.7211         estimate D2E/DX2                !
 ! D292  D(37,33,50,48)         -6.3125         estimate D2E/DX2                !
 ! D293  D(37,33,50,70)        107.938          estimate D2E/DX2                !
 ! D294  D(71,33,50,21)        106.1005         estimate D2E/DX2                !
 ! D295  D(71,33,50,48)       -128.4909         estimate D2E/DX2                !
 ! D296  D(71,33,50,70)        -14.2404         estimate D2E/DX2                !
 ! D297  D(32,34,35,29)         -0.0803         estimate D2E/DX2                !
 ! D298  D(32,34,35,36)       -140.7834         estimate D2E/DX2                !
 ! D299  D(44,34,35,29)        140.676          estimate D2E/DX2                !
 ! D300  D(44,34,35,36)         -0.027          estimate D2E/DX2                !
 ! D301  D(32,34,44,43)        144.0277         estimate D2E/DX2                !
 ! D302  D(32,34,44,47)          4.3813         estimate D2E/DX2                !
 ! D303  D(35,34,44,43)          3.7893         estimate D2E/DX2                !
 ! D304  D(35,34,44,47)       -135.8571         estimate D2E/DX2                !
 ! D305  D(29,35,36,38)         -4.6947         estimate D2E/DX2                !
 ! D306  D(29,35,36,43)       -144.0048         estimate D2E/DX2                !
 ! D307  D(34,35,36,38)        135.5337         estimate D2E/DX2                !
 ! D308  D(34,35,36,43)         -3.7765         estimate D2E/DX2                !
 ! D309  D(35,36,38,27)         -2.5298         estimate D2E/DX2                !
 ! D310  D(35,36,38,39)       -146.7418         estimate D2E/DX2                !
 ! D311  D(43,36,38,27)        132.3903         estimate D2E/DX2                !
 ! D312  D(43,36,38,39)        -11.8216         estimate D2E/DX2                !
 ! D313  D(35,36,43,42)        146.6701         estimate D2E/DX2                !
 ! D314  D(35,36,43,44)          6.0409         estimate D2E/DX2                !
 ! D315  D(38,36,43,42)          7.8906         estimate D2E/DX2                !
 ! D316  D(38,36,43,44)       -132.7385         estimate D2E/DX2                !
 ! D317  D(33,37,40,18)       -156.0478         estimate D2E/DX2                !
 ! D318  D(33,37,40,32)          3.1514         estimate D2E/DX2                !
 ! D319  D(46,37,40,18)        -42.5674         estimate D2E/DX2                !
 ! D320  D(46,37,40,32)        116.6318         estimate D2E/DX2                !
 ! D321  D(72,37,40,18)         82.3823         estimate D2E/DX2                !
 ! D322  D(72,37,40,32)       -118.4185         estimate D2E/DX2                !
 ! D323  D(33,37,46,45)        158.6241         estimate D2E/DX2                !
 ! D324  D(33,37,46,48)         -7.228          estimate D2E/DX2                !
 ! D325  D(40,37,46,45)         44.3678         estimate D2E/DX2                !
 ! D326  D(40,37,46,48)       -121.4843         estimate D2E/DX2                !
 ! D327  D(72,37,46,45)        -80.6641         estimate D2E/DX2                !
 ! D328  D(72,37,46,48)        113.4837         estimate D2E/DX2                !
 ! D329  D(27,38,39,4)           1.8041         estimate D2E/DX2                !
 ! D330  D(27,38,39,41)       -142.7833         estimate D2E/DX2                !
 ! D331  D(36,38,39,4)         149.8721         estimate D2E/DX2                !
 ! D332  D(36,38,39,41)          5.2847         estimate D2E/DX2                !
 ! D333  D(4,39,41,1)           11.902          estimate D2E/DX2                !
 ! D334  D(4,39,41,42)        -134.6627         estimate D2E/DX2                !
 ! D335  D(38,39,41,1)         151.7873         estimate D2E/DX2                !
 ! D336  D(38,39,41,42)          5.2226         estimate D2E/DX2                !
 ! D337  D(1,41,42,43)        -160.4116         estimate D2E/DX2                !
 ! D338  D(1,41,42,66)         -16.9081         estimate D2E/DX2                !
 ! D339  D(39,41,42,43)         -9.2466         estimate D2E/DX2                !
 ! D340  D(39,41,42,66)        134.2569         estimate D2E/DX2                !
 ! D341  D(41,42,43,36)          2.7325         estimate D2E/DX2                !
 ! D342  D(41,42,43,44)        138.1335         estimate D2E/DX2                !
 ! D343  D(66,42,43,36)       -136.5284         estimate D2E/DX2                !
 ! D344  D(66,42,43,44)         -1.1275         estimate D2E/DX2                !
 ! D345  D(41,42,66,49)       -137.9045         estimate D2E/DX2                !
 ! D346  D(41,42,66,65)          5.6389         estimate D2E/DX2                !
 ! D347  D(43,42,66,49)          6.1713         estimate D2E/DX2                !
 ! D348  D(43,42,66,65)        149.7146         estimate D2E/DX2                !
 ! D349  D(36,43,44,34)         -6.0486         estimate D2E/DX2                !
 ! D350  D(36,43,44,47)        132.6435         estimate D2E/DX2                !
 ! D351  D(42,43,44,34)       -146.2725         estimate D2E/DX2                !
 ! D352  D(42,43,44,47)         -7.5805         estimate D2E/DX2                !
 ! D353  D(34,44,47,18)          2.6438         estimate D2E/DX2                !
 ! D354  D(34,44,47,49)        145.8754         estimate D2E/DX2                !
 ! D355  D(43,44,47,18)       -132.2359         estimate D2E/DX2                !
 ! D356  D(43,44,47,49)         10.9957         estimate D2E/DX2                !
 ! D357  D(14,45,46,37)       -170.3443         estimate D2E/DX2                !
 ! D358  D(14,45,46,48)         -5.7664         estimate D2E/DX2                !
 ! D359  D(20,45,46,37)        -20.3029         estimate D2E/DX2                !
 ! D360  D(20,45,46,48)        144.275          estimate D2E/DX2                !
 ! D361  D(37,46,48,17)        165.4387         estimate D2E/DX2                !
 ! D362  D(37,46,48,50)          3.5691         estimate D2E/DX2                !
 ! D363  D(45,46,48,17)         -1.955          estimate D2E/DX2                !
 ! D364  D(45,46,48,50)       -163.8245         estimate D2E/DX2                !
 ! D365  D(18,47,49,51)         -2.404          estimate D2E/DX2                !
 ! D366  D(18,47,49,66)        141.629          estimate D2E/DX2                !
 ! D367  D(44,47,49,51)       -149.98           estimate D2E/DX2                !
 ! D368  D(44,47,49,66)         -5.9471         estimate D2E/DX2                !
 ! D369  D(17,48,50,21)        -30.5752         estimate D2E/DX2                !
 ! D370  D(17,48,50,33)       -159.972          estimate D2E/DX2                !
 ! D371  D(17,48,50,70)         85.653          estimate D2E/DX2                !
 ! D372  D(46,48,50,21)        131.2593         estimate D2E/DX2                !
 ! D373  D(46,48,50,33)          1.8624         estimate D2E/DX2                !
 ! D374  D(46,48,50,70)       -112.5126         estimate D2E/DX2                !
 ! D375  D(47,49,51,19)          3.9529         estimate D2E/DX2                !
 ! D376  D(47,49,51,52)        150.7069         estimate D2E/DX2                !
 ! D377  D(66,49,51,19)       -140.4028         estimate D2E/DX2                !
 ! D378  D(66,49,51,52)          6.3511         estimate D2E/DX2                !
 ! D379  D(47,49,66,42)         -2.691          estimate D2E/DX2                !
 ! D380  D(47,49,66,65)       -141.561          estimate D2E/DX2                !
 ! D381  D(51,49,66,42)        137.0335         estimate D2E/DX2                !
 ! D382  D(51,49,66,65)         -1.8364         estimate D2E/DX2                !
 ! D383  D(19,51,52,53)         -3.6808         estimate D2E/DX2                !
 ! D384  D(19,51,52,64)        135.464          estimate D2E/DX2                !
 ! D385  D(49,51,52,53)       -145.6496         estimate D2E/DX2                !
 ! D386  D(49,51,52,64)         -6.5047         estimate D2E/DX2                !
 ! D387  D(51,52,53,54)          0.4989         estimate D2E/DX2                !
 ! D388  D(51,52,53,62)        143.8159         estimate D2E/DX2                !
 ! D389  D(64,52,53,54)       -143.2519         estimate D2E/DX2                !
 ! D390  D(64,52,53,62)          0.0651         estimate D2E/DX2                !
 ! D391  D(51,52,64,63)       -140.8577         estimate D2E/DX2                !
 ! D392  D(51,52,64,65)          2.088          estimate D2E/DX2                !
 ! D393  D(53,52,64,63)          1.8626         estimate D2E/DX2                !
 ! D394  D(53,52,64,65)        144.8082         estimate D2E/DX2                !
 ! D395  D(52,53,54,20)          3.4383         estimate D2E/DX2                !
 ! D396  D(52,53,54,55)        145.7204         estimate D2E/DX2                !
 ! D397  D(62,53,54,20)       -135.2111         estimate D2E/DX2                !
 ! D398  D(62,53,54,55)          7.071          estimate D2E/DX2                !
 ! D399  D(52,53,62,61)       -145.058          estimate D2E/DX2                !
 ! D400  D(52,53,62,63)         -2.008          estimate D2E/DX2                !
 ! D401  D(54,53,62,61)         -2.5865         estimate D2E/DX2                !
 ! D402  D(54,53,62,63)        140.4636         estimate D2E/DX2                !
 ! D403  D(20,54,55,14)         -3.207          estimate D2E/DX2                !
 ! D404  D(20,54,55,60)        140.8844         estimate D2E/DX2                !
 ! D405  D(53,54,55,14)       -150.1387         estimate D2E/DX2                !
 ! D406  D(53,54,55,60)         -6.0473         estimate D2E/DX2                !
 ! D407  D(14,55,60,59)          3.7234         estimate D2E/DX2                !
 ! D408  D(14,55,60,61)        139.8563         estimate D2E/DX2                !
 ! D409  D(54,55,60,59)       -135.6234         estimate D2E/DX2                !
 ! D410  D(54,55,60,61)          0.5094         estimate D2E/DX2                !
 ! D411  D(17,56,57,15)       -136.2516         estimate D2E/DX2                !
 ! D412  D(17,56,57,58)          4.7835         estimate D2E/DX2                !
 ! D413  D(22,56,57,15)          2.9094         estimate D2E/DX2                !
 ! D414  D(22,56,57,58)        143.9445         estimate D2E/DX2                !
 ! D415  D(15,57,58,16)        133.1346         estimate D2E/DX2                !
 ! D416  D(15,57,58,59)         -7.8552         estimate D2E/DX2                !
 ! D417  D(56,57,58,16)         -7.6014         estimate D2E/DX2                !
 ! D418  D(56,57,58,59)       -148.5911         estimate D2E/DX2                !
 ! D419  D(16,58,59,11)       -136.5464         estimate D2E/DX2                !
 ! D420  D(16,58,59,60)          1.1684         estimate D2E/DX2                !
 ! D421  D(57,58,59,11)         -0.9043         estimate D2E/DX2                !
 ! D422  D(57,58,59,60)        136.8104         estimate D2E/DX2                !
 ! D423  D(11,59,60,55)        135.4218         estimate D2E/DX2                !
 ! D424  D(11,59,60,61)         -5.3081         estimate D2E/DX2                !
 ! D425  D(58,59,60,55)         -6.896          estimate D2E/DX2                !
 ! D426  D(58,59,60,61)       -147.6258         estimate D2E/DX2                !
 ! D427  D(55,60,61,9)        -136.9809         estimate D2E/DX2                !
 ! D428  D(55,60,61,62)          4.0764         estimate D2E/DX2                !
[...]
 Alpha virt. eigenvalues --    1.03411   1.03705   1.04110   1.04393   1.04726
 Alpha virt. eigenvalues --    1.05151   1.05267   1.05445   1.05778   1.06566
 Alpha virt. eigenvalues --    1.06777   1.06991   1.07579   1.08083   1.08543
 Alpha virt. eigenvalues --    1.08885   1.09599   1.10094   1.10483   1.10519
 Alpha virt. eigenvalues --    1.10943   1.11321   1.11882   1.11957   1.12705
 Alpha virt. eigenvalues --    1.13356   1.13584   1.14209   1.15145   1.15255
 Alpha virt. eigenvalues --    1.15576   1.16254   1.16428   1.17344   1.17566
 Alpha virt. eigenvalues --    1.18144   1.18479   1.19163   1.19791   1.20264
 Alpha virt. eigenvalues --    1.20851   1.21292   1.21528   1.22038   1.23244
 Alpha virt. eigenvalues --    1.23350   1.23461   1.23865   1.24134   1.24309
 Alpha virt. eigenvalues --    1.24567   1.25038   1.25803   1.26505   1.26564
 Alpha virt. eigenvalues --    1.27183   1.28291   1.28507   1.28739   1.28824
 Alpha virt. eigenvalues --    1.29734   1.30266   1.30419   1.30644   1.31788
 Alpha virt. eigenvalues --    1.32155   1.33175   1.33194   1.33537   1.33814
 Alpha virt. eigenvalues --    1.34082   1.34106   1.34426   1.34892   1.35136
 Alpha virt. eigenvalues --    1.35478   1.35964   1.36113   1.36763   1.37101
 Alpha virt. eigenvalues --    1.37603   1.38228   1.38708   1.38812   1.38879
 Alpha virt. eigenvalues --    1.39760   1.39963   1.40087   1.40506   1.41016
 Alpha virt. eigenvalues --    1.41195   1.41507   1.41816   1.41883   1.42218
 Alpha virt. eigenvalues --    1.42698   1.42976   1.43243   1.43874   1.44408
 Alpha virt. eigenvalues --    1.44688   1.44874   1.45115   1.45550   1.45711
 Alpha virt. eigenvalues --    1.46027   1.46062   1.46403   1.46497   1.46713
 Alpha virt. eigenvalues --    1.46912   1.47019   1.47415   1.47868   1.48092
 Alpha virt. eigenvalues --    1.48225   1.48506   1.48825   1.49312   1.49352
 Alpha virt. eigenvalues --    1.49805   1.49916   1.50400   1.50589   1.50670
 Alpha virt. eigenvalues --    1.50850   1.51215   1.51446   1.51759   1.52060
 Alpha virt. eigenvalues --    1.52257   1.52446   1.52795   1.52863   1.53062
 Alpha virt. eigenvalues --    1.53247   1.53450   1.54079   1.54167   1.54917
 Alpha virt. eigenvalues --    1.55220   1.55296   1.55576   1.55975   1.56315
 Alpha virt. eigenvalues --    1.57031   1.57119   1.57546   1.57768   1.58109
 Alpha virt. eigenvalues --    1.58739   1.59085   1.59257   1.60080   1.60418
 Alpha virt. eigenvalues --    1.60889   1.60943   1.61202   1.61348   1.61712
 Alpha virt. eigenvalues --    1.62024   1.62278   1.62881   1.63114   1.63137
 Alpha virt. eigenvalues --    1.64077   1.64370   1.64811   1.65284   1.65877
 Alpha virt. eigenvalues --    1.66112   1.66691   1.66715   1.67523   1.67913
 Alpha virt. eigenvalues --    1.68354   1.68504   1.68707   1.69460   1.69648
 Alpha virt. eigenvalues --    1.70084   1.70351   1.71105   1.71233   1.71707
 Alpha virt. eigenvalues --    1.72075   1.72476   1.72811   1.72976   1.73348
 Alpha virt. eigenvalues --    1.73583   1.74084   1.74412   1.74932   1.75200
 Alpha virt. eigenvalues --    1.75604   1.75902   1.76620   1.76797   1.77052
 Alpha virt. eigenvalues --    1.77448   1.78071   1.78162   1.79058   1.79472
 Alpha virt. eigenvalues --    1.79714   1.80224   1.80452   1.80883   1.81316
 Alpha virt. eigenvalues --    1.81464   1.81720   1.82099   1.82522   1.82911
 Alpha virt. eigenvalues --    1.83169   1.83642   1.83828   1.84437   1.85045
 Alpha virt. eigenvalues --    1.85163   1.85523   1.85965   1.86562   1.86861
 Alpha virt. eigenvalues --    1.87808   1.88064   1.88508   1.88748   1.88990
 Alpha virt. eigenvalues --    1.89679   1.89956   1.90235   1.90467   1.91095
 Alpha virt. eigenvalues --    1.91125   1.91642   1.91912   1.92515   1.92729
 Alpha virt. eigenvalues --    1.93048   1.93433   1.93730   1.94372   1.95128
 Alpha virt. eigenvalues --    1.95465   1.95898   1.96717   1.97578   1.97921
 Alpha virt. eigenvalues --    1.98105   1.98683   1.98971   1.99527   2.00426
 Alpha virt. eigenvalues --    2.00808   2.01159   2.01597   2.01896   2.02406
 Alpha virt. eigenvalues --    2.03027   2.03725   2.03989   2.04261   2.04365
 Alpha virt. eigenvalues --    2.05081   2.05539   2.05791   2.06858   2.07048
 Alpha virt. eigenvalues --    2.07421   2.07818   2.08205   2.08856   2.09017
 Alpha virt. eigenvalues --    2.09704   2.09761   2.10139   2.11040   2.11242
 Alpha virt. eigenvalues --    2.11797   2.12232   2.12475   2.12665   2.13125
 Alpha virt. eigenvalues --    2.13302   2.13466   2.13890   2.14549   2.15282
 Alpha virt. eigenvalues --    2.15645   2.16178   2.16283   2.16488   2.16936
 Alpha virt. eigenvalues --    2.17332   2.17706   2.18494   2.18838   2.18972
 Alpha virt. eigenvalues --    2.20334   2.21127   2.21218   2.22462   2.22884
 Alpha virt. eigenvalues --    2.23033   2.23401   2.23872   2.24327   2.24501
 Alpha virt. eigenvalues --    2.25403   2.25666   2.26640   2.27201   2.27292
 Alpha virt. eigenvalues --    2.28129   2.28976   2.29301   2.30595   2.30909
 Alpha virt. eigenvalues --    2.31371   2.31763   2.32354   2.32744   2.33084
 Alpha virt. eigenvalues --    2.33645   2.34198   2.34532   2.35007   2.35370
 Alpha virt. eigenvalues --    2.36804   2.37283   2.37546   2.37860   2.38441
 Alpha virt. eigenvalues --    2.38924   2.39567   2.39977   2.40758   2.41085
 Alpha virt. eigenvalues --    2.41545   2.41821   2.42490   2.42761   2.43498
 Alpha virt. eigenvalues --    2.43576   2.43732   2.44244   2.44452   2.44801
 Alpha virt. eigenvalues --    2.45117   2.45464   2.46127   2.46749   2.46993
 Alpha virt. eigenvalues --    2.47532   2.47725   2.48272   2.48709   2.50135
 Alpha virt. eigenvalues --    2.50806   2.51892   2.52058   2.52385   2.52670
 Alpha virt. eigenvalues --    2.53829   2.54337   2.54563   2.55193   2.55660
 Alpha virt. eigenvalues --    2.56613   2.57080   2.57447   2.57758   2.58665
 Alpha virt. eigenvalues --    2.58871   2.59085   2.59470   2.59951   2.60122
 Alpha virt. eigenvalues --    2.60727   2.61114   2.61609   2.61892   2.62097
 Alpha virt. eigenvalues --    2.63116   2.63791   2.64291   2.64913   2.65156
 Alpha virt. eigenvalues --    2.65616   2.66322   2.67062   2.67255   2.67531
 Alpha virt. eigenvalues --    2.68354   2.69040   2.70396   2.70435   2.71708
 Alpha virt. eigenvalues --    2.72927   2.73344   2.73563   2.73798   2.74955
 Alpha virt. eigenvalues --    2.75169   2.75928   2.76527   2.76831   2.77477
 Alpha virt. eigenvalues --    2.77778   2.78847   2.80330   2.80489   2.81211
 Alpha virt. eigenvalues --    2.82425   2.82977   2.83088   2.84056   2.84714
 Alpha virt. eigenvalues --    2.84991   2.85343   2.85962   2.87299   2.87665
 Alpha virt. eigenvalues --    2.88628   2.89022   2.89588   2.90054   2.90907
 Alpha virt. eigenvalues --    2.91527   2.91837   2.92686   2.93786   2.94063
 Alpha virt. eigenvalues --    2.94387   2.94584   2.94835   2.95316   2.96030
 Alpha virt. eigenvalues --    2.96432   2.97370   2.97837   2.98395   2.99360
 Alpha virt. eigenvalues --    3.00119   3.00273   3.00449   3.00806   3.01039
 Alpha virt. eigenvalues --    3.01439   3.02060   3.02533   3.03546   3.03698
 Alpha virt. eigenvalues --    3.04061   3.04300   3.04418   3.04655   3.05127
 Alpha virt. eigenvalues --    3.05455   3.05956   3.06182   3.07015   3.07212
 Alpha virt. eigenvalues --    3.07721   3.07815   3.08234   3.08436   3.08799
 Alpha virt. eigenvalues --    3.09187   3.09839   3.10446   3.10625   3.10745
 Alpha virt. eigenvalues --    3.11096   3.11276   3.11908   3.12135   3.12216
 Alpha virt. eigenvalues --    3.13064   3.13287   3.13406   3.13783   3.14054
 Alpha virt. eigenvalues --    3.14282   3.14685   3.15096   3.15372   3.15632
 Alpha virt. eigenvalues --    3.15994   3.16318   3.16490   3.16656   3.17150
 Alpha virt. eigenvalues --    3.17267   3.17747   3.18421   3.18986   3.19312
 Alpha virt. eigenvalues --    3.20119   3.20728   3.21383   3.21694   3.21931
 Alpha virt. eigenvalues --    3.22221   3.23491   3.23827   3.25086   3.27158
 Alpha virt. eigenvalues --    3.27573   3.29056   3.30419   3.32434   3.32586
 Alpha virt. eigenvalues --    3.33375   3.35886   3.37766   3.38011   3.41717
 Alpha virt. eigenvalues --    3.42373   3.42629   3.44617   3.46199   3.46554
 Alpha virt. eigenvalues --    3.47985   3.49084   3.50219   3.52489   3.53064
 Alpha virt. eigenvalues --    3.53457   3.54610   3.55302   3.55851   3.56250
 Alpha virt. eigenvalues --    3.57338   3.59417   3.59644   3.61495   3.62243
 Alpha virt. eigenvalues --    3.63346   3.63550   3.64885   3.65925   3.67890
 Alpha virt. eigenvalues --    3.68565   3.69046   3.70083   3.70385   3.71634
 Alpha virt. eigenvalues --    3.72570   3.75207   3.75688   3.76197   3.77240
 Alpha virt. eigenvalues --    3.78895   3.79666   3.80604   3.82364   3.82645
 Alpha virt. eigenvalues --    3.84155   3.84865   3.84972   3.86869   3.87862
 Alpha virt. eigenvalues --    3.88817   3.89471   3.90018   3.90800   3.90938
 Alpha virt. eigenvalues --    3.92523   3.93225   3.94289   3.94554   3.95229
 Alpha virt. eigenvalues --    3.95496   3.98210   3.98952   4.02322   4.04688
 Alpha virt. eigenvalues --    4.04964   4.08365   4.12844   4.17498   4.22190
 Alpha virt. eigenvalues --    4.24078   4.25231   4.29550   4.32722   4.34572
 Alpha virt. eigenvalues --    4.36346   4.39427   4.39903   4.40199   4.40924
 Alpha virt. eigenvalues --    4.43331   4.46115   4.53097   4.55690   4.56654
 Alpha virt. eigenvalues --    4.58744   4.62224   4.62768   4.64460   4.67366
 Alpha virt. eigenvalues --    4.69084   4.70429   4.73047   4.78438   4.85437
 Alpha virt. eigenvalues --    4.88612   4.90518   4.93491   4.98970   5.01023
 Alpha virt. eigenvalues --    5.02499   5.05521   5.06438  23.05981  23.21648
 Alpha virt. eigenvalues --   23.25838  23.31820  23.45851  23.47807  23.51045
 Alpha virt. eigenvalues --   23.53296  23.56835  23.65209  23.67973  23.69512
 Alpha virt. eigenvalues --   23.73008  23.76902  23.78958  23.79352  23.80472
 Alpha virt. eigenvalues --   23.82847  23.83671  23.84843  23.85305  23.86076
 Alpha virt. eigenvalues --   23.87476  23.89028  23.89408  23.89930  23.91206
 Alpha virt. eigenvalues --   23.93132  23.94419  23.94923  23.96130  23.97007
 Alpha virt. eigenvalues --   23.97204  23.97989  23.98645  23.99562  23.99950
 Alpha virt. eigenvalues --   24.00105  24.00491  24.00899  24.01413  24.02057
 Alpha virt. eigenvalues --   24.02200  24.02880  24.04157  24.05181  24.05509
 Alpha virt. eigenvalues --   24.05834  24.06352  24.07604  24.09957  24.10788
 Alpha virt. eigenvalues --   24.11111  24.11451  24.11807  24.12040  24.12772
 Alpha virt. eigenvalues --   24.12956  24.13731  24.14154  24.15098  24.15297
 Alpha virt. eigenvalues --   24.16022  24.16825  24.17335  24.18640
          Condensed to atoms (all electrons):
 Mulliken charges:
               1
     1  C   -0.150340
     2  C   -0.148128
     3  C   -0.023978
     4  C    0.002839
     5  C    0.015115
     6  C    0.018986
     7  C   -0.131980
     8  C   -0.020143
     9  C   -0.011566
    10  C   -0.145971
    11  C    0.003879
    12  C   -0.006919
    13  C   -0.009492
    14  C   -0.001472
    15  C   -0.000538
    16  C   -0.002825
    17  C    0.003211
    18  C    0.016693
    19  C   -0.004792
    20  C   -0.003856
    21  C   -0.133689
    22  C   -0.005876
    23  C   -0.008675
    24  C    0.013204
    25  C   -0.000191
    26  C   -0.007295
    27  C    0.016626
    28  C   -0.032333
    29  C    0.021788
    30  C    0.005695
    31  C    0.005608
    32  C    0.021946
    33  C   -0.145628
    34  C   -0.009303
    35  C   -0.012857
    36  C   -0.002292
    37  C   -0.133567
    38  C   -0.004965
    39  C    0.004100
    40  C   -0.031629
    41  C   -0.019433
    42  C    0.015092
    43  C   -0.019303
    44  C   -0.006926
    45  C    0.017728
    46  C   -0.007996
    47  C   -0.000946
    48  C   -0.006044
    49  C   -0.007486
    50  C   -0.134074
    51  C   -0.005633
    52  C   -0.006334
    53  C   -0.005255
    54  C   -0.003071
    55  C   -0.005740
    56  C    0.001908
    57  C   -0.003462
    58  C   -0.011136
    59  C   -0.005272
    60  C    0.000001
    61  C   -0.005073
    62  C   -0.004350
    63  C    0.003907
    64  C    0.006645
    65  C   -0.022510
    66  C    0.024519
    67  H    0.160433
    68  H    0.146265
    69  H    0.149355
    70  H    0.149281
    71  H    0.146196
    72  H    0.160404
    73  H    0.169454
    74  H    0.169469
 Sum of Mulliken charges =  -0.00000
 Mulliken charges with hydrogens summed into heavy atoms:
               1
     1  C    0.019129
     2  C    0.021326
     3  C   -0.023978
     4  C    0.002839
     5  C    0.015115
     6  C    0.018986
     7  C    0.028453
     8  C   -0.020143
     9  C   -0.011566
    10  C    0.000293
    11  C    0.003879
    12  C   -0.006919
    13  C   -0.009492
    14  C   -0.001472
    15  C   -0.000538
    16  C   -0.002825
    17  C    0.003211
    18  C    0.016693
    19  C   -0.004792
    20  C   -0.003856
    21  C    0.015665
    22  C   -0.005876
    23  C   -0.008675
    24  C    0.013204
    25  C   -0.000191
    26  C   -0.007295
    27  C    0.016626
    28  C   -0.032333
    29  C    0.021788
    30  C    0.005695
    31  C    0.005608
    32  C    0.021946
    33  C    0.000568
    34  C   -0.009303
    35  C   -0.012857
    36  C   -0.002292
    37  C    0.026838
    38  C   -0.004965
    39  C    0.004100
    40  C   -0.031629
    41  C   -0.019433
    42  C    0.015092
    43  C   -0.019303
    44  C   -0.006926
    45  C    0.017728
    46  C   -0.007996
    47  C   -0.000946
    48  C   -0.006044
    49  C   -0.007486
    50  C    0.015207
    51  C   -0.005633
    52  C   -0.006334
    53  C   -0.005255
    54  C   -0.003071
    55  C   -0.005740
    56  C    0.001908
    57  C   -0.003462
    58  C   -0.011136
    59  C   -0.005272
    60  C    0.000001
    61  C   -0.005073
    62  C   -0.004350
    63  C    0.003907
    64  C    0.006645
    65  C   -0.022510
    66  C    0.024519
 Electronic spatial extent (au):  <R**2>=          21602.3794
 Charge=             -0.0000 electrons
 Dipole moment (field-independent basis, Debye):
    X=              3.2512    Y=             -1.1491    Z=             -0.8601  Tot=              3.5540
 Quadrupole moment (field-independent basis, Debye-Ang):
   XX=           -333.6445   YY=           -383.7257   ZZ=           -370.0309
   XY=              5.5200   XZ=              4.6642   YZ=              1.4663
 Traceless Quadrupole moment (field-independent basis, Debye-Ang):
   XX=             28.8226   YY=            -21.2587   ZZ=             -7.5639
   XY=              5.5200   XZ=              4.6642   YZ=              1.4663
 Octapole moment (field-independent basis, Debye-Ang**2):
  XXX=            106.9780  YYY=             -2.1097  ZZZ=             -5.9498  XYY=             -9.3154
  XXY=            -33.9913  XXZ=            -32.2072  XZZ=             51.3073  YZZ=            -10.7938
  YYZ=             -1.7006  XYZ=             -6.7609
 Hexadecapole moment (field-independent basis, Debye-Ang**3):
 XXXX=         -12120.7139 YYYY=         -11262.7663 ZZZZ=          -8817.9210 XXXY=            198.8901
 XXXZ=            156.0605 YYYX=             48.5391 YYYZ=              3.8596 ZZZX=              5.8385
 ZZZY=             12.6806 XXYY=          -4034.4828 XXZZ=          -3492.4825 YYZZ=          -3375.0440
 XXYZ=             36.2291 YYXZ=             12.9370 ZZXY=            -26.0126
 N-N= 9.946313106677D+03 E-N=-2.573890152959D+04  KE= 2.509868974719D+03
 No NMR shielding tensors so no spin-rotation constants.
 Leave Link  601 at Tue Jul 19 23:46:17 2022, MaxMem=  1342177280 cpu:              57.7 elap:               1.4
 (Enter /home/mkliu/g16/l9999.exe)
 1\1\GINC-NODE02\FOpt\RB3LYP\6-311G(d,p)\C66H8\MKLIU\19-Jul-2022\0\\#P 
 opt b3lyp/6-311G(d, p) empiricaldispersion=GD3\\force\\0,1\C,12.530690
 2826,11.9069314984,21.9355698178\C,12.5327210352,12.9901820955,23.0818
 85169\C,12.6745732553,14.4398534419,22.6017100571\C,12.6150828636,14.8
 351774122,21.2886837216\C,13.4994957047,15.1691257614,23.4930450965\C,
 14.1317146234,14.2403775089,24.4111958965\C,15.6306152609,17.349481102
 2,18.7618487818\C,13.7246897855,12.9134743305,24.0458635292\C,15.42032
 14266,14.5014883778,24.8795949626\C,16.9207911101,17.0141805821,17.888
 4386687\C,16.0885266908,15.7284518595,24.5020321495\C,15.4733728843,16
 .6104719839,23.6132427927\C,14.1822700298,16.303443815,23.0489612593\C
 ,19.2329959592,14.0215056591,22.5980205057\C,16.2405641416,17.28720914
 63,22.6039996163\C,19.2065893205,15.4212084146,22.5691522101\C,19.2896
 80463,16.0813977766,21.3197467629\C,17.4647080991,11.565060336,19.3108
 977989\C,17.718930432,11.2635840363,20.7523827821\C,18.4958096826,11.9
 980095135,21.6456556462\C,18.1777983026,17.1600810199,18.7992819849\C,
 17.5827962685,17.4088862742,20.1626623015\C,16.1685891229,17.474156886
 ,20.1759807121\C,15.4754185191,17.3581678518,21.3858784611\C,14.163900
 6728,16.7063874872,21.6581919661\C,13.378927052,15.9623069154,20.77242
 82887\C,13.6543688225,15.6835856625,19.3365806054\C,14.6837136772,16.1
 652567313,18.5420526003\C,15.2909354119,15.2741733311,17.5912030004\C,
 16.6752895911,15.6025732691,17.4464839588\C,17.6048017363,14.597920270
 1,17.44400847\C,17.1718624628,13.242147454,17.5810175897\C,19.03285432
 01,14.7323145636,17.883138125\C,15.8312728885,12.9075825224,17.4149909
 371\C,14.8529344485,13.9656248465,17.4196825755\C,13.7047291398,13.505
 0837935,18.1273924888\C,19.2687934307,13.4167038659,18.7515955597\C,13
 .1045489157,14.3642717614,19.0526810669\C,12.4917747998,13.8273377667,
 20.2300219169\C,18.0182137468,12.5628124231,18.5240886909\C,12.5680985
 535,12.4814317953,20.5182327919\C,13.3820347041,11.6461011061,19.68203
 23991\C,13.9176106494,12.1253071848,18.4928527647\C,15.2851299664,11.7
 968557118,18.1203540656\C,19.2479018479,13.2534996025,21.3785748724\C,
 19.4243338764,13.93745668,20.1701698789\C,16.1021485823,11.1304995326,
 19.0319356999\C,19.472227792,15.3528264608,20.1606284252\C,15.52944527
 15,10.575418992,20.2262295155\C,19.2762126995,15.9702963381,18.7986852
 807\C,16.5201690017,10.6007951438,21.2581150478\C,16.0966052869,10.725
 9142368,22.5815432098\C,16.902706021,11.4693401728,23.4997463498\C,18.
 0831749757,12.0525516697,23.0492414878\C,18.4969346766,13.3133357748,2
 3.6083648589\C,18.2964073918,17.1678520065,21.321718138\C,17.633151392
 2,17.1397090295,22.5711461292\C,18.2525005988,16.1253764262,23.4080853
 267\C,17.5022486618,15.4362444193,24.3417691915\C,17.6727482894,14.001
 5896458,24.5027366358\C,16.3969038518,13.4389140356,24.8817185596\C,16
 .0282791457,12.1780461606,24.4148894655\C,14.6631742884,11.9053111383,
 24.0281109408\C,14.7034307911,10.9528355975,22.8981571258\C,13.7699937
 716,11.0057192397,21.8975352426\C,14.1797704634,10.7982907691,20.54298
 64774\H,15.1591769736,18.2843296431,18.4432495919\H,16.9900764173,17.6
 873679475,17.0310334559\H,18.7258041551,18.0535472899,18.4929645323\H,
 20.2115834956,16.4465970786,18.4974059241\H,19.7073963546,14.752310145
 1,17.0241929381\H,20.1681634151,12.878747875,18.4362701719\H,11.600907
 907,12.8755694019,23.6445201713\H,11.6299794197,11.2970470707,22.05893
 25461\\Version=ES64L-G16RevA.03\State=1-A\HF=-2520.2705779\RMSD=4.591e
 -09\RMSF=8.938e-05\Dipole=0.2935798,0.6759839,-1.1882491\Quadrupole=6.
 5408106,-2.7383983,-3.8024123,6.904191,-14.4226998,-10.5980338\PG=C01 
 [X(C66H8)]\\@


 It is also a good rule not to put too much confidence in
 experimental results until they have been confirmed by
 Theory.
                             -- Sir Arthur Eddington
 Job cpu time:       1 days  2 hours 24 minutes 58.3 seconds.
 Elapsed time:       0 days  0 hours 33 minutes  5.9 seconds.
 File lengths (MBytes):  RWF=    939 Int=      0 D2E=      0 Chk=    117 Scr=      1
 Normal termination of Gaussian 16 at Tue Jul 19 23:46:18 2022.
