62
 energy: -137.558950074076 gnorm: 0.000098843184 xtb: 6.4.1 (a3dbbd7)
C        -1.32273125264098    0.00642585294776    3.59143600365963
C        -0.38822132792078   -1.27743859944896    3.58804988559275
C         0.98811553947260   -0.72623353471858    3.28584155348522
C         0.97082104888061    0.69468690747910    3.25727566027598
C        -0.37592660261883    1.14776405290026    3.29074810839200
C         2.33157994540522   -2.58694068371388    0.56594420306679
C         3.16919727508476   -1.41512930823815    0.56739870509028
C         2.92028611098183   -0.69243425602108    1.79037294075853
C         1.93090611096022   -1.40488883522552    2.54796450814720
C         1.57561987788321   -2.59586151675795    1.79098115093528
C         3.18327479658160    1.41976381386317    0.57204272319458
C         2.33413637970275    2.58635443430815    0.57508816186294
C         1.57329194433888    2.57146013042431    1.79809815645008
C         1.94378936007914    1.40475896253225    2.54247806945469
C         2.93828860324255    0.69615474995946    1.79320426394824
C        -0.36786532910884    3.44426668205855    0.58008472774981
C        -1.74040229479468    3.00735337052784    0.58055128707896
C        -1.97819629455836    2.28655562148968    1.80373688372018
C        -0.73379326645936    2.25601268852648    2.55752679888110
C         0.24637983063898    2.98111112532018    1.79996447872209
C        -3.39582451840677    0.72847642797284    0.57575682779993
C        -3.37900216498104   -0.70539141159274    0.57836480065919
C        -2.74878964005082   -1.12880274762311    1.82101295780302
C        -2.39978266917198   -0.01387061764021    2.55862611470971
C        -2.77413808579459    1.16004324535105    1.80216224897846
C        -1.70505998617929   -3.00511401361285    0.57236110344034
C        -0.34578491984316   -3.46181388444345    0.56482007864483
C         0.25901229531127   -3.00706456814231    1.79129007658680
C        -0.74114343794772   -2.29260635642489    2.55269222583821
C        -1.91119097736054   -2.27952490395214    1.81800877799345
C        -0.23521812580645   -3.01377150263180   -1.83937421231408
C         0.75190682206331   -2.28696552449974   -2.59861764912682
C         1.98116559600576   -2.28838252979287   -1.84320503965957
C         1.74973936129937   -3.01914220073528   -0.62052360084886
C         0.38149306040796   -3.46645434415095   -0.62060095567121
C         2.79214100427123   -1.16370711424602   -1.83905904455865
C         2.40981651336498    0.00699392762946   -2.59140054740353
C         2.78779002080267    1.16970199987788   -1.83177983585348
C         3.40294021481108    0.72431343661950   -0.60887345113019
C         3.40129391016219   -0.71892673498496   -0.60964991624187
C         1.96865282469838    2.29507225537123   -1.82884251768609
C         0.74417114673754    2.29533962260547   -2.58542776682478
C        -0.25048131477427    3.01639857816121   -1.82814722456049
C         0.36304734336567    3.45516505337246   -0.59875282119182
C         1.73693090630299    3.01315760273003   -0.60289881177970
C        -1.56997864099492    2.59035512780840   -1.83046632217127
C        -1.94832546094171    1.42274701420417   -2.58893421452411
C        -2.94145710838295    0.70419475909895   -1.82967034488458
C        -3.17964752793519    1.42602063748465   -0.60782843812173
C        -2.33345543213770    2.59055276492089   -0.60587673078580
C        -2.93171732455011   -0.68702155951051   -1.82221276747519
C        -1.94060276619865   -1.40924669063289   -2.58102064767200
C        -1.55607700702385   -2.57694613177445   -1.82714572353070
C        -2.29799091027980   -2.57441147670802   -0.59688636474445
C        -3.15427797211431   -1.39799682574569   -0.59381431086403
C        -0.98957365035691   -0.71509647931687   -3.31390471555131
C        -0.99202798720297    0.72696650618653   -3.31421423150463
C         0.37964098875903    1.17196429496822   -3.31537053939964
C         1.22696776571554    0.00786439627893   -3.31840895841312
C         0.38192743197484   -1.16064072864317   -3.31914133182361
Cl       -2.09915811984146    0.29386753547908    5.20551823822458
Cl       -0.34927667391409   -2.11013707762783    5.19929096949247
