64
 energy: -146.696831346733 gnorm: 0.000099314098 xtb: 6.4.1 (a3dbbd7)
C        -1.32077965501173    0.01715754957051    3.62649052635808
C        -0.38746714576431   -1.27109574613771    3.58599551669314
C         0.99466793726542   -0.72862391785567    3.27607873321273
C         0.96715789253641    0.69179631014875    3.22437682221302
C        -0.38201727842226    1.12940560237183    3.23177593243955
C         2.34780822719509   -2.57959728534393    0.56870142355958
C         3.15730351061329   -1.40780113131380    0.56721064242503
C         2.91062883598272   -0.68634107397477    1.79080946206078
C         1.95012293312042   -1.40557137141776    2.56694025019809
C         1.70731587831041   -2.75815149497149    1.93403773343764
C         3.18333885803077    1.42956407904238    0.56709198865174
C         2.33443477988457    2.59614139374109    0.56901582962807
C         1.57153622048667    2.58083823671994    1.78959802662090
C         1.94034186846686    1.41174693077240    2.52885686917511
C         2.93564213204089    0.70285760152981    1.78706532408979
C        -0.36941515596099    3.44342702381083    0.57067038944995
C        -1.74070632150270    2.99693880717071    0.56825919460282
C        -1.98308417745302    2.27473430232386    1.78603386608359
C        -0.73753974987306    2.25756301328571    2.54226680524033
C         0.24273477975865    2.98790577289131    1.78969858143368
C        -3.37081580611541    0.72422352636689    0.57044500482423
C        -3.36212184802004   -0.71318010322578    0.56208569099385
C        -2.75113841329454   -1.15122195802119    1.77611475582466
C        -2.62286382074324   -0.00636979081089    2.74854948238889
C        -2.78855887027945    1.16780676489833    1.79756956460329
C        -1.72475029609835   -2.97942834255225    0.54895552139527
C        -0.35869658810832   -3.41120518290527    0.55947872331709
C         0.23687510960283   -2.94985452050445    1.80014261663364
C        -0.69925882038799   -2.25428172681080    2.51157407893255
C        -1.93659911287321   -2.24474903849256    1.76442005964463
C        -0.24189043883234   -3.00125765260498   -1.83933798155810
C         0.75057383406817   -2.27431258171070   -2.58686789714761
C         1.97549076852616   -2.26952196015190   -1.82336785379556
C         1.74990773514052   -2.98670018137172   -0.60120099842611
C         0.36375889704524   -3.44314979609048   -0.61321338195520
C         2.79645573370201   -1.14797350601373   -1.83507135647187
C         2.41621546451328    0.01637341512359   -2.59522993228486
C         2.79420708165214    1.18298938612446   -1.83769947368525
C         3.40613199320541    0.73614156540245   -0.61314599444527
C         3.40109967051643   -0.70656740727772   -0.61277010068536
C         1.97354901814423    2.30505361132291   -1.83570369502053
C         0.74704967649693    2.30204254903377   -2.59304652000226
C        -0.24693074040041    3.01845696632657   -1.83851020996171
C         0.36327765110299    3.45964592159012   -0.60807607424814
C         1.73844568626236    3.02375196524763   -0.61064917888879
C        -1.56823868139686    2.58989144501429   -1.84462040389715
C        -1.94350797274646    1.42471452580467   -2.60419412047841
C        -2.93600166721318    0.70069475413728   -1.84747063265742
C        -3.16618957430912    1.41998324224157   -0.61886101267371
C        -2.32941067350231    2.58392242473517   -0.62069921391971
C        -2.93787253783097   -0.68576905641431   -1.85465623213623
C        -1.94465741153934   -1.40855161163573   -2.61269777751646
C        -1.56970684655361   -2.57757366237407   -1.85590583355982
C        -2.32613869228955   -2.57308500987090   -0.63535632059076
C        -3.16360219797362   -1.40734309099638   -0.62785710688002
C        -0.98437943042521   -0.71200137148065   -3.33195144291426
C        -0.98475991377641    0.73088558386184   -3.33004225165096
C         0.38493717591259    1.17624786127296   -3.32417687576887
C         1.23371445825631    0.01362403261636   -3.32189369960345
C         0.38739617136943   -1.15489967686872   -3.32186439064325
Cl       -1.73209288916261    0.42453539607128    5.33309962716530
Cl       -0.37276867096255   -2.17922725973343    5.14645431108217
Cl        2.48229578467711   -4.10642890337571    2.85924709771935
Cl       -4.12215811537601   -0.10334294871169    3.76825417222650
