63
 energy: -142.060392456156 gnorm: 0.137198294395 xtb: 6.4.1 (a3dbbd7)
C        -1.29750015586385   -0.00332986390914    3.53259128384291
C        -0.36662330751186   -1.17665276848352    3.30664507069186
C         0.98616964776834   -0.71907897730420    3.28345800331063
C         0.97960460534774    0.72298388992876    3.28116382332211
C        -0.37123063139343    1.17283027203526    3.30703999424566
C         2.33902808225222   -2.57287964708243    0.59282134541102
C         3.18775381441874   -1.40592934941989    0.58930269986468
C         2.95375934983025   -0.68600072575484    1.81413225258493
C         1.96120405920183   -1.41040140165925    2.57054878390017
C         1.59036597905156   -2.57351223230031    1.81677968982536
C         3.18509045263714    1.42556506459426    0.58677401618036
C         2.33644918538866    2.58955715701350    0.58712295456856
C         1.57732702745437    2.58269052266160    1.81121996042124
C         1.95121649520604    1.42062240906665    2.56339217358200
C         2.94734969899541    0.70178584035143    1.81241871801286
C        -0.36230865601760    3.44984460076387    0.58649915495812
C        -1.73568065385573    3.00856312776383    0.58620129080773
C        -1.97466648707238    2.29051782036392    1.80819368403138
C        -0.73502216685138    2.27460254582232    2.56651749222581
C         0.25013328780141    2.99673212004624    1.80718987334861
C        -3.40556373000186    0.73624756401696    0.57396823263447
C        -3.39656113686751   -0.70087893853968    0.57336766874418
C        -2.76869398640548   -1.13743152688347    1.81131829425690
C        -2.41606481668825   -0.00935770106357    2.54947016075177
C        -2.77763293498784    1.16181023849822    1.80199827311876
C        -1.73897950039868   -3.00369688886198    0.61027095302842
C        -0.34675175341818   -3.43911314840585    0.58927014667112
C         0.26540959524459   -2.99405405130769    1.81086784239501
C        -0.72448106648574   -2.27696612285733    2.56655534431523
C        -1.96661719091772   -2.30337153119419    1.80189055009829
C        -0.25303910441721   -3.21697439825626   -1.93515078628168
C         0.75308145440921   -2.28653916290657   -2.57867440920420
C         1.95238411039292   -2.27005430543362   -1.81108187299871
C         1.72490810125568   -2.99201887192918   -0.58363119559495
C         0.37557574680441   -3.46024706207600   -0.57873868952343
C         2.78760429110383   -1.15277384641970   -1.81491371839878
C         2.41431409213368    0.00739165047242   -2.57035366353322
C         2.79604684339575    1.17540453813949   -1.81886357647572
C         3.41064679229982    0.73155426330899   -0.59398339018568
C         3.40671134080570   -0.71156461677298   -0.59219407131255
C         1.97416914155198    2.29602882113511   -1.81673739726529
C         0.74456425139311    2.29447798281708   -2.57376768155679
C        -0.24519477981105    3.02272291127020   -1.82308616330370
C         0.36643514376396    3.45792956944505   -0.59428177351760
C         1.74064009670815    3.01454722219930   -0.59425933402647
C        -1.56829205833959    2.59366542792251   -1.82366590722493
C        -1.95096538781572    1.43092752853070   -2.58180486333857
C        -2.95240685827341    0.71446038976117   -1.82971357566041
C        -3.18630415806833    1.43422379644892   -0.60509868332397
C        -2.32927637798178    2.59497169040384   -0.60132137479790
C        -2.94754506526652   -0.67313005777755   -1.82391405444887
C        -1.94410239546657   -1.40286442546858   -2.56150397187270
C        -1.58527622402766   -2.56555974461748   -1.79963026731950
C        -2.30667368088430   -2.55904727586024   -0.60742050910323
C        -3.17269142016400   -1.38977890440225   -0.59872192408106
C        -0.99841208662573   -0.71329160109820   -3.30239014224414
C        -0.99320180548013    0.72405697444618   -3.30061797729521
C         0.37942274041569    1.16763777902732   -3.29646704633613
C         1.22337490988637    0.00222195938508   -3.28765862798480
C         0.38284144139822   -1.16484842740713   -3.28531009498081
Cl       -1.93980801969369   -0.00660548094091    5.24287063977443
Cl       -0.38906216058057   -4.77802061432624   -2.87495725020283
Cl        1.13401715865287    3.47237443315699   -3.89171547464404
63
 energy: -142.084482484235 gnorm: 0.059188692082 xtb: 6.4.1 (a3dbbd7)
C        -1.29794869653692   -0.00421498965998    3.53399097536227
C        -0.36660974109149   -1.17695243205825    3.30796184856880
C         0.98528786504471   -0.71945116751600    3.28493010455055
C         0.97913357853342    0.72215291292876    3.28420239433054
C        -0.37184906364002    1.17196338897761    3.30999155782468
C         2.33917772289627   -2.57397817531450    0.59340819423312
C         3.18649874601573   -1.40621890547306    0.59039118285371
C         2.95292424746978   -0.68633670013868    1.81605059822760
C         1.96120987394050   -1.41067494879077    2.57130957938869
C         1.59019502644653   -2.57369908492328    1.81645829578271
C         3.18871845249461    1.42658451182430    0.59404207945695
C         2.33977218208163    2.58749570539656    0.59536865506067
C         1.57739470044006    2.58235283153041    1.81717941586900
C         1.95147128849811    1.42044149057414    2.56841731436205
C         2.94789083107604    0.70178093269982    1.81684757367798
C        -0.36665059679552    3.45048672463275    0.59540305399332
C        -1.73839286347891    3.01134214051649    0.59372937076860
C        -1.97616154373120    2.29078177256185    1.81348791104138
C        -0.73617068754229    2.27450254267841    2.57149974443947
C         0.24927723543704    2.99674228160564    1.81304127979214
C        -3.40514225401188    0.73576233349750    0.57564655916001
C        -3.39713228776485   -0.70148727625819    0.57465446691034
C        -2.76853305381124   -1.13756997041529    1.81136367653003
C        -2.41620245943951   -0.00978242502984    2.55046601508458
C        -2.77812382556605    1.16156669388094    1.80442023634560
C        -1.73891604119422   -3.00505227670029    0.61099044970238
C        -0.34685658640613   -3.44065566261355    0.58974547568787
C         0.26526957488164   -2.99433993031516    1.81102142434577
C        -0.72456010994711   -2.27760494461058    2.56652750390123
C        -1.96605166728352   -2.30389544959947    1.80264661838089
C        -0.25472873814668   -3.22286164004860   -1.93381953606405
C         0.75180296237249   -2.29546135995567   -2.57866891283736
C         1.95153282469064   -2.27521349803611   -1.81110198234847
C         1.72460271074554   -2.99405224118488   -0.58401382354694
C         0.37524206663527   -3.46313779044026   -0.57796298434566
C         2.78556647987217   -1.15332120484342   -1.81437496184333
C         2.41152674341111    0.00244818719594   -2.56717328791526
C         2.79077436579301    1.17085882489113   -1.80616113024416
C         3.41406775815105    0.73083056390745   -0.58807683320646
C         3.40524335013270   -0.71149011811484   -0.59020540944053
C         1.97787722224102    2.29016126071703   -1.80155335914003
C         0.76885181293293    2.36671924524281   -2.65181797820725
C        -0.25186095464393    3.02117901626695   -1.80726899865923
C         0.36257019901015    3.44860155865480   -0.58731209504694
C         1.73802948172078    3.00488255001150   -0.58737635065875
C        -1.56665241688646    2.58679418568012   -1.81043735626132
C        -1.95177452307980    1.42612876269405   -2.57811266281467
C        -2.95084290692394    0.71357407887720   -1.82861651738501
C        -3.18561052196020    1.43377778182284   -0.60251875145105
C        -2.33255689590820    2.59614349674835   -0.59444761498057
C        -2.94918959296869   -0.67722041047490   -1.82313459364932
C        -1.94765901735495   -1.41071496384513   -2.56125310871591
C        -1.58705271349627   -2.57126278493628   -1.79840559233028
C        -2.30737324169012   -2.56159059100935   -0.60597447428978
C        -3.17309105126899   -1.39095752982815   -0.59843976764913
C        -1.00172144053090   -0.72673529057456   -3.30371194103198
C        -0.98981841364623    0.71183080670290   -3.29327037039644
C         0.37380089636242    1.15067700257902   -3.31547178978423
C         1.21359705622624   -0.00612929883882   -3.28056627502071
C         0.37781029066293   -1.17788810364533   -3.28657017828116
Cl       -1.94054790225776   -0.00705308074193    5.24386839244927
Cl       -0.38989126855465   -4.78241443163797   -2.87447679401434
Cl        1.16952471067801    3.57383153235274   -3.99653561363520
63
 energy: -142.090453147689 gnorm: 0.013648010584 xtb: 6.4.1 (a3dbbd7)
C        -1.29861811121736   -0.00665624494437    3.53729959549963
C        -0.36722980829254   -1.17918659573628    3.31104461112676
C         0.98365289752653   -0.72131266401695    3.28766198675109
C         0.97828507506627    0.72000659497826    3.28858206985394
C        -0.37271718864464    1.16986626001417    3.31437356754121
C         2.33822329205648   -2.57616077801452    0.59552516147598
C         3.18433325982643   -1.40725221440468    0.59208746430589
C         2.95154643774036   -0.68779818599160    1.81884921446175
C         1.96009643069343   -1.41206401581463    2.57276583600817
C         1.58909634963509   -2.57551698205102    1.81765045385577
C         3.18540841561205    1.42534090620737    0.59806452530016
C         2.33763315176026    2.58281815710280    0.59708538480447
C         1.57611540684431    2.57966771048413    1.82001125382173
C         1.95059658698077    1.41889024343188    2.57295766146569
C         2.94788665376869    0.70072556878805    1.82131894025650
C        -0.36823771883871    3.44585824965216    0.59750147663590
C        -1.73705408876576    3.00871807760788    0.59775022588367
C        -1.97741108911818    2.28978353042311    1.81846834174975
C        -0.73700644826848    2.27290760653191    2.57625596796871
C         0.24810358086317    2.99407916141799    1.81575926092085
C        -3.40400395565109    0.73399694009629    0.57784223110576
C        -3.39725033495695   -0.70343704894623    0.57741090673016
C        -2.76835665090151   -1.13926356457036    1.81310385089091
C        -2.41611674770114   -0.01178444872862    2.55285789673956
C        -2.77839026344805    1.16002322418642    1.80771815266447
C        -1.73954197526577   -3.00787994454870    0.61312649378504
C        -0.34762030109243   -3.44389245431406    0.59174989343574
C         0.26434455592439   -2.99660247591880    1.81299550498163
C        -0.72520426644673   -2.27992454234109    2.56815489856238
C        -1.96597129575250   -2.30614474882642    1.80504265281233
C        -0.25578933039694   -3.22858445147788   -1.93215906798631
C         0.75022490506858   -2.29853245762229   -2.57532795342495
C         1.95006875041649   -2.27880104189895   -1.80907319273201
C         1.72345502997152   -2.99621517089777   -0.58275900556594
C         0.37424614317350   -3.46744659609857   -0.57591251680351
C         2.78111705545729   -1.15175002811582   -1.81360263582160
C         2.41200964676662    0.00113226928432   -2.56777270907894
C         2.78539590158410    1.17402560138416   -1.80393409283968
C         3.40603152566748    0.73020063177622   -0.58607050521278
C         3.40101395715810   -0.71161452271063   -0.58801691439902
C         1.98136907451987    2.29343631606566   -1.80280910872752
C         0.79088970167517    2.43228945260684   -2.71845429775704
C        -0.25275492148221    3.02565616297906   -1.80760399422941
C         0.35894278857063    3.43733416253180   -0.59048339510593
C         1.73423886788148    2.99388065169921   -0.59037020572005
C        -1.56023489626639    2.58616472766473   -1.80819619965723
C        -1.95258934268942    1.42556928025197   -2.57832818582934
C        -2.94585007047870    0.71256590684968   -1.82743820752501
C        -3.18209422877437    1.43138022703386   -0.60006699208136
C        -2.32678074603863    2.59129559117315   -0.59211058037743
C        -2.94951800201356   -0.68065926368750   -1.82054246950055
C        -1.94777784487050   -1.41424178663586   -2.55806665412300
C        -1.58869378801588   -2.57658766146587   -1.79663373967804
C        -2.30815785974889   -2.56515916990377   -0.60347505515798
C        -3.17285021325767   -1.39260426696340   -0.59665132265252
C        -1.00096365555338   -0.72969608290587   -3.29861071899887
C        -0.98186081073391    0.71169296276738   -3.28546713242266
C         0.37204595234596    1.14582755129774   -3.31381949381886
C         1.20749166167048   -0.00188781371996   -3.27292819986789
C         0.37582763500134   -1.17976703165240   -3.28092927775576
Cl       -1.94249106145552   -0.00988654166539    5.24653034554256
Cl       -0.39256143862743   -4.78834492696013   -2.87147492773503
Cl        1.19297694287431    3.64449843733914   -4.07822617146528
63
 energy: -142.090762869837 gnorm: 0.008163040057 xtb: 6.4.1 (a3dbbd7)
C        -1.29925176247017   -0.00800203006039    3.53960345592813
C        -0.36774265921886   -1.18049810267536    3.31292739957705
C         0.98293931641750   -0.72249091785415    3.28951886724164
C         0.97785122425483    0.71890706839008    3.29082044052445
C        -0.37328676913084    1.16888992124006    3.31690344579051
C         2.33759170740851   -2.57714665833990    0.59664097416851
C         3.18267305508699   -1.40743287806482    0.59260530575762
C         2.95026953002517   -0.68862197379486    1.81986406060218
C         1.95938294414624   -1.41303379444893    2.57393982875458
C         1.58847704988089   -2.57658871216323    1.81866974935039
C         3.18244286743773    1.42436624251055    0.59817891742552
C         2.33477718394820    2.58064156550553    0.59572428185529
C         1.57494213168001    2.57754727740315    1.81988378672185
C         1.94988815696169    1.41778247399551    2.57437990140151
C         2.94711684369385    0.69989452234286    1.82249532472254
C        -0.36739444951043    3.44256526716294    0.59636123861603
C        -1.73537905191354    3.00636938978188    0.59808645134452
C        -1.97753511088187    2.28877581890758    1.82005058664622
C        -0.73732622279754    2.27182987609410    2.57809762677552
C         0.24758537540382    2.99172939386750    1.81572074037463
C        -3.40277362821991    0.73306365263004    0.57872380252734
C        -3.39716077057234   -0.70433096765756    0.57885386374529
C        -2.76853341574348   -1.14029982095942    1.81446529072538
C        -2.41639629740006   -0.01299371104144    2.55464806974709
C        -2.77810249631733    1.15890960004012    1.80921530119160
C        -1.74005638607308   -3.00920082010373    0.61415296446456
C        -0.34803152662502   -3.44530297189987    0.59279876127330
C         0.26378256884454   -2.99793299761362    1.81429013977940
C        -0.72568173822738   -2.28114825754086    2.56933017453739
C        -1.96627524403293   -2.30741748502584    1.80639546813558
C        -0.25606582294168   -3.23006741408888   -1.93147120663806
C         0.74976833556855   -2.29850753652010   -2.57407792746585
C         1.94955153335102   -2.27956504496156   -1.80807686778634
C         1.72302955983598   -2.99692543841178   -0.58190673122948
C         0.37386571327915   -3.46890132572580   -0.57492080430369
C         2.77956330916414   -1.15124430146638   -1.81366156511040
C         2.41399820555522    0.00107029311053   -2.56937961383513
C         2.78527273065879    1.17727568041452   -1.80711712640479
C         3.40062731347578    0.73052802226126   -0.58672890538164
C         3.39777438711766   -0.71121749801432   -0.58747050611820
C         1.98436971267520    2.29976508131014   -1.81019537014616
C         0.79668600280527    2.44933837789591   -2.73368849897812
C        -0.25137892306805    3.03221146964131   -1.81449821134152
C         0.35825682178632    3.43520151954260   -0.59394798008060
C         1.73349538332539    2.99177850298343   -0.59386288626239
C        -1.55816452420821    2.58906316212302   -1.81137792180745
C        -1.95374580112754    1.42671942251771   -2.57955543381159
C        -2.94389480940774    0.71223629157007   -1.82704300546424
C        -3.17909230588624    1.43001008375494   -0.59924161320773
C        -2.32231561248357    2.58871645707486   -0.59258207397990
C        -2.94916558407375   -0.68131079083255   -1.81905499180195
C        -1.94684993012323   -1.41422649232659   -2.55627352844394
C        -1.58913858631086   -2.57789543772784   -1.79593967813591
C        -2.30847147968496   -2.56635600972907   -0.60242864518378
C        -3.17259107247623   -1.39307155356457   -0.59554161472385
C        -0.99965718129684   -0.72801235095091   -3.29508270078624
C        -0.97893279247730    0.71513805829654   -3.28415268182327
C         0.37311833170530    1.14872893782275   -3.30997152198509
C         1.20738261721389    0.00228841117186   -3.27180964015478
C         0.37599668187352   -1.17781605088856   -3.27744885558777
Cl       -1.94402027993065   -0.01322826381919    5.24858090189271
Cl       -0.39291628713308   -4.79091834413053   -2.86857259310266
Cl        1.19582110651948    3.65334055111620   -4.09461551762910
63
 energy: -142.090862242491 gnorm: 0.004698602158 xtb: 6.4.1 (a3dbbd7)
C        -1.29962650092980   -0.00837208614733    3.54070539184560
C        -0.36791392281776   -1.18076258319917    3.31357182298051
C         0.98272275791881   -0.72284014796730    3.29032388633973
C         0.97778028555481    0.71861878720179    3.29195138272907
C        -0.37355314836237    1.16875647409883    3.31829859544664
C         2.33752397592607   -2.57750727885508    0.59702658361963
C         3.18218048747217   -1.40746728250015    0.59276529215187
C         2.94971201730251   -0.68900278454930    1.82025681859400
C         1.95919566903894   -1.41340894293796    2.57447304634755
C         1.58832073190344   -2.57690640838331    1.81899591709438
C         3.18113508974354    1.42376551420666    0.59815559257773
C         2.33292665531891    2.57922508213865    0.59493909482849
C         1.57430213787355    2.57630020922851    1.81968378579367
C         1.94983057160075    1.41726315015202    2.57508585985554
C         2.94694277853016    0.69943668979414    1.82314639821574
C        -0.36675876806749    3.44032110840881    0.59568666873573
C        -1.73467844593577    3.00520176619151    0.59815847136255
C        -1.97775802330962    2.28840225902512    1.82089522035787
C        -0.73763081308205    2.27149819945800    2.57903728901695
C         0.24735087402281    2.99031261883793    1.81556590630431
C        -3.40237738672758    0.73282941261134    0.57903774625020
C        -3.39727229577059   -0.70449729735115    0.57940677657352
C        -2.76873808382825   -1.14050341909444    1.81499780654130
C        -2.41673113199028   -0.01333086757404    2.55557591121796
C        -2.77798021742121    1.15848672121133    1.80984581802250
C        -1.74029386511566   -3.00940423664590    0.61421413010687
C        -0.34813783026032   -3.44545218351868    0.59290532174489
C         0.26358262549429   -2.99818174301083    1.81460669173321
C        -0.72585130777007   -2.28124916970494    2.56947591705194
C        -1.96639979422380   -2.30760905917405    1.80671216221761
C        -0.25616841390253   -3.23034414564191   -1.93150684402958
C         0.74987449116134   -2.29843244065796   -2.57394728672775
C         1.94973707145950   -2.27997126855822   -1.80785762196166
C         1.72311933424686   -2.99704771542186   -0.58170802199037
C         0.37383693272225   -3.46901027517746   -0.57475616166894
C         2.77952382504291   -1.15134004581553   -1.81394251449791
C         2.41596898386781    0.00049407004421   -2.57036095817052
C         2.78533797130632    1.17863838362531   -1.80875612864219
C         3.39781294918326    0.73079716825724   -0.58708463082743
C         3.39610404286120   -0.71096582510530   -0.58727365207203
C         1.98578313618275    2.30297081613297   -1.81462411861102
C         0.79916927314403    2.45656651127599   -2.73978596895642
C        -0.25061199348634    3.03547684496552   -1.81866169882528
C         0.35773951039836    3.43357337609119   -0.59558677942237
C         1.73297032932718    2.99011518622939   -0.59549660068239
C        -1.55747797371044    2.59054852995041   -1.81311690140962
C        -1.95530917858541    1.42737447549310   -2.58026055938537
C        -2.94361786510512    0.71219620791462   -1.82699117918081
C        -3.17752912572159    1.42940017977381   -0.59890360518247
C        -2.31996356619981    2.58752069489752   -0.59287181188594
C        -2.94931943645199   -0.68139689588933   -1.81843772233029
C        -1.94649254389582   -1.41394146838086   -2.55566775726522
C        -1.58937481268912   -2.57814064386072   -1.79604905817736
C        -2.30867610808206   -2.56657566096565   -0.60229767521188
C        -3.17263100465585   -1.39301786258299   -0.59521934713943
C        -0.99881494994338   -0.72673347131536   -3.29279280729981
C        -0.97756027285678    0.71755181452992   -3.28323627696137
C         0.37382505990239    1.15052000214571   -3.30560231913936
C         1.20780967431425    0.00482324190290   -3.27101059391359
C         0.37615453427542   -1.17635975230445   -3.27516037237471
Cl       -1.94455254767128   -0.01504462078205    5.24967670718363
Cl       -0.39226198122758   -4.79168054306352   -2.86732534391857
Cl        1.19475871203703    3.65048907041928   -4.09865479209284
63
 energy: -142.090903010359 gnorm: 0.002469382094 xtb: 6.4.1 (a3dbbd7)
C        -1.29969710921832   -0.00830515576771    3.54078028869807
C        -0.36788616391390   -1.18062790351378    3.31343382540840
C         0.98272211557715   -0.72275108098838    3.29029404870553
C         0.97783854846168    0.71871666518900    3.29214594027436
C        -0.37359729155978    1.16893461595313    3.31858884942922
C         2.33768393472606   -2.57744681719668    0.59692100210653
C         3.18241233981316   -1.40741478783882    0.59271103229679
C         2.94966160909838   -0.68900767075232    1.82024689776704
C         1.95925487914118   -1.41338180796828    2.57443751892030
C         1.58836615355131   -2.57678691221878    1.81882248809279
C         3.18109372179530    1.42363073828514    0.59822821476078
C         2.33234444986017    2.57878170582497    0.59482777849048
C         1.57416742140714    2.57598721665831    1.81962492174575
C         1.95004360598900    1.41720501269245    2.57528140803954
C         2.94713186919355    0.69937957124556    1.82343215662511
C        -0.36651681072713    3.43957202360389    0.59558962391761
C        -1.73467775661130    3.00510499678891    0.59821242793614
C        -1.97796205057216    2.28851144477624    1.82118603894658
C        -0.73780393872309    2.27157564478624    2.57923540025421
C         0.24731917860350    2.98994024561165    1.81549907340413
C        -3.40249112129961    0.73300760005289    0.57896745292160
C        -3.39736405106540   -0.70428693546708    0.57933404267457
C        -2.76880468199528   -1.14031206942390    1.81487784161255
C        -2.41686901755410   -0.01319853378498    2.55567356252683
C        -2.77793174249850    1.15852869454090    1.80985330916616
C        -1.74030574824145   -3.00910871351500    0.61383658527526
C        -0.34810458595012   -3.44511841894023    0.59258085845495
C         0.26358416587668   -2.99792089151041    1.81434738872508
C        -0.72585213543694   -2.28096703188381    2.56911025500767
C        -1.96637119313371   -2.30732056544406    1.80643411518886
C        -0.25614208426146   -3.23010922515174   -1.93181085966807
C         0.75016504507287   -2.29836599409426   -2.57429189738658
C         1.95016462646963   -2.28008771746978   -1.80805183940991
C         1.72333678997407   -2.99685545367225   -0.58191434999265
C         0.37392473327134   -3.46858959130731   -0.57496198533255
C         2.78015679504699   -1.15153672245726   -1.81421826145614
C         2.41709892912996   -0.00000115148573   -2.57060963152239
C         2.78525106740836    1.17874582278519   -1.80882680618143
C         3.39715711664959    0.73098732706304   -0.58709085495849
C         3.39587684189543   -0.71085059263956   -0.58728077691994
C         1.98586677569275    2.30341028883529   -1.81569260343144
C         0.79985839015794    2.45855306254772   -2.74159231027684
C        -0.25042275965691    3.03587809127145   -1.81965384797599
C         0.35743101475620    3.43259247950794   -0.59577120415875
C         1.73267231183438    2.98907534507621   -0.59564898027627
C        -1.55742304104212    2.59078738540459   -1.81328196332915
C        -1.95635076444848    1.42760177883258   -2.58039599181689
C        -2.94409235400767    0.71242162757092   -1.82713498082424
C        -3.17725406378805    1.42945557598499   -0.59889258055909
C        -2.31938533147895    2.58744195038274   -0.59289490329105
C        -2.94965362405658   -0.68120802622460   -1.81844303956035
C        -1.94656437053261   -1.41371875586145   -2.55582169711996
C        -1.58941692023349   -2.57791447772905   -1.79643954344347
C        -2.30871034045758   -2.56634022610113   -0.60258262045090
C        -3.17271275482022   -1.39275607440935   -0.59541485218727
C        -0.99849533651929   -0.72625241220767   -3.29191806362514
C        -0.97712863574339    0.71846453133257   -3.28242104066149
C         0.37400147473393    1.15086299924239   -3.30220752113707
C         1.20802436475996    0.00573432725902   -3.27024348503066
C         0.37615652535499   -1.17574306039251   -3.27420310531150
Cl       -1.94445528674629   -0.01561528026891    5.24981359947165
Cl       -0.39164693013235   -4.79147474981305   -2.86713783996601
Cl        1.19229238045948    3.64346247847085   -4.09724760669614
63
 energy: -142.090915060325 gnorm: 0.001308923227 xtb: 6.4.1 (a3dbbd7)
C        -1.29961648488811   -0.00818539001728    3.54044395827209
C        -0.36781579268712   -1.18050160293284    3.31312224553338
C         0.98277612157703   -0.72261028291769    3.28999849320685
C         0.97788050408627    0.71883745740976    3.29190322619992
C        -0.37353723266982    1.16904607003237    3.31830500748103
C         2.33781680321169   -2.57728827501051    0.59670458484036
C         3.18274938135383   -1.40736058012975    0.59262594220251
C         2.94982168445070   -0.68887378003069    1.82012378137991
C         1.95934569847532   -1.41325031553742    2.57421064557298
C         1.58844223277050   -2.57661460427474    1.81856372819811
C         3.18152269371550    1.42377738718919    0.59833676457619
C         2.33264525888227    2.57903920584571    0.59506712680565
C         1.57430708758646    2.57623140458582    1.81970359245157
C         1.95018204847393    1.41733376264307    2.57520353051026
C         2.94732143261922    0.69951721194425    1.82344249234670
C        -0.36658430021357    3.43994984118281    0.59580232491215
C        -1.73490497133121    3.00549406267075    0.59827065133514
C        -1.97799996486252    2.28873415094832    1.82112412594747
C        -0.73780139016853    2.27172118360711    2.57908026548812
C         0.24738052482727    2.99021198393691    1.81555516953787
C        -3.40269018286103    0.73322170370686    0.57880819226259
C        -3.39738564840455   -0.70408883447135    0.57908215747527
C        -2.76877550374942   -1.14014401820273    1.81457983628038
C        -2.41681998260948   -0.01301181996169    2.55538810223292
C        -2.77792655165787    1.15871140616872    1.80965719306586
C        -1.74023149441461   -3.00887968086604    0.61354182102401
C        -0.34804964646972   -3.44490230786737    0.59230434160392
C         0.26365063369348   -2.99770912071452    1.81404981098621
C        -0.72580813002046   -2.28081426975781    2.56881435086077
C        -1.96631760396868   -2.30711518924966    1.80612797436588
C        -0.25607493570895   -3.22989204443223   -1.93203907246628
C         0.75035225449049   -2.29832228327633   -2.57455819352913
C         1.95042466424533   -2.28001620793892   -1.80826888279286
C         1.72345643582330   -2.99667593994011   -0.58215812041177
C         0.37399552744679   -3.46828048263463   -0.57517835318006
C         2.78064956028598   -1.15157541680131   -1.81431489976102
C         2.41722000617294   -0.00005903564494   -2.57042945698799
C         2.78522395573951    1.17847997141942   -1.80829107045991
C         3.39768601944450    0.73106156063333   -0.58694946140969
C         3.39638788126568   -0.71084788569297   -0.58734309374079
C         1.98551130639787    2.30270904889336   -1.81482604818625
C         0.79970772748112    2.45815393764977   -2.74153858943574
C        -0.25056126632242    3.03516285581576   -1.81882185885348
C         0.35741095625444    3.43258830588825   -0.59533396644584
C         1.73269066694470    2.98903074802432   -0.59518972445020
C        -1.55758338866725    2.59058304085520   -1.81277169401121
C        -1.95651123840537    1.42763759903269   -2.58025074214382
C        -2.94451091426419    0.71269098670097   -1.82727850636082
C        -3.17764768053893    1.42977450300315   -0.59900092025196
C        -2.31978037044732    2.58785749132088   -0.59279149292529
C        -2.94985530154664   -0.68101439592087   -1.81869022189776
C        -1.94676884419919   -1.41364320842376   -2.55615645261710
C        -1.58936612049575   -2.57769294409989   -1.79669108680925
C        -2.30865467840901   -2.56612007916248   -0.60284297333535
C        -3.17273604707348   -1.39258263241892   -0.59570359441287
C        -0.99856100602359   -0.72637093196667   -3.29214292310169
C        -0.97726185977881    0.71824203567164   -3.28203365400785
C         0.37384465050154    1.15039556550289   -3.30101738573494
C         1.20796932471193    0.00549503452756   -3.26984976782292
C         0.37609809919934   -1.17583805546286   -3.27437677827167
Cl       -1.94427329818520   -0.01542256292089    5.24949639984214
Cl       -0.39150555846255   -4.79106143372797   -2.86747185436758