180
 energy: -567.057611397444 gnorm: 11.722125562540 xtb: 6.4.1 (a3dbbd7)
C        -1.23626340000000    0.00000000000000    3.32997640000000
C        -0.38202640000000   -1.17575640000000    3.32997640000000
C         1.00015810000000   -0.72665740000000    3.32997640000000
C         1.00015810000000    0.72665740000000    3.32997640000000
C        -0.38202640000000    1.17575640000000    3.32997640000000
C         2.34433560000000   -2.60145750000000    0.59464210000000
C         3.19857260000000   -1.42570110000000    0.59464210000000
C         2.96246730000000   -0.69904370000000    1.83090550000000
C         1.96230920000000   -1.42570110000000    2.59495830000000
C         1.58028280000000   -2.60145750000000    1.83090550000000
C         3.19857260000000    1.42570110000000    0.59464210000000
C         2.34433560000000    2.60145750000000    0.59464210000000
C         1.58028280000000    2.60145750000000    1.83090550000000
C         1.96230920000000    1.42570110000000    2.59495830000000
C         2.96246730000000    0.69904370000000    1.83090550000000
C        -0.36750900000000    3.48258920000000    0.59464210000000
C        -1.74969350000000    3.03349030000000    0.59464210000000
C        -1.98579880000000    2.30683290000000    1.83090550000000
C        -0.74953540000000    2.30683290000000    2.59495830000000
C         0.25062270000000    3.03349030000000    1.83090550000000
C        -3.42570570000000    0.72665740000000    0.59464210000000
C        -3.42570570000000   -0.72665740000000    0.59464210000000
C        -2.80757400000000   -1.17575640000000    1.83090550000000
C        -2.42554760000000    0.00000000000000    2.59495830000000
C        -2.80757400000000    1.17575640000000    1.83090550000000
C        -1.74969350000000   -3.03349030000000    0.59464210000000
C        -0.36750900000000   -3.48258920000000    0.59464210000000
C         0.25062270000000   -3.03349030000000    1.83090550000000
C        -0.74953540000000   -2.30683290000000    2.59495830000000
C        -1.98579880000000   -2.30683290000000    1.83090550000000
C        -0.25062270000000   -3.03349030000000   -1.83090550000000
C         0.74953540000000   -2.30683290000000   -2.59495830000000
C         1.98579880000000   -2.30683290000000   -1.83090550000000
C         1.74969350000000   -3.03349030000000   -0.59464210000000
C         0.36750900000000   -3.48258920000000   -0.59464210000000
C         2.80757400000000   -1.17575640000000   -1.83090550000000
C         2.42554760000000    0.00000000000000   -2.59495830000000
C         2.80757400000000    1.17575640000000   -1.83090550000000
C         3.42570570000000    0.72665740000000   -0.59464210000000
C         3.42570570000000   -0.72665740000000   -0.59464210000000
C         1.98579880000000    2.30683290000000   -1.83090550000000
C         0.74953540000000    2.30683290000000   -2.59495830000000
C        -0.25062270000000    3.03349030000000   -1.83090550000000
C         0.36750900000000    3.48258920000000   -0.59464210000000
C         1.74969350000000    3.03349030000000   -0.59464210000000
C        -1.58028280000000    2.60145750000000   -1.83090550000000
C        -1.96230920000000    1.42570110000000   -2.59495830000000
C        -2.96246730000000    0.69904370000000   -1.83090550000000
C        -3.19857260000000    1.42570110000000   -0.59464210000000
C        -2.34433560000000    2.60145750000000   -0.59464210000000
C        -2.96246730000000   -0.69904370000000   -1.83090550000000
C        -1.96230920000000   -1.42570110000000   -2.59495830000000
C        -1.58028280000000   -2.60145750000000   -1.83090550000000
C        -2.34433560000000   -2.60145750000000   -0.59464210000000
C        -3.19857260000000   -1.42570110000000   -0.59464210000000
C        -1.00015810000000   -0.72665740000000   -3.32997640000000
C        -1.00015810000000    0.72665740000000   -3.32997640000000
C         0.38202640000000    1.17575640000000   -3.32997640000000
C         1.23626340000000    0.00000000000000   -3.32997640000000
C         0.38202640000000   -1.17575640000000   -3.32997640000000
C        -1.76086815247998    0.00000000000000    4.78849957557021
F        -0.76911826531252    0.00000000000000    5.67468926254662
F        -2.50968386795825   -1.06794314680471    5.04863888333743
F        -2.50968386795825    1.06794314680471    5.04863888333743
C        -0.54413818249354   -1.67468516033722    4.78849957845317
F        -0.23767107904745   -0.73147481112462    5.67468925997942
F        -1.79120914301982   -2.05683909935453    5.04863874564184
F         0.24013968171955   -2.71686350152345    5.04863903502921
C         1.42457227037960   -1.03501233722714    4.78849957248258
F         0.62223011468481   -0.45207589682711    5.67468926529602
F         1.40265511061956   -2.33913928186680    5.04863905501621
F         2.65809836182651   -0.61117154425495    5.04863869666890
C         1.42457227037960    1.03501233722714    4.78849957248258
F         0.62223011468481    0.45207589682711    5.67468926529602
F         2.65809836182651    0.61117154425495    5.04863869666891
F         1.40265511061956    2.33913928186680    5.04863905501621
C         3.37204091334889   -3.72927672645244    0.86730596148276
F         4.06564647311728   -3.51265957144659    1.98125763710228
F         4.25569947457670   -3.84739838595791   -0.11965645964809
F         2.78580317558591   -4.91533944031226    1.00324916143779
C         4.25247495652193   -1.01957928511255    2.62817407757680
F         4.45020405360863   -2.32910962270744    2.75037677428969
F         5.33704498641440   -0.51936149478958    2.04303305824604
F         4.21414295278388   -0.51936236815955    3.85992636334025
C         2.82790274436383   -2.05459160758554    3.71645040671519
F         3.82797483682855   -2.78118494419178    3.22571836876305
F         3.37293748548841   -1.13053297859378    4.50255013394648
F         2.11749631416700   -2.85850222732984    4.50254863174647
C         4.58877084110522    2.05459160147071    0.86730597290559
F         4.59709252483521    2.78118520641283    1.98125951001435
F         4.97417519512416    2.85850196315549   -0.11965482382298
F         5.53562669678859    1.13053295630600    1.00324569798425
C         3.37204091334889    3.72927672645244    0.86730596148276
F         4.06564647311728    3.51265957144659    1.98125763710228
F         4.25569947457670    3.84739838595791   -0.11965645964809
F         2.78580317558591    4.91533944031226    1.00324916143779
C         2.28376457660886    3.72927671755932    2.62817408867206
F         3.59030321655004    3.51265997057976    2.75037870097715
F         2.14318168460923    4.91533956626619    2.04303190988612
F         1.79618325340524    3.84739782561575    3.85992562899767
C         2.82790274436383    2.05459160758554    3.71645040671519
F         3.82797483682855    2.78118494419178    3.22571836876305
F         2.11749631416700    2.85850222732984    4.50254863174647
F         3.37293748548841    1.13053297859378    4.50255013394648
C         0.34440953624153    4.35941144868709    2.62817404748705
F        -0.83992598883967    4.95213069234126    2.75037577510431
F         1.15529636597892    5.23632261667420    2.04303359185445
F         0.80829780400759    4.16837989546168    3.85992670963205
C        -4.92005227074660   -1.03501232949151    0.86730592957069
F        -5.35386609588658   -0.45207588830481    1.98125865327758
F        -5.70437742108406   -0.61117153086585   -0.11965558739362
F        -5.14292645153878   -2.33913927311179    1.00324714649869
C        -4.03961820246674   -1.67468514775899    2.62817407948106
F        -4.96930660042402   -0.73147479244129    2.75037763231441
F        -4.62303373288711   -2.71686348978894    2.04303253910982
F        -3.71458666614022   -2.05683907990832    3.85992603200073
C        -3.49548004549360    0.00000000000000    3.71645041414084
F        -4.73163621497510    0.00000000000000    3.22571838476757
F        -3.39327517264965   -1.06794314680471    4.50254938956302
F        -3.39327517264965    1.06794314680471    4.50254938956303
C        -0.53602450593361   -4.99908416128281    0.86730591619822
F        -1.22448605650957   -5.23152837615597    1.98125850960180
F        -1.18149064144157   -5.61404773804446   -0.11965571789346
F         0.63540201352706   -5.61404743764837    1.00324736766175
C        -1.08016271022039   -3.32439912180418    3.71645041587937
F        -1.46215754230407   -4.50005299330749    3.22571838851551
F        -0.03290491502764   -3.55721032900471    4.50254840735999
F        -2.06425285383526   -2.89718320022386    4.50255037491024
C        -0.34440953624153   -4.35941144868709   -2.62817404748705
F         0.83992598883967   -4.95213069234126   -2.75037577510431
F        -0.80829780400759   -4.16837989546168   -3.85992670963205
F        -1.15529636597892   -5.23632261667420   -2.04303359185445
C         2.84103082519036   -3.32439911178427   -2.62817407941587
F         2.23127406184888   -4.50005340761388   -2.75037746012495
F         3.10404037880944   -2.89718378306489   -3.85992609894426
F         4.01248672303643   -3.55720929213529   -2.04303264409737
C         2.50473491433418   -4.35941144902977   -0.86730593917895
F         2.08438487052912   -4.95213043104453   -1.98125838386969
F         3.81390519137296   -4.16837996597314   -1.00324768478856
F         2.34400857369757   -5.23632280881804    0.11965581818547
C         4.03961820246674   -1.67468514775899   -2.62817407948106
F         4.96930660042401   -0.73147479244129   -2.75037763231445
F         3.71458666614023   -2.05683907990836   -3.85992603200072
F         4.62303373288714   -2.71686348978891   -2.04303253910981
C         3.49548004549360    0.00000000000000   -3.71645041414084
F         4.73163621497510    0.00000000000000   -3.22571838476757
F         3.39327517264965   -1.06794314680471   -4.50254938956302
F         3.39327517264965    1.06794314680471   -4.50254938956303
C         4.92005227074660   -1.03501232949151   -0.86730592957069
F         5.35386609588658   -0.45207588830481   -1.98125865327758
F         5.14292645153878   -2.33913927311179   -1.00324714649869
F         5.70437742108406   -0.61117153086585    0.11965558739362
C        -2.82790274436383    2.05459160758554   -3.71645040671519
F        -3.82797483682855    2.78118494419178   -3.22571836876305
F        -2.11749631416700    2.85850222732984   -4.50254863174647
F        -3.37293748548841    1.13053297859378   -4.50255013394648
C        -4.58877084110522    2.05459160147071   -0.86730597290559
F        -4.59709252483521    2.78118520641283   -1.98125951001435
F        -5.53562669678859    1.13053295630600   -1.00324569798425
F        -4.97417519512416    2.85850196315549    0.11965482382298
C        -4.25247495652193   -1.01957928511255   -2.62817407757680
F        -4.45020405360857   -2.32910962270745   -2.75037677428973
F        -4.21414295278389   -0.51936236815949   -3.85992636334022
F        -5.33704498641440   -0.51936149478962   -2.04303305824599
C        -2.82790274436383   -2.05459160758554   -3.71645040671519
F        -3.82797483682855   -2.78118494419178   -3.22571836876305
F        -3.37293748548841   -1.13053297859378   -4.50255013394648
F        -2.11749631416700   -2.85850222732984   -4.50254863174647
C        -3.37204091334889   -3.72927672645244   -0.86730596148276
F        -4.06564647311728   -3.51265957144659   -1.98125763710228
F        -2.78580317558591   -4.91533944031226   -1.00324916143779
F        -4.25569947457670   -3.84739838595791    0.11965645964809
C        -1.42457227037960   -1.03501233722714   -4.78849957248258
F        -0.62223011468481   -0.45207589682711   -5.67468926529602
F        -2.65809836182651   -0.61117154425495   -5.04863869666891
F        -1.40265511061956   -2.33913928186680   -5.04863905501621
C         0.54413818249354   -1.67468516033722   -4.78849957845317
F         0.23767107904745   -0.73147481112462   -5.67468925997942
F        -0.24013968171955   -2.71686350152345   -5.04863903502921
F         1.79120914301982   -2.05683909935453   -5.04863874564184
180
 energy: -576.469219959201 gnorm: 10.169961306144 xtb: 6.4.1 (a3dbbd7)
C        -1.23085456301183   -0.00020527650130    3.32073312790522
C        -0.37970476276519   -1.16998639467197    3.31494442958751
C         0.99458681687850   -0.72315613064606    3.31397844953322
C         0.99427948913818    0.72494985998440    3.31980710410786
C        -0.38173398388967    1.17625944872501    3.33190987140299
C         2.34231512908739   -2.59634881608004    0.59783028319427
C         3.19873618082506   -1.42640100811389    0.59636506631296
C         2.96015302242763   -0.69751798399313    1.82705663655054
C         1.95751683924276   -1.42392344121429    2.58656991337431
C         1.58183856838171   -2.60158165532420    1.83189902570642
C         3.19637900579482    1.42253922464609    0.59296694536853
C         2.33934861589328    2.59864483020741    0.59034064145903
C         1.57502400874883    2.59145189262381    1.82292143475816
C         1.95725498306624    1.42123980058441    2.58450751244860
C         2.96350553482195    0.70018946462176    1.83107018607943
C        -0.36869586321449    3.48259737077065    0.59348905737674
C        -1.74966067601683    3.03280569516104    0.59529447111369
C        -1.98472208646348    2.30817418845642    1.82998847546788
C        -0.75192099590729    2.30879771182492    2.59409971057043
C         0.24567030121727    3.02864815695732    1.82726966480400
C        -3.42655656799562    0.72579342409062    0.59713360660230
C        -3.42250395305726   -0.72444408659597    0.59219790786378
C        -2.80044614032137   -1.17663839300481    1.82699215552733
C        -2.42095633457168    0.00099540303145    2.58656204578619
C        -2.80778571978364    1.17606366092599    1.83132098188053
C        -1.74949456128621   -3.03368288824986    0.59664294376456
C        -0.36835796246482   -3.48265441141258    0.59568816422599
C         0.24942048792626   -3.03456948222942    1.83194567604717
C        -0.74894658630681   -2.30578350482186    2.58778067443466
C        -1.98515004531269   -2.30760303305805    1.83045323894305
C        -0.24973674397498   -3.03358358348014   -1.83049704146505
C         0.74953445482006   -2.30766696573385   -2.59490693884740
C         1.97725290318573   -2.29965662408597   -1.82654517348933
C         1.74324338870342   -3.02808240937222   -0.59397536296101
C         0.36883073855310   -3.48294778610674   -0.59591398360181
C         2.79694084755043   -1.17064472550732   -1.82465516842374
C         2.42125731219949    0.00112600246523   -2.59203746308191
C         2.80759561045760    1.17750684831651   -1.83108722333996
C         3.42638969727553    0.72603181487120   -0.59659052210767
C         3.42175934356771   -0.72447403648911   -0.59203410581824
C         1.98414544994587    2.30673173492446   -1.83097321115767
C         0.74970354283772    2.30700775431360   -2.59465756726626
C        -0.24986359654800    3.03345860954759   -1.83064819088889
C         0.36769462199198    3.48215217048306   -0.59573495115069
C         1.74723082679152    3.03362003517238   -0.59802894259134
C        -1.57962115910520    2.60232578585539   -1.82788533170747
C        -1.96418125675183    1.42719497028546   -2.59575875620792
C        -2.96187069731235    0.69944351642437   -1.83079503005383
C        -3.20002827378092    1.42722058264199   -0.59542194727963
C        -2.34149646900097    2.60229291437158   -0.59560473710749
C        -2.96128927430541   -0.69653463441860   -1.82730861959647
C        -1.96132748080505   -1.42664145761450   -2.58929532422816
C        -1.58155313050378   -2.60079558255393   -1.83194011227172
C        -2.34507034670571   -2.60155676819972   -0.59487192520614
C        -3.19883512453683   -1.42616226195880   -0.59532632728504
C        -0.99811027327398   -0.72236109795039   -3.32537489263726
C        -0.99729917400344    0.72612798108292   -3.33094605031213
C         0.38198174216530    1.17598426875817   -3.33068013416281
C         1.23452934292867    0.00130931234747   -3.33077087623405
C         0.38427390466346   -1.17468652810867   -3.32633189352978
C        -1.76889165283663    0.01330285233646    4.75005790764476
F        -0.79358693141861    0.03860629562000    5.70707907787982
F        -2.52488478987087   -1.03289840737627    5.09096805412365
F        -2.48253668211826    1.08942439294888    5.07760946078123
C        -0.53862296568382   -1.67560602278530    4.74969277600532
F        -0.25663319811267   -0.77006177252921    5.70995912970585
F        -1.77202408411193   -2.09012242048760    5.08606000439491
F         0.20332403652035   -2.72830281811180    5.08524995234241
C         1.41835688786641   -1.03839998098541    4.75144235765950
F         0.65747921211868   -0.47368064581559    5.70934684513211
F         1.43499143211095   -2.32485268620920    5.08818620186799
F         2.65793885252380   -0.64838934326073    5.08962508275629
C         1.43201752176622    1.03696062854798    4.75055671204943
F         0.61912028047387    0.50466327541661    5.70589343050499
F         2.65305154602947    0.64646488998370    5.08836366880071
F         1.36229386839744    2.33395119549231    5.08447918274056
C         3.35521877775912   -3.71657474869093    0.86150715633171
F         4.07265431793051   -3.53587710494954    1.96783663486112
F         4.29877539638982   -3.83180121647524   -0.08541757606440
F         2.78857618001757   -4.92597101221920    1.03873066017180
C         4.24439518484229   -1.00935689560332    2.62519198611333
F         4.49126073167866   -2.31092033878625    2.73545494292448
F         5.34129586657466   -0.52092637799778    2.04568209919915
F         4.26758929123128   -0.47922958542476    3.82990164096158
C         2.81174001394640   -2.02804214941405    3.70547107918571
F         3.81545143122966   -2.81595280065478    3.25728366526647
F         3.37133051691390   -1.17889886027378    4.52432630564953
F         2.14315888511892   -2.90834154204836    4.48811363851068
C         4.58223842373298    2.04105575512951    0.84073981941888
F         4.64539874174010    2.75449257728565    1.99461862929662
F         5.01638278692320    2.80787226604948   -0.12541444057134
F         5.54040264507254    1.13291516439168    1.00556713067123
C         3.35183834279095    3.72508929934735    0.84293895691054
F         4.09582808194566    3.55303463012381    1.95528671070611
F         4.22295795777364    3.90242445347858   -0.12458653310046
F         2.81842214897478    4.92854187236375    0.94401933449336
C         2.25245784608712    3.71014360123615    2.60535132747700
F         3.58249177432123    3.55810027367818    2.78384798519582
F         2.13888933989607    4.93215150728324    2.09085486026832
F         1.81597472412743    3.89867756258917    3.85988356954290
C         2.79660804854044    2.03804387299325    3.70260619355452
F         3.86938227574826    2.75273809157834    3.26315204919042
F         2.15738849620591    2.85116215023928    4.53661767111790
F         3.42567585109719    1.14416384698594    4.48989363760050
C         0.33716823731416    4.34771341227065    2.61844318290752
F        -0.84256927297530    4.95571052726492    2.75233278531258
F         1.13340974388290    5.26202024391057    2.03275796849117
F         0.76310642418192    4.18224154563570    3.88095090988263
C        -4.91069485178045   -1.04292806620867    0.85202218353855
F        -5.38996859723175   -0.43082630656834    1.94603686795402
F        -5.70794543786657   -0.61235913033385   -0.11737494196887
F        -5.17433622240619   -2.32230015060687    0.94943243775293
C        -4.02092871298004   -1.68448588710687    2.61883535584291
F        -4.98591152193714   -0.76858138032868    2.76998093851873
F        -4.59940172696484   -2.74140365228124    2.09678007125093
F        -3.73418526115151   -2.11958248949830    3.83264152076584
C        -3.45815831182326    0.00164779832027    3.70887419280089
F        -4.75399172936418    0.04132781223762    3.25172075442825
F        -3.42558409414930   -1.02996075909622    4.52415343041644
F        -3.43361433825332    1.08865234560042    4.49254694252991
C        -0.53755129055937   -4.99776588241372    0.86588418030849
F        -1.22148394051446   -5.24570695140364    1.96230405499617
F        -1.17965789183066   -5.61712393553435   -0.11710003171806
F         0.63572740808987   -5.61709822009931    1.00497611550555
C        -1.07909897906554   -3.31737811792414    3.70045896656341
F        -1.46777462293863   -4.49308566841870    3.24732759706059
F        -0.02793557332612   -3.60400003379937    4.48787516477111
F        -2.09171851206257   -2.93163745493524    4.48953934318072
C        -0.34772307107279   -4.35805155413676   -2.62596101011184
F         0.81440123971987   -4.96083176304212   -2.76063083704596
F        -0.80828784648383   -4.17277211008522   -3.86065395715094
F        -1.15395480984618   -5.23775586360178   -2.04721036564782
C         2.83075495694243   -3.30456503750868   -2.61413002086169
F         2.24312142174409   -4.49524200651291   -2.79569194052007
F         3.08473985741601   -2.92406360414306   -3.88338659423269
F         4.02305685705374   -3.57361734671168   -2.09292389469095
C         2.50278942576132   -4.32929989005703   -0.86018302649287
F         2.08163095169529   -4.99182953414761   -1.95433255292332
F         3.80550457489069   -4.22069796499027   -0.99098807387390
F         2.32683368117766   -5.26640588214419    0.10826711034869
C         4.00264456861044   -1.67702838328366   -2.61250237937427
F         4.99643754666128   -0.75758608908952   -2.77386339805795
F         3.75250438710169   -2.08700334316374   -3.85243754240437
F         4.64388286989405   -2.72056153507558   -2.09044907386494
C         3.47400536880486    0.00273858440269   -3.71696432426019
F         4.73991967768800    0.04325525787412   -3.25379599695232
F         3.37526190606810   -1.01678836772123   -4.54780991277504
F         3.39557251337340    1.07203489405431   -4.50605360412652
C         4.90314090573689   -1.04368146238147   -0.85283746464693
F         5.39300384156872   -0.42385414851448   -1.95275624683598
F         5.17883425956108   -2.32941916182273   -0.94083314070775
F         5.71032928347920   -0.61148727530648    0.11802972929329
C        -2.82674984843205    2.05556271887284   -3.71492816709238
F        -3.81656619305737    2.78250978068918   -3.24735244546544
F        -2.11671113919405    2.85956499653380   -4.50467016288331
F        -3.37404508445278    1.13351755193821   -4.50528561597251
C        -4.58763564701939    2.05452288759483   -0.86717625604918
F        -4.61133983836132    2.78270250067282   -1.96155881056782
F        -5.53784344580543    1.13409709630523   -1.00292759951413
F        -4.97573948641034    2.85970475189613    0.12155211588514
C        -4.24767431918139   -1.00869237600607   -2.62592813375259
F        -4.48999479633275   -2.30780780845308   -2.73566420260385
F        -4.26561029269210   -0.48321940183016   -3.82735711076873
F        -5.34020988547029   -0.52131439062036   -2.04568526010358
C        -2.81331964787217   -2.02439838424386   -3.70609117311217
F        -3.81224517916986   -2.81358641609116   -3.25834265976600
F        -3.36298020272472   -1.17403001383117   -4.52589690333668
F        -2.13545327370048   -2.90392332517416   -4.49804110875615
C        -3.36941551754600   -3.73019177839530   -0.86397814177766
F        -4.06787318160869   -3.53416504928324   -1.96319334898345
F        -2.79017038328153   -4.91587691865039   -1.00334887940936
F        -4.25618439821779   -3.85038529197212    0.11936197472858
C        -1.42041772126885   -1.05136494977966   -4.75460195159129
F        -0.65483975990919   -0.41766105901383   -5.69884192137535
F        -2.65078639256225   -0.58194620882326   -5.07962615466849
F        -1.43893927690904   -2.31268265245582   -5.07269737864723
C         0.53976492793581   -1.68044719665855   -4.77502209170438
F         0.28413971534934   -0.73357684712095   -5.69186919860282
F        -0.17478562787696   -2.74485511988802   -5.05418553204538
F         1.79313708224075   -2.05829330589155   -5.05477891953700
180
 energy: -586.015111473639 gnorm: 9.451646751731 xtb: 6.4.1 (a3dbbd7)
C        -1.22620656142143    0.00203757515696    3.31517332464754
C        -0.37814724305511   -1.16572768022889    3.30290471902982
C         0.98773636911803   -0.71915276070122    3.29670970929218
C         0.98954066153233    0.72183958536489    3.31364254516283
C        -0.38196434365751    1.17667129293834    3.33414559261635
C         2.34281055587136   -2.59379310322142    0.60178391188695
C         3.19808848140976   -1.42701866831428    0.59826424033227
C         2.95870788265185   -0.69651440314236    1.82363635841949
C         1.95330909571011   -1.42280571528065    2.57957204171389
C         1.58327912293874   -2.60144779256856    1.83298438013247
C         3.19586728875580    1.42065060292421    0.59252002017863
C         2.33545007940873    2.59724130156772    0.58704347841582
C         1.57094523925524    2.58492194855451    1.81624580961993
C         1.95622141880714    1.41897374290102    2.57749882221370
C         2.96460189457712    0.70153554805487    1.83151257500600
C        -0.37003141097809    3.48302088225818    0.59229388206741
C        -1.74957885300589    3.03208099526475    0.59540915736108
C        -1.98296354914686    2.30851009172681    1.82933708206073
C        -0.75459552551597    2.31058321031311    2.59222403792889
C         0.24026588380815    3.02524629014816    1.82398520066831
C        -3.42767709472724    0.72501569670005    0.59985055220627
C        -3.42020684448829   -0.72197158601411    0.59015250890798
C        -2.79512983026783   -1.17788872017511    1.82520187272692
C        -2.41897221337422    0.00420370776578    2.58062138874739
C        -2.80773616319861    1.17649510462630    1.83137178042512
C        -1.74915230451462   -3.03323273345499    0.59885337268685
C        -0.36943580114329   -3.48451932992769    0.59729580164475
C         0.24804002509428   -3.03498701545200    1.83300381204204
C        -0.74833920966486   -2.30660706387963    2.58231983339049
C        -1.98468085236435   -2.30808039751776    1.82853466059726
C        -0.24901421835768   -3.03471816123864   -1.83094873444492
C         0.74992018516685   -2.30819259653502   -2.59474852976469
C         1.96943433182557   -2.29805748805247   -1.82501694201119
C         1.73874638312255   -3.02786233405731   -0.59350406850741
C         0.37075982397755   -3.48203990822942   -0.59715039838231
C         2.79277318558113   -1.16792031584162   -1.82338719689097
C         2.41914186642645    0.00428688724556   -2.59206649993000
C         2.80720297542594    1.17962196277306   -1.83097284074302
C         3.42715622924417    0.72593021556898   -0.59847317884538
C         3.42085147060035   -0.72286351198531   -0.58961386757000
C         1.98269279093581    2.30589090614492   -1.83043065063325
C         0.74997795343732    2.30747823628735   -2.59463965827634
C        -0.24916318057195    3.03341432433687   -1.82989984590391
C         0.36747206042997    3.48100139584767   -0.59714470174032
C         1.74519964725789    3.03393386703415   -0.60147106640334
C        -1.57897009084229    2.60341808306200   -1.82459809184587
C        -1.96659845562121    1.42901027587364   -2.59709053159350
C        -2.96139063457900    0.69980990114058   -1.83071974119146
C        -3.20209887293036    1.42909359620321   -0.59677381392125
C        -2.33797016888391    2.60302556149096   -0.59592894368725
C        -2.96054535547363   -0.69405378700817   -1.82363142638349
C        -1.96156796980575   -1.42898823790617   -2.58520196930353
C        -1.58281717462703   -2.59956665162277   -1.83224516242742
C        -2.34648676328946   -2.60246185749478   -0.59543444139420
C        -3.19907486433000   -1.42647217642945   -0.59578640587233
C        -0.99697301690942   -0.71867281100311   -3.32543240026119
C        -0.99386045839359    0.72582113377441   -3.33248552469346
C         0.38155689781298    1.17580705612750   -3.32785548990102
C         1.23196367748899    0.00319983827411   -3.33245176882455
C         0.38701785359485   -1.17370832610603   -3.32417222259607
C        -1.78262924557468    0.00842428561171    4.71195473765073
F        -0.81885701857622    0.09418245519178    5.74000227783472
F        -2.52071168573133   -1.00116644906215    5.13350202904734
F        -2.41838943334477    1.09960496336079    5.12604578955947
C        -0.52773216682037   -1.67372593823208    4.71073380534312
F        -0.30894843550418   -0.82668068124058    5.73985677540550
F        -1.73992464077011   -2.09877568296242    5.13708074131352
F         0.16750260877703   -2.71696941504551    5.13081391355390
C         1.40477488378156   -1.04513620937435    4.71362295073885
F         0.73702015306885   -0.50267686033065    5.73525810405801
F         1.45179825279099   -2.29159701591256    5.13737023974496
F         2.65556449409434   -0.67566254498149    5.13608117130577
C         1.45166757295722    1.03215018284294    4.71442705580273
F         0.60599735521254    0.57335207098670    5.73693494882970
F         2.61358729097227    0.67133998452096    5.13505816237214
F         1.30244924614220    2.31814733136596    5.12950966516452
C         3.34284881315224   -3.70684668300590    0.85501117073176
F         4.07796524886635   -3.55841459992856    1.95245623256625
F         4.34970481731559   -3.80235981625134   -0.02421971636961
F         2.80195738321085   -4.92440983246404    1.08437188726839
C         4.23748094471467   -1.00113635276168    2.62404420117635
F         4.52003946555390   -2.29527983719268    2.72838295398349
F         5.34375433198599   -0.52312130136782    2.04932998595316
F         4.30216147266587   -0.45327562155610    3.80913748185834