156
 energy: -494.834470191757 gnorm: 8.004319338639 xtb: 6.4.1 (a3dbbd7)
C        -1.23626340000000    0.00000000000000    3.32997640000000
C        -0.38202640000000   -1.17575640000000    3.32997640000000
C         1.00015810000000   -0.72665740000000    3.32997640000000
C         1.00015810000000    0.72665740000000    3.32997640000000
C        -0.38202640000000    1.17575640000000    3.32997640000000
C         2.34433560000000   -2.60145750000000    0.59464210000000
C         3.19857260000000   -1.42570110000000    0.59464210000000
C         2.96246730000000   -0.69904370000000    1.83090550000000
C         1.96230920000000   -1.42570110000000    2.59495830000000
C         1.58028280000000   -2.60145750000000    1.83090550000000
C         3.19857260000000    1.42570110000000    0.59464210000000
C         2.34433560000000    2.60145750000000    0.59464210000000
C         1.58028280000000    2.60145750000000    1.83090550000000
C         1.96230920000000    1.42570110000000    2.59495830000000
C         2.96246730000000    0.69904370000000    1.83090550000000
C        -0.36750900000000    3.48258920000000    0.59464210000000
C        -1.74969350000000    3.03349030000000    0.59464210000000
C        -1.98579880000000    2.30683290000000    1.83090550000000
C        -0.74953540000000    2.30683290000000    2.59495830000000
C         0.25062270000000    3.03349030000000    1.83090550000000
C        -3.42570570000000    0.72665740000000    0.59464210000000
C        -3.42570570000000   -0.72665740000000    0.59464210000000
C        -2.80757400000000   -1.17575640000000    1.83090550000000
C        -2.42554760000000    0.00000000000000    2.59495830000000
C        -2.80757400000000    1.17575640000000    1.83090550000000
C        -1.74969350000000   -3.03349030000000    0.59464210000000
C        -0.36750900000000   -3.48258920000000    0.59464210000000
C         0.25062270000000   -3.03349030000000    1.83090550000000
C        -0.74953540000000   -2.30683290000000    2.59495830000000
C        -1.98579880000000   -2.30683290000000    1.83090550000000
C        -0.25062270000000   -3.03349030000000   -1.83090550000000
C         0.74953540000000   -2.30683290000000   -2.59495830000000
C         1.98579880000000   -2.30683290000000   -1.83090550000000
C         1.74969350000000   -3.03349030000000   -0.59464210000000
C         0.36750900000000   -3.48258920000000   -0.59464210000000
C         2.80757400000000   -1.17575640000000   -1.83090550000000
C         2.42554760000000    0.00000000000000   -2.59495830000000
C         2.80757400000000    1.17575640000000   -1.83090550000000
C         3.42570570000000    0.72665740000000   -0.59464210000000
C         3.42570570000000   -0.72665740000000   -0.59464210000000
C         1.98579880000000    2.30683290000000   -1.83090550000000
C         0.74953540000000    2.30683290000000   -2.59495830000000
C        -0.25062270000000    3.03349030000000   -1.83090550000000
C         0.36750900000000    3.48258920000000   -0.59464210000000
C         1.74969350000000    3.03349030000000   -0.59464210000000
C        -1.58028280000000    2.60145750000000   -1.83090550000000
C        -1.96230920000000    1.42570110000000   -2.59495830000000
C        -2.96246730000000    0.69904370000000   -1.83090550000000
C        -3.19857260000000    1.42570110000000   -0.59464210000000
C        -2.34433560000000    2.60145750000000   -0.59464210000000
C        -2.96246730000000   -0.69904370000000   -1.83090550000000
C        -1.96230920000000   -1.42570110000000   -2.59495830000000
C        -1.58028280000000   -2.60145750000000   -1.83090550000000
C        -2.34433560000000   -2.60145750000000   -0.59464210000000
C        -3.19857260000000   -1.42570110000000   -0.59464210000000
C        -1.00015810000000   -0.72665740000000   -3.32997640000000
C        -1.00015810000000    0.72665740000000   -3.32997640000000
C         0.38202640000000    1.17575640000000   -3.32997640000000
C         1.23626340000000    0.00000000000000   -3.32997640000000
C         0.38202640000000   -1.17575640000000   -3.32997640000000
C        -1.76086815247998    0.00000000000000    4.78849957557021
F        -0.76911826531252    0.00000000000000    5.67468926254662
F        -2.50968386795825   -1.06794314680471    5.04863888333743
F        -2.50968386795825    1.06794314680471    5.04863888333743
C        -0.54413818249354   -1.67468516033722    4.78849957845317
F        -0.23767107904745   -0.73147481112462    5.67468925997942
F        -1.79120914301982   -2.05683909935453    5.04863874564184
F         0.24013968171955   -2.71686350152345    5.04863903502921
C         1.42457227037960   -1.03501233722714    4.78849957248258
F         0.62223011468481   -0.45207589682711    5.67468926529602
F         1.40265511061956   -2.33913928186680    5.04863905501621
F         2.65809836182651   -0.61117154425495    5.04863869666890
C         1.42457227037960    1.03501233722714    4.78849957248258
F         0.62223011468481    0.45207589682711    5.67468926529602
F         2.65809836182651    0.61117154425495    5.04863869666891
F         1.40265511061956    2.33913928186680    5.04863905501621
C         4.58877084110522   -2.05459160147071    0.86730597290559
F         4.59709252483521   -2.78118520641283    1.98125951001435
F         4.97417519512416   -2.85850196315549   -0.11965482382298
F         5.53562669678859   -1.13053295630600    1.00324569798425
C         4.58877084110522    2.05459160147071    0.86730597290559
F         4.59709252483521    2.78118520641283    1.98125951001435
F         4.97417519512416    2.85850196315549   -0.11965482382298
F         5.53562669678859    1.13053295630600    1.00324569798425
C        -2.50473491433418    4.35941144902977    0.86730593917895
F        -2.08438487052912    4.95213043104453    1.98125838386969
F        -2.34400857369757    5.23632280881804   -0.11965581818547
F        -3.81390519137296    4.16837996597314    1.00324768478856
C         0.34440953624153    4.35941144868709    2.62817404748705
F        -0.83992598883967    4.95213069234126    2.75037577510431
F         1.15529636597892    5.23632261667420    2.04303359185445
F         0.80829780400759    4.16837989546168    3.85992670963205
C        -4.92005227074660   -1.03501232949151    0.86730592957069
F        -5.35386609588658   -0.45207588830481    1.98125865327758
F        -5.70437742108406   -0.61117153086585   -0.11965558739362
F        -5.14292645153878   -2.33913927311179    1.00324714649869
C        -3.49548004549360    0.00000000000000    3.71645041414084
F        -4.73163621497510    0.00000000000000    3.22571838476757
F        -3.39327517264965   -1.06794314680471    4.50254938956302
F        -3.39327517264965    1.06794314680471    4.50254938956303
C         0.34440953624153   -4.35941144868709    2.62817404748705
F        -0.83992598883967   -4.95213069234126    2.75037577510431
F         1.15529636597892   -5.23632261667420    2.04303359185445
F         0.80829780400759   -4.16837989546168    3.85992670963205
C        -0.34440953624153   -4.35941144868709   -2.62817404748705
F         0.83992598883967   -4.95213069234126   -2.75037577510431
F        -0.80829780400759   -4.16837989546168   -3.85992670963205
F        -1.15529636597892   -5.23632261667420   -2.04303359185445
C         2.84103082519036   -3.32439911178427   -2.62817407941587
F         2.23127406184888   -4.50005340761388   -2.75037746012495
F         3.10404037880944   -2.89718378306489   -3.85992609894426
F         4.01248672303643   -3.55720929213529   -2.04303264409737
C         4.03961820246674   -1.67468514775899   -2.62817407948106
F         4.96930660042401   -0.73147479244129   -2.75037763231445
F         3.71458666614023   -2.05683907990836   -3.85992603200072
F         4.62303373288714   -2.71686348978891   -2.04303253910981
C         4.03961820246674    1.67468514775899   -2.62817407948106
F         4.96930660042402    0.73147479244129   -2.75037763231441
F         3.71458666614022    2.05683907990832   -3.85992603200073
F         4.62303373288711    2.71686348978894   -2.04303253910982
C         4.92005227074660   -1.03501232949151   -0.86730592957069
F         5.35386609588658   -0.45207588830481   -1.98125865327758
F         5.14292645153878   -2.33913927311179   -1.00324714649869
F         5.70437742108406   -0.61117153086585    0.11965558739362
C        -0.34440953624153    4.35941144868709   -2.62817404748705
F         0.83992598883967    4.95213069234126   -2.75037577510431
F        -0.80829780400759    4.16837989546168   -3.85992670963205
F        -1.15529636597892    5.23632261667420   -2.04303359185445
C         2.50473491433418    4.35941144902977   -0.86730593917895
F         2.08438487052912    4.95213043104453   -1.98125838386969
F         3.81390519137296    4.16837996597314   -1.00324768478856
F         2.34400857369757    5.23632280881804    0.11965581818547
C        -4.25247495652193    1.01957928511255   -2.62817407757680
F        -4.45020405360863    2.32910962270744   -2.75037677428969
F        -4.21414295278388    0.51936236815955   -3.85992636334025
F        -5.33704498641440    0.51936149478958   -2.04303305824604
C        -4.58877084110522    2.05459160147071   -0.86730597290559
F        -4.59709252483521    2.78118520641283   -1.98125951001435
F        -5.53562669678859    1.13053295630600   -1.00324569798425
F        -4.97417519512416    2.85850196315549    0.11965482382298
C        -3.37204091334889    3.72927672645244   -0.86730596148276
F        -4.06564647311728    3.51265957144659   -1.98125763710228
F        -2.78580317558591    4.91533944031226   -1.00324916143779
F        -4.25569947457670    3.84739838595791    0.11965645964809
C        -2.28376457660886   -3.72927671755932   -2.62817408867206
F        -3.59030321655004   -3.51265997057978   -2.75037870097715
F        -1.79618325340527   -3.84739782561575   -3.85992562899768
F        -2.14318168460923   -4.91533956626621   -2.04303190988614
C        -1.42457227037960    1.03501233722714   -4.78849957248258
F        -0.62223011468481    0.45207589682711   -5.67468926529602
F        -2.65809836182651    0.61117154425495   -5.04863869666891
F        -1.40265511061956    2.33913928186680   -5.04863905501621
C         0.54413818249354   -1.67468516033722   -4.78849957845317
F         0.23767107904745   -0.73147481112462   -5.67468925997942
F        -0.24013968171955   -2.71686350152345   -5.04863903502921
F         1.79120914301982   -2.05683909935453   -5.04863874564184
156
 energy: -500.726572596967 gnorm: 6.937918402853 xtb: 6.4.1 (a3dbbd7)
C        -1.22974587409209    0.00072254048356    3.31811411526261
C        -0.38242197345927   -1.17786968311454    3.31947604451595
C         1.00285259615511   -0.72836096424737    3.32033912820036
C         1.00012393579069    0.72861975223593    3.32368636119820
C        -0.38280950779106    1.17504616806435    3.33302922246638
C         2.34333429178722   -2.60185638864240    0.59748280256447
C         3.18908441479669   -1.42532425555964    0.59952626199116
C         2.96172052969634   -0.69859822616168    1.83184313969112
C         1.96391287941659   -1.42789597683919    2.59038334210896
C         1.58447849083949   -2.59769458330293    1.83126629224858
C         3.20137310771201    1.42785818420715    0.59712468313449
C         2.34081005281786    2.59906970447626    0.60109578548128
C         1.58496515416296    2.59788036486960    1.82912003771960
C         1.96450732561179    1.42690126271502    2.59146928505635
C         2.96003320504416    0.69830022422755    1.83328698790639
C        -0.36712243924708    3.48193782439186    0.59220026471574
C        -1.74150937007521    3.02741455663677    0.59897447912347
C        -1.98375101116472    2.30679866210867    1.83232886790033
C        -0.75259924498720    2.30719023260998    2.59431030869251
C         0.24975082019496    3.03768812600612    1.83193639064866
C        -3.42641216589845    0.72703146192444    0.59690964492243
C        -3.42829730390458   -0.72736327876052    0.59555781306309
C        -2.80618768999173   -1.17749785719145    1.83146592531090
C        -2.42447455294243    0.00004212759176    2.58423908035453
C        -2.80856761992689    1.17705312747249    1.83048908789608
C        -1.74784239556356   -3.03372636428044    0.59668595696253
C        -0.37058222678193   -3.48140794572239    0.59203027621550
C         0.25011402591263   -3.03775676358849    1.83115824934230
C        -0.75269498506255   -2.30665695113127    2.59183932149321
C        -1.98397171883612   -2.30833043641010    1.82948137121374
C        -0.24474388523543   -3.02856699048336   -1.82569494931272
C         0.75007951604840   -2.30929365390358   -2.59348935593924
C         1.97738519741726   -2.30657613723587   -1.82576809238133
C         1.74890906102528   -3.03525926792673   -0.59480245296649
C         0.36830107260927   -3.48255384498976   -0.59347823955265
C         2.79757109428718   -1.16770336651879   -1.82803344623400
C         2.42330316301540   -0.00121391519080   -2.59585074987672
C         2.81004485890216    1.17596774273987   -1.83167896529001
C         3.42505987724650    0.72504087965075   -0.59616838978666
C         3.41568108750030   -0.71929962991864   -0.59309954751884
C         1.98005708309633    2.30646698977638   -1.83390446058103
C         0.75253149674415    2.30363962128206   -2.59368321600266
C        -0.24931025312077    3.03747320091531   -1.83250723091905
C         0.36574164805771    3.48112816886165   -0.59245426488287
C         1.75116196858288    3.03806766562521   -0.59614759217701
C        -1.58392300424166    2.60054128957615   -1.83045487951290
C        -1.96537314109629    1.42708601931042   -2.59363420805637
C        -2.95584633762012    0.69612397534487   -1.83003770893951
C        -3.19287231028799    1.41930235303156   -0.58929148685085
C        -2.33450059831596    2.59349365829905   -0.59546344189539
C        -2.96253586409504   -0.70355040889657   -1.83091639588853
C        -1.96263304965931   -1.42381664990663   -2.59372842686356
C        -1.58266112509729   -2.59249545652147   -1.82675688948347
C        -2.34621145402859   -2.60051018404455   -0.59365624674125
C        -3.19579721643832   -1.42797183402421   -0.59886050071256
C        -1.00213290036316   -0.72795068706979   -3.33193557151810
C        -0.99921889459247    0.72660576642897   -3.33035106073813
C         0.38557997703608    1.17511984759720   -3.33042209026580
C         1.23499301598495    0.00411776959664   -3.33097989807695
C         0.38141371736910   -1.17499392835791   -3.33041884396505
C        -1.78385814672764    0.00249560579085    4.73234268733351
F        -0.79985467214398    0.04772198207480    5.72070982839982
F        -2.54303643890654   -1.02421321016403    5.08353222777633
F        -2.48770852855710    1.09693092086516    5.08286526550461
C        -0.54818747023352   -1.70215088931423    4.75359406846409
F        -0.26372748823780   -0.78551962183647    5.72294775710816
F        -1.74681333961580   -2.14267654182743    5.05306260345069
F         0.15818352871658   -2.74915147088293    5.05315259439638
C         1.44861197584978   -1.05460746491972    4.75328511512133
F         0.67657773898203   -0.47528085851204    5.71852426126612
F         1.48850737710070   -2.32023172389701    5.05160639574548
F         2.66564279078545   -0.69926951584636    5.05140612440875
C         1.44729758125145    1.04983905712013    4.76124505667056
F         0.63092541015927    0.51937198599546    5.70741438682853
F         2.66563980908075    0.70230824476577    5.05131274744838
F         1.40125291921857    2.34316771829985    5.05185718384352
C         4.56796754110453   -2.04932491778788    0.87445780860405
F         4.59973460768679   -2.78385891581596    1.98446360227824
F         4.97192868424298   -2.91361794006758   -0.07473268094793
F         5.54989559931505   -1.13069761771159    1.04346959092547
C         4.58647420528041    2.05765243278458    0.86776567604099
F         4.59832127241715    2.78210273344250    1.98271226643136
F         4.97888873724796    2.85686072891887   -0.11478981835179
F         5.53896964622129    1.13196213726344    1.00550228166713
C        -2.48705806217459    4.34857764679346    0.87118113451097
F        -2.11540333783497    4.95517730911160    1.96572032742843
F        -2.32035192446012    5.26951165956215   -0.10122465301415
F        -3.82266794368510    4.18354932791862    1.05350792637740
C         0.34793541446048    4.35849337304352    2.62736626354221
F        -0.81266010649760    4.95515088968619    2.77089712472927
F         1.15550093326056    5.23795507998626    2.04381462728466
F         0.80901632432908    4.16922602237611    3.86215893566744
C        -4.91902248458679   -1.03696978764934    0.86491294353232
F        -5.37244321263647   -0.46179369450372    1.95411366682886
F        -5.70723771830827   -0.61450405622631   -0.11961468160164
F        -5.14409475635300   -2.34107990277140    1.00361645394263
C        -3.49094084293796   -0.00129646018580    3.69445795371822
F        -4.72153212793291    0.01137358434042    3.25676846924303
F        -3.43808112343200   -1.08333749044637    4.49231045934770
F        -3.43338142876329    1.10077056338708    4.49664481977360
C         0.34426810879499   -4.35925661137580    2.62700619594617
F        -0.84118064291440   -4.95398646086248    2.75137741542123
F         1.15631991497984   -5.23822609414336    2.04287339235188
F         0.81008800598845   -4.17231650340122    3.85988790633583
C        -0.33592694650854   -4.34568252544409   -2.61561450802092
F         0.80884465784679   -4.96749479468979   -2.75249435677200
F        -0.78155612906712   -4.17972671119436   -3.88685704863104
F        -1.13391609740366   -5.26834712007281   -2.02974843944026
C         2.82504164660464   -3.31672317307348   -2.61557850568865
F         2.26456483765762   -4.49671795879306   -2.75313013955504
F         3.08620619237589   -2.92497666747041   -3.88727087102372
F         3.99048787202331   -3.62521749772014   -2.03252576309382
C         4.00914112874601   -1.66740812835873   -2.60474875233485
F         4.97026715656301   -0.74780711023654   -2.80988808473319
F         3.73199003060875   -2.03085480332378   -3.89443210210627
F         4.64928946795790   -2.72682261386290   -2.11303165797967
C         4.03498194651450    1.68104978530542   -2.62792935517762
F         4.96956918142729    0.76989372927910   -2.76730866976120
F         3.71482272241817    2.05751398406936   -3.86218469744705
F         4.62535459825333    2.71523518828409   -2.04899875631751
C         4.88197936392152   -1.03610463787674   -0.85952275353334
F         5.40257830448507   -0.43277207478995   -1.94510082273002
F         5.21146610360743   -2.31627524830894   -0.98297237919593
F         5.73423663896009   -0.58075061290793    0.10878395308328
C        -0.34271443994840    4.35736511080589   -2.62981855838702
F         0.81079562924280    4.95446812139962   -2.77050859600853
F        -0.81031541205838    4.16959724200459   -3.86172428876305
F        -1.15526822110757    5.24018151177104   -2.04420283170300
C         2.50586050267504    4.35899983313374   -0.86578036692177
F         2.11497711431405    4.95461979973899   -1.96485081912920
F         3.81249453904638    4.17412762934674   -1.00273207409754
F         2.34450800986928    5.23811229815852    0.12010938638046
C        -4.24629415700428    0.99373733549331   -2.62624167385705
F        -4.45152949830540    2.30604659707569   -2.82290522612170
F        -4.21772574769899    0.51850338662213   -3.86175379285990
F        -5.32922562499532    0.47200956303037   -2.11900523820527
C        -4.57982615243497    2.03756402915892   -0.84658645889056
F        -4.65296918697878    2.78214578509974   -1.95930987602815
F        -5.55675908178448    1.17512332429587   -0.93046173492763
F        -5.03918007681141    2.78676419529584    0.13088281665284
C        -3.33988770065466    3.71036525572034   -0.82133018135656
F        -4.05360053177766    3.58161353537185   -2.02798950329505
F        -2.79412872078440    4.93008063377307   -1.04696161577225
F        -4.24384715140205    3.91372709530672    0.09901456369917
C        -2.28404942926880   -3.70964157651547   -2.61768188986316
F        -3.59302333185589   -3.51461482788000   -2.75185962336878
F        -1.82439436554492   -3.83713669854398   -3.88812116640658
F        -2.18096700134213   -4.93048923312886   -2.02870861743346
C        -1.42412057071325    1.03607708739215   -4.78744190324163
F        -0.64214987273893    0.48040069903500   -5.67813656968077
F        -2.65773380832060    0.61109904543183   -5.05236276829855
F        -1.40415424300059    2.34111714123759   -5.04998364549697
C         0.54357307223691   -1.67233788909119   -4.78785155697995
F         0.25874974179763   -0.75977730007964   -5.67781404734620
F        -0.24057122498573   -2.71776144458088   -5.05264681624724
F         1.79285641634189   -2.05781905684483   -5.05269787322124
156
 energy: -506.899959112313 gnorm: 5.947291194673 xtb: 6.4.1 (a3dbbd7)
C        -1.22599283187230    0.00348116254217    3.31515474000882
C        -0.38290243998377   -1.18031230870373    3.31361547063642
C         1.00530141077218   -0.72997328734995    3.31663996180312
C         0.99979858254673    0.73139750643208    3.32368750007886
C        -0.38364002982465    1.17510743812664    3.33387815109680
C         2.33988901748487   -2.60182770964340    0.60013134249585
C         3.18731027859731   -1.42837616383553    0.60537878657010
C         2.95992614661566   -0.69646023075273    1.83362756642470
C         1.96581799928499   -1.43011860164722    2.58720544612139
C         1.58934728145652   -2.59401032821794    1.82847805199356
C         3.20551235674176    1.43076006121857    0.60018618334681
C         2.33663658053606    2.59728163667847    0.60767747771315
C         1.59036003377441    2.59258510059043    1.82393807476211
C         1.96809906212253    1.42848660756192    2.58675178668239
C         2.95614374561886    0.69650294709525    1.83534294797791
C        -0.36574831699144    3.47987080414397    0.58867889858449
C        -1.73608362718397    3.02665359225726    0.60462914845293
C        -1.98056765084048    2.30426887770608    1.83482195539568
C        -0.75617972674422    2.30703227659360    2.59202995033634
C         0.24899283609762    3.04347110428635    1.83609507579539
C        -3.42594848758436    0.72812895043767    0.59831287951607
C        -3.43413970114615   -0.72813377280620    0.59736703920543
C        -2.80395220264574   -1.17977510641917    1.83182331704211
C        -2.42683518225447   -0.00040518500584    2.57648265609884
C        -2.80840714500718    1.17834307080511    1.82954862745699
C        -1.74618479805062   -3.03411869420789    0.59873535647400
C        -0.37368781444583   -3.47967985140712    0.58896802242817
C         0.24943966452400   -3.04347655855272    1.83412133466491
C        -0.75594865851124   -2.30753518639887    2.58966475711165
C        -1.98223208117900   -2.30767375795491    1.82710501047602
C        -0.23976180857570   -3.02900304995665   -1.82447156336733
C         0.75046457104728   -2.31134498553937   -2.59153792717345
C         1.97254316907372   -2.31086543505139   -1.82415900478448
C         1.74769102755581   -3.03674340333764   -0.59373339864296
C         0.36915935116103   -3.48191035711125   -0.59094658640114
C         2.79579527634077   -1.16341333893599   -1.82966388153870
C         2.42095490531374   -0.00208776408818   -2.59761971573809
C         2.81439679648223    1.17680494377632   -1.83441688918584
C         3.42485374142875    0.72217175189305   -0.59757273621972
C         3.41245668815331   -0.71335144907750   -0.59304371537775
C         1.97247097256091    2.30674632719023   -1.83592625544704
C         0.75700029260725    2.29975945981868   -2.59119734624815
C        -0.24784923253279    3.04259192402827   -1.83534485018487
C         0.36351288339800    3.47950811576200   -0.58882616354249
C         1.75326032925711    3.04374910948343   -0.59811829574739
C        -1.58717762645288    2.59863012983730   -1.82990747927361
C        -1.96716333219117    1.42860940031552   -2.59164701079373
C        -2.95365367496168    0.69523431374975   -1.83309260435988
C        -3.19100821578092    1.41532153205760   -0.58469902293275
C        -2.33004971977528    2.59105921239236   -0.59873468242469
C        -2.96153933081489   -0.70901787511562   -1.82942435003296
C        -1.96253018265039   -1.42064395258175   -2.59268439845029
C        -1.58803214702963   -2.59060081505326   -1.82592248309089
C        -2.34861035915158   -2.59772031754286   -0.59213932208008
C        -3.19109286051304   -1.43028967321305   -0.60389998550976
C        -1.00386196014658   -0.72940021439448   -3.32893841010726
C        -0.99951709947053    0.72695368058748   -3.33718051776463
C         0.38979878630245    1.17316478804477   -3.32833636229734
C         1.23313908387956    0.00886205155011   -3.32759515655481
C         0.38122413150524   -1.17502014553272   -3.33593898325921
C        -1.80933022919650   -0.00893517519747    4.68097012929383
F        -0.82822439110248    0.11701803182476    5.76888209032513
F        -2.54505085326409   -0.97717694126802    5.12231542259928
F        -2.42215921825398    1.10964664475961    5.13441594305184
C        -0.55069073700684   -1.72311735948625    4.72161065304937
F        -0.34596725345504   -0.86867529002390    5.75844664363801
F        -1.71630820789730   -2.19578639026178    5.05470410185961
F         0.10439311659182   -2.76845846768506    5.05786978585305
C         1.46604350377513   -1.06991390793071    4.72431866961972
F         0.79760321377068   -0.50718889249838    5.75010175767966
F         1.54346427050553   -2.30659913804716    5.05367226047078
F         2.66856791531080   -0.75393252386043    5.05348994298349
C         1.46648051881763    1.05978254846506    4.73727527107551
F         0.62660428779666    0.60706922577749    5.73240916038159
F         2.66959748892289    0.75847822683979    5.05370639632263
F         1.39979236720395    2.34426525002217    5.05450462297299
C         4.55153978662655   -2.04814807417241    0.87774249617480
F         4.60211087146152   -2.78594940310389    1.98719160793866
F         4.95150714690699   -2.98465661453051   -0.00198340970424
F         5.55345682509621   -1.14902814909844    1.09991075615795
C         4.58443661565447    2.06067261075534    0.86832457385661
F         4.59931778517751    2.78275226764316    1.98390075716042
F         4.98322527295983    2.85466946293215   -0.10949011510851
F         5.54127304211218    1.13405873679668    1.00797951730358
C        -2.46530959950888    4.33876432973204    0.87009588136833
F        -2.14421205627942    4.95816746133428    1.95204097084986
F        -2.28381133214501    5.30708333286288   -0.05373581417936
F        -3.83295788076113    4.19447487857637    1.11906318948881
C         0.35014528567737    4.35842679961487    2.62681318490378
F        -0.78848076377263    4.95711813992567    2.78833259396696
F         1.15562391946675    5.23916732129111    2.04448925015938
F         0.80953613286715    4.16996188892076    3.86384448931467
C        -4.91838521255466   -1.03826643650853    0.86385625857119
F        -5.38776945097512   -0.47038292957561    1.92991987953096
F        -5.70954280815060   -0.61806885823707   -0.11937920682831
F        -5.14497718187099   -2.34271926467538    1.00395338098544
C        -3.48464027070989   -0.00158553240415    3.67480752929688
F        -4.71249639729723    0.02133047471130    3.28532850216125
F        -3.48656509163283   -1.11137253516324    4.47437038764853
F        -3.50752445259275    1.12342052133688    4.46602448626432
C         0.34420966812575   -4.35963301852444    2.62622393790882
F        -0.84230641060558   -4.95535988362431    2.75211850641076
F         1.15708086694867   -5.23973241974926    2.04263839563442
F         0.81204835819342   -4.17607594874622    3.85909497291182
C        -0.32538761225952   -4.33704280352485   -2.60620469619756
F         0.78186128402111   -4.98122552603264   -2.75450516865126
F        -0.72276387126396   -4.20401849235203   -3.89956759107592
F        -1.07135081665587   -5.30113463845459   -2.02415172805440
C         2.81392587024770   -3.31340638083652   -2.60409538737950
F         2.29422815823687   -4.49212789775894   -2.75558442714018
F         3.05507080659215   -2.97496174049098   -3.90323374710384
F         3.93863261823073   -3.71654412637194   -2.01369659448226
C         3.98571996593682   -1.67082802822187   -2.56404416494002
F         4.97496515557201   -0.76417641820385   -2.86011991735773
F         3.76801835918448   -1.98512623144725   -3.92721399747452
F         4.68956985756842   -2.67872190467676   -2.19075761302313
C         4.03142880976365    1.68652683841240   -2.62742535065145
F         4.96822800472364    0.80664773856700   -2.78019054205311
F         3.71496072237650    2.05793570781577   -3.86420337939720
F         4.62752456240487    2.71312730837419   -2.05502701761496
C         4.83898761271768   -1.05518999885548   -0.85924883495022
F         5.44749700187841   -0.41914581567466   -1.91872576299820
F         5.27777881954516   -2.24733883096042   -0.99727200122322
F         5.76918076615501   -0.54256745326652    0.07279568899808
C        -0.34010629042691    4.35612921187327   -2.63113919355890
F         0.78525749884730    4.95615500976371   -2.78773563913898
F        -0.81164154446377    4.17066619990270   -3.86284335912248
F        -1.15407759952434    5.24333836914552   -2.04547760939815
C         2.50647307520759    4.35921263259376   -0.86541424844937
F         2.14147263149630    4.95636315216680   -1.95025653737148
F         3.81041045929420    4.17989753616897   -1.00227542788603
F         2.34496361466626    5.23937996586291    0.12036686497043