64
 energy: -146.697455936696 gnorm: 0.050210452708 xtb: 6.4.1 (a3dbbd7)
C        -1.30723941132133    0.02272209628469    3.57305457651955
C        -0.37771710690350   -1.13798095716022    3.25354865915468
C         0.90376424139476   -0.72199579423317    3.18336456771388
C         0.94420973852853    0.72673171659442    3.22441717551178
C        -0.39979274715001    1.18709344387297    3.28581541663476
C         2.28732559456001   -2.54599226355511    0.56771550307771
C         3.14671977715791   -1.39926565741663    0.56567205525007
C         2.93353837613792   -0.70393255897451    1.79583938262687
C         2.08068882414582   -1.52071142286205    2.72538836311942
C         1.55617646316415   -2.58618948267287    1.79618340405412
C         3.15920292652780    1.38510882817364    0.56100149614409
C         2.31598040655842    2.55148556377588    0.56689051479740
C         1.55403791596029    2.56276247010113    1.78440973688125
C         1.91293225945199    1.40622893841001    2.53243964787142
C         2.92536388157760    0.66262581582967    1.78435482665572
C        -0.37132210419859    3.42595961792521    0.56859670204530
C        -1.73643911396642    2.97822884574716    0.56013901605326
C        -1.99043502102326    2.28093480570700    1.78824988416661
C        -0.75234592380989    2.29165211035916    2.56655008364542
C         0.23256106312246    2.98498165088316    1.79331426417188
C        -3.33998733535327    0.72081007623591    0.57086967587833
C        -3.30192204907473   -0.70236868047833    0.57467558852590
C        -2.72040616613329   -1.14971855356059    1.81148655837390
C        -2.63801924212357    0.01875300054864    2.76844041979465
C        -2.78191984641488    1.17200910904135    1.81029926233395
C        -1.69477048338841   -2.93547036822059    0.57427385929048
C        -0.34221218524748   -3.38435966865962    0.57608967732105
C         0.26185382490653   -2.98665541242325    1.81423796341041
C        -0.79870399483102   -2.47362982407275    2.76039479061611
C        -1.94929671387355   -2.25937151464706    1.81323533944056
C        -0.23149914484785   -2.96962169518135   -1.85245994223113
C         0.75228040975878   -2.26335570319005   -2.62678287640613
C         1.96363865371614   -2.26081211053176   -1.85300578099250
C         1.71998516978361   -2.95785888005690   -0.62232191517337
C         0.36352091056131   -3.38742815174399   -0.61260898805762
C         2.78350344541188   -1.14867750146099   -1.84897904653771
C         2.41145827006827    0.01105274494162   -2.62136041134364
C         2.78531286334937    1.16539994838001   -1.85232278648691
C         3.38805619894990    0.71871517653926   -0.62580636397682
C         3.37460046508885   -0.71106153787631   -0.61743407802082
C         1.96854627526599    2.28266637280752   -1.84330731223107
C         0.75112791784470    2.28761101466281   -2.60218755616514
C        -0.23774751334365    2.99873226220336   -1.84295072067058
C         0.36051063362293    3.42480030667834   -0.60760270851604
C         1.72951089499945    2.97993656265204   -0.60964509121219
C        -1.55415180836176    2.57528667280718   -1.85323403834375
C        -1.92974055095101    1.42169337935542   -2.62201673209733
C        -2.91176504975271    0.70479792283818   -1.84684470364069
C        -3.13231075618674    1.40782493800027   -0.61540535764112
C        -2.30698101257576    2.57199309975407   -0.62882737184249
C        -2.90146493360271   -0.67662142369417   -1.84765160869630
C        -1.92741370101346   -1.39265135871632   -2.62811095685268
C        -1.54414646313602   -2.54190211358895   -1.85272812263325
C        -2.26868859004275   -2.52841606974361   -0.61452142921135
C        -3.10659369598660   -1.37740510618278   -0.61271637835353
C        -0.97796725245913   -0.70602221742655   -3.36184132986412
C        -0.97912715315170    0.73425497917107   -3.35502337346028
C         0.39025492664779    1.17626126658154   -3.34874424698322
C         1.23750342732182    0.01369852106387   -3.35295966651903
C         0.38916764830419   -1.15013037738659   -3.36170177791902
Cl       -1.61232607093695   -0.03900774518977    5.36392290958090
Cl       -4.09365391334218   -0.03781922634065    3.83992742474238
Cl        2.97809914951692   -2.18889343674828    4.14577369020574
Cl       -1.17640303359947   -3.58780937507616    4.12953112813782
64
 energy: -146.702496623098 gnorm: 0.021336462160 xtb: 6.4.1 (a3dbbd7)
C        -1.30145925061519    0.01578075235386    3.55865011971078
C        -0.36703817848165   -1.14276442936323    3.24858457537789
C         0.91335912765153   -0.71965544964254    3.19944905026908
C         0.95077573488760    0.73220743018834    3.22977246622079
C        -0.39540805352205    1.19006693741005    3.27888395743087
C         2.30024193953860   -2.55884842654538    0.56962172221561
C         3.15318462957809   -1.39925017418986    0.57215601785779
C         2.94245201398164   -0.69608156579028    1.79782675740831
C         2.07939484013117   -1.52187675495767    2.72141275308758
C         1.56361340641801   -2.59947741206985    1.79457051814870
C         3.16494631048612    1.40096038252720    0.56888534685456
C         2.32325113427788    2.57216274345085    0.57159207785955
C         1.56464185346286    2.58075143158618    1.79462297027596
C         1.92608255442562    1.42146751166698    2.54403287947830
C         2.92996662513417    0.67626080884327    1.78798773982213
C        -0.36784871813953    3.44481871622627    0.57029101177118
C        -1.73844633753828    3.00079180207741    0.56423470279654
C        -1.98992270875245    2.29537500234757    1.78959599970192
C        -0.74911903075444    2.30381306305393    2.56402962394397
C         0.23806172827540    3.00695210118260    1.79860962998882
C        -3.35352618213858    0.72777690900230    0.56904267879328
C        -3.32730431622356   -0.70497496945611    0.57024170347533
C        -2.73601691685404   -1.15282140448682    1.79790484502280
C        -2.63516264771778    0.01622112339771    2.75388296941264
C        -2.78520346972511    1.18138255171711    1.80157576442117
C        -1.70745398281451   -2.95705649666075    0.57034283767839
C        -0.34616920928555   -3.41006318519370    0.57211160200539
C         0.26407817203268   -3.01325995115694    1.80641655995345
C        -0.79719563749726   -2.47622647317114    2.74658499785359
C        -1.95883746812667   -2.26897514041607    1.80231156947343
C        -0.23693785216323   -2.99276332569295   -1.85248719912756
C         0.75269834024191   -2.27805184561766   -2.61620989276703
C         1.97372581249611   -2.27613841378478   -1.85057353765640
C         1.73037205546324   -2.98360284129303   -0.62215366936257
C         0.36862809699386   -3.42015924458089   -0.61796617019579
C         2.79083264199654   -1.15611334783921   -1.84539582484033
C         2.41540346999433    0.00878786114024   -2.60932651880917
C         2.79258582883063    1.17028826237744   -1.84565858557891
C         3.39823428350477    0.72258773013980   -0.61855368211062
C         3.38908885153989   -0.71166856667063   -0.61426243175309
C         1.97308188147470    2.29086518146942   -1.83898816756416
C         0.75110841249026    2.29381237037137   -2.59821197391182
C        -0.24040792451035    3.01143823226763   -1.84098944663972
C         0.36432385123276    3.44579417370499   -0.60829107116753
C         1.73565719574366    3.00059265604714   -0.60829683752204
C        -1.56184933674635    2.58797705292506   -1.85068370254541
C        -1.93787624708998    1.42510154313123   -2.61316724552139
C        -2.92660083442344    0.70504652529321   -1.84886240567983
C        -3.15000415125665    1.41940383947138   -0.61938795116018
C        -2.31843658256908    2.58637349663471   -0.62611889789299
C        -2.92163152687821   -0.68130489552787   -1.85007489995454
C        -1.93731268772839   -1.40316241017376   -2.61772956627806
C        -1.55522561146491   -2.56308037121094   -1.85322526716907
C        -2.29241673757943   -2.54916840667836   -0.61876793984105
C        -3.13233317465788   -1.39104741814144   -0.61771411386983
C        -0.98223083369946   -0.71087503936838   -3.34890549582543
C        -0.98265651583834    0.73190140553449   -3.34382484935117
C         0.38830992156033    1.17534899251341   -3.33940522409296
C         1.23600418034171    0.01023991320853   -3.34135563308289
C         0.38773175738477   -1.15652259299941   -3.34834105504898
Cl       -1.57386453448210   -0.03466615233343    5.35205080281546
Cl       -4.10176130940997   -0.01862076160503    3.81046704422569
Cl        2.99325725996278   -2.17970283838405    4.13398486827718
Cl       -1.18051347754675   -3.60469112940488    4.10220198435995
64
 energy: -146.703003241196 gnorm: 0.008187524568 xtb: 6.4.1 (a3dbbd7)
C        -1.29841688171361    0.01246176575232    3.54497900700981
C        -0.36196016681533   -1.14497551784904    3.24169162939025
C         0.91800128229048   -0.71826744758883    3.20684626004777
C         0.95305422771791    0.73442549578738    3.23060669908260
C        -0.39235790133220    1.19182222084664    3.27142777444646
C         2.30570229646423   -2.56407494238324    0.57098643443818
C         3.15407236581751   -1.39827014918602    0.57495947663203
C         2.94479753055610   -0.69199806182592    1.79639880471558
C         2.07880059165946   -1.52190406925695    2.72118443125444
C         1.56570827471663   -2.60047743162110    1.79252246670508
C         3.16690599786306    1.40825452153585    0.57269541531025
C         2.32590069881077    2.58144428905754    0.57396645276730
C         1.56954809322841    2.58902571067532    1.80018306756385
C         1.93256053126591    1.42902967026779    2.54985991547908
C         2.93003439769939    0.68269344786989    1.78835764392622
C        -0.36657083561135    3.45452836283570    0.57018720679442
C        -1.73936208882497    3.01205968471408    0.56509342859630
C        -1.98741039559128    2.30114643523789    1.78803205502271
C        -0.74684050452676    2.31005069685903    2.56055525576040
C         0.24068028112304    3.01854946611140    1.80028755210901
C        -3.35841286548740    0.73016241410733    0.56801851646757
C        -3.33946729013077   -0.70758061654753    0.56873028851493
C        -2.74217958535475   -1.15443499804266    1.78971599359227
C        -2.62760373946693    0.01415931022817    2.74424978902023
C        -2.78257526337009    1.18446559497507    1.79321941171292
C        -1.71277218359456   -2.96698330915609    0.56855985927919
C        -0.34758048055955   -3.42192036439624    0.57011471198472
C         0.26445616917985   -3.02186170652867    1.79928293135659
C        -0.79621565696076   -2.47590318565645    2.73917227548829
C        -1.96100366095112   -2.27225820938896    1.79484858941289
C        -0.23924836632117   -3.00256480135685   -1.85119056654970
C         0.75231470205424   -2.28396085338290   -2.60938274460779
C         1.97743846595213   -2.28261704555583   -1.84773974514863
C         1.73516379111516   -2.99739116363470   -0.62104640781804
C         0.37209306173513   -3.43786556748697   -0.62045998671717
C         2.79191212892040   -1.15904633884981   -1.84290292468376
C         2.41609572727614    0.00763069143865   -2.60181486795347
C         2.79470013765425    1.17215605720342   -1.84069829302264
C         3.40273480482384    0.72325607827706   -0.61443104932264
C         3.39615145650149   -0.71191001818842   -0.61294699291968
C         1.97470119288514    2.29384883783580   -1.83525583343741
C         0.75083225138306    2.29582224656542   -2.59441668792758
C        -0.24205776453082    3.01656381288233   -1.83908317359710
C         0.36598803269368    3.45712559621813   -0.60900123997109
C         1.73823781630469    3.01064596375382   -0.60710959299949
C        -1.56508809238245    2.59268426213216   -1.84840978943884
C        -1.94089950312235    1.42561227624645   -2.60776173679439
C        -2.93133429093416    0.70375846377646   -1.84931054035594
C        -3.15890633273272    1.42451483443107   -0.62158890977672
C        -2.32458093165220    2.59186248062555   -0.62476966881839
C        -2.92960710237092   -0.68407365021403   -1.85015312355434
C        -1.94040604902317   -1.40811137275081   -2.61120948175361
C        -1.55949202369884   -2.57231342027352   -1.85231076247687
C        -2.30509483767892   -2.55996210171530   -0.62044242537528
C        -3.14526480500787   -1.39958705319983   -0.61962039551810
C        -0.98326982114255   -0.71253223241570   -3.34022863706123
C        -0.98341929450509    0.73022602318669   -3.33627855712662
C         0.38742036944221    1.17430555902172   -3.33180180172850
C         1.23482807606865    0.00875321735133   -3.33355456418240
C         0.38728780314926   -1.15847165136577   -3.33913195329713
Cl       -1.60499109420989   -0.03089670451026    5.32921986165359
Cl       -4.07150326739676   -0.00331449521954    3.83128512889744
Cl        3.01122023570163   -2.18192463509768    4.12115205076375
Cl       -1.18652724975008   -3.61591530430715    4.08466296040595
64
 energy: -146.703140405250 gnorm: 0.004307874540 xtb: 6.4.1 (a3dbbd7)
C        -1.29885732119837    0.01155088455050    3.54697754503800
C        -0.36178950388918   -1.14438862447589    3.23855510026547
C         0.91843605857899   -0.71791440767736    3.20765770441453
C         0.95259765349347    0.73408618732370    3.22935576772793
C        -0.39175546176995    1.19059822599230    3.26794851474083
C         2.30595676308596   -2.56459823152605    0.57208937168589
C         3.15302763419884   -1.39758992063679    0.57573064067115
C         2.94453622302038   -0.69091144806352    1.79508162769632
C         2.07809150921274   -1.52154878737546    2.72160020438153
C         1.56513657614742   -2.59866213146676    1.79228715937447
C         3.16666010260518    1.40968585792330    0.57366469602041
C         2.32546462328855    2.58290617115642    0.57482938186883
C         1.56961713360936    2.59007380230356    1.80188584891818
C         1.93345859005998    1.43035774560845    2.55093966475567
C         2.92912325324167    0.68407043606954    1.78800115321820
C        -0.36721684553067    3.45617099398825    0.57048320024796
C        -1.74001687214329    3.01366630139379    0.56555457266429
C        -1.98673232608401    2.30098022957812    1.78781689222258
C        -0.74701058168870    2.31039597102243    2.55977474330434
C         0.24020926254507    3.02044752491800    1.80089925957669
C        -3.35813045852928    0.73003426582879    0.56745181508254
C        -3.34141110201263   -0.70847694211976    0.56867990518325
C        -2.74316305939314   -1.15324092327699    1.78791558850297
C        -2.62940514877750    0.01343123646622    2.74515124120006
C        -2.78003843817340    1.18297947304703    1.78951454799797
C        -1.71385384662615   -2.96764904639284    0.56926134600629
C        -0.34808192359513   -3.42327266357610    0.57058136551898
C         0.26369685344491   -3.02154812222242    1.79714659016674
C        -0.79654913866646   -2.47393730268332    2.73807619094920
C        -1.96107470312317   -2.27125870201320    1.79335244119929
C        -0.23972664941115   -3.00368754009612   -1.84982470487095
C         0.75179983146902   -2.28442208314273   -2.60669959537622
C         1.97748578409032   -2.28335970178762   -1.84584244032944
C         1.73552203605152   -3.00064869367235   -0.61970795104592
C         0.37289429534468   -3.44190412232862   -0.62016981277513
C         2.79084551719271   -1.15929459003303   -1.84175588677727
C         2.41555420113771    0.00736206994682   -2.59919590737415
C         2.79426656388236    1.17238176997205   -1.83856555663789
C         3.40331753051963    0.72280577511744   -0.61305063884523
C         3.39767838616268   -0.71184437584712   -0.61245260785223
C         1.97445889798597    2.29395539527892   -1.83327803751947
C         0.75042309086392    2.29572110123851   -2.59246035234168
C        -0.24282156831657    3.01701376739045   -1.83782055617490
C         0.36563176885962    3.45964628739006   -0.60863206753638
C         1.73808677328624    3.01263125776516   -0.60615401370103
C        -1.56564125248949    2.59288752981601   -1.84718616021013
C        -1.94108559589377    1.42520651006359   -2.60622708284878
C        -2.93118199153041    0.70284669030845   -1.84952102420614
C        -3.16085998538224    1.42524896201334   -0.62236251871909
C        -2.32622868174284    2.59187368595453   -0.62409471251068
C        -2.93038789489797   -0.68476720563185   -1.84983145814742
C        -1.94006551947995   -1.40901576622163   -2.60904939658080
C        -1.55985894448062   -2.57355125138763   -1.85123250017034
C        -2.30834710715081   -2.56204053647383   -0.62009397810443
C        -3.14787457361416   -1.40200329136640   -0.61974253459026
C        -0.98294107550896   -0.71250663659737   -3.33740631706168
C        -0.98310045303245    0.72963654995590   -3.33389441588053
C         0.38725503843670    1.17388126862713   -3.32878255494989
C         1.23435479815509    0.00855718949003   -3.33087458595074
C         0.38735861776945   -1.15829410924873   -3.33584896880147
Cl       -1.56183601384803   -0.03087670696335    5.33805389938700
Cl       -4.09824424553489    0.00351676594285    3.79985169555142
Cl        3.01940118907058   -2.18541335804236    4.11451220005494
Cl       -1.19013580799292   -3.61830359223981    4.08007735396392
64
 energy: -146.703212588124 gnorm: 0.001960693856 xtb: 6.4.1 (a3dbbd7)
C        -1.29935980538924    0.01219762002034    3.54699502788573
C        -0.36251805521203   -1.14474979880688    3.24040638608631
C         0.91777630870432   -0.71855752557979    3.20697613198269
C         0.95184973419886    0.73344349178933    3.22924619576060
C        -0.39211660034136    1.19071932991692    3.26934161312046
C         2.30459794924140   -2.56329746203720    0.57197669389726
C         3.15256890780717   -1.39760981723965    0.57516958671126
C         2.94399983219534   -0.69169935824473    1.79510511109715
C         2.07813388083650   -1.52163321557202    2.72169717158348
C         1.56489372713904   -2.59859706784983    1.79301136711430
C         3.16607953702719    1.40797982172014    0.57277502177447
C         2.32470597144916    2.58064328971280    0.57417685448984
C         1.56836703350953    2.58802706057763    1.80062198949388
C         1.93187706247630    1.42867571120196    2.54963413874355
C         2.92901416434478    0.68274816956785    1.78792525798226
C        -0.36751043778249    3.45411998391341    0.57017907014060
C        -1.73974319566498    3.01137957662661    0.56502204922057
C        -1.98727745881264    2.30027785139637    1.78799903150564
C        -0.74742791342463    2.30943785874788    2.56029755555268
C         0.23962457772103    3.01807547403597    1.80023285190913
C        -3.35696246683442    0.72957129157532    0.56774604215677
C        -3.33882643602215   -0.70812615922623    0.56941744961644
C        -2.74245571265771   -1.15362368337748    1.78997034156759
C        -2.62888000033356    0.01400254797849    2.74578975863555
C        -2.78053912867563    1.18294668459272    1.79060476822990
C        -1.71246095772292   -2.96529205991831    0.56974204723481
C        -0.34749969412646   -3.42039759780172    0.57104236062776
C         0.26393211100716   -3.01995916827378    1.79843569706877
C        -0.79640370476375   -2.47399424199667    2.73947848935200
C        -1.96040905004244   -2.27082287640478    1.79485919154528
C        -0.23913888968835   -3.00112621675877   -1.85006151003844
C         0.75183003716164   -2.28274553015925   -2.60805924635885
C         1.97661593245042   -2.28163660342032   -1.84629328174888
C         1.73431866853944   -2.99753088386322   -0.61976420560451
C         0.37238434244417   -3.43794279436569   -0.61965722882601
C         2.79041496255694   -1.15851456068309   -1.84234285496204
C         2.41527214039783    0.00756965975563   -2.60080449314804
C         2.79366701260721    1.17188460322032   -1.83957841143040
C         3.40226919193909    0.72242131700860   -0.61393468258125
C         3.39630319444226   -0.71169504137713   -0.61273182615593
C         1.97404643408451    2.29304606364120   -1.83404246700009
C         0.75047824997091    2.29504302144233   -2.59333390263342
C        -0.24245873519608    3.01565844693126   -1.83833849941789
C         0.36526833901276    3.45717783359052   -0.60872134461245
C         1.73750763353229    3.01027034308883   -0.60647414434241
C        -1.56478686018619    2.59164106727633   -1.84772687519286
C        -1.94029682773592    1.42491556261233   -2.60746405537132
C        -2.92983781143411    0.70303313262702   -1.84949363841690
C        -3.15898413750221    1.42422485152537   -0.62193739749481
C        -2.32490355426015    2.59038872070652   -0.62450547246701
C        -2.92836878772040   -0.68405543700745   -1.84962573814992
C        -1.93904036069762   -1.40773237256147   -2.61024724854105
C        -1.55866547850246   -2.57121344017078   -1.85134884061604
C        -2.30564999771098   -2.55950220907797   -0.61959753678865
C        -3.14489610421230   -1.40025519313465   -0.61907586759348
C        -0.98258880140121   -0.71199784725493   -3.33931931749923
C        -0.98282307857988    0.72993418781511   -3.33565863929910
C         0.38749373425271    1.17405980432027   -3.33052942737119
C         1.23461109657076    0.00889474374602   -3.33270375141991
C         0.38752944871662   -1.15766748457078   -3.33787916339134
Cl       -1.57541387568157   -0.03186569783275    5.33572485505835
Cl       -4.09066305109274    0.00170684966822    3.80962516008044
Cl        3.01699078813882   -2.18578695735827    4.11587469505201
Cl       -1.18859256976515   -3.61681060156938    4.08315199786339
64
 energy: -146.703216426276 gnorm: 0.000379627142 xtb: 6.4.1 (a3dbbd7)
C        -1.29961212556869    0.01215701912504    3.54650173260848
C        -0.36248443323511   -1.14506135095380    3.24031122025287
C         0.91796313355153   -0.71873916321331    3.20741647565134
C         0.95160170494044    0.73322099825549    3.22924058606979
C        -0.39187583917114    1.19069458739738    3.26907194875456
C         2.30438763607917   -2.56319353125013    0.57220252222554
C         3.15224913502740   -1.39745776138511    0.57524221337090
C         2.94387443301688   -0.69159123256451    1.79480944690306
C         2.07799553829521   -1.52167220782234    2.72187610306938
C         1.56490793354115   -2.59843795762119    1.79327063665917
C         3.16595529355022    1.40791859395535    0.57279677235885
C         2.32446312483737    2.58041137931911    0.57414898669285
C         1.56807024791015    2.58771443276926    1.80070524063110
C         1.93172606146259    1.42866557579901    2.54965375504296
C         2.92893828569723    0.68286503858698    1.78800198041318
C        -0.36766566750580    3.45399874927772    0.57010431334048
C        -1.73978991598367    3.01132791876188    0.56498650968025
C        -1.98738137739441    2.30046996552322    1.78818624515588
C        -0.74753507952363    2.30952855972535    2.56035488884961
C         0.23943924965563    3.01802814010788    1.80019740279534
C        -3.35668203245203    0.72937418738303    0.56771898758617
C        -3.33890306169272   -0.70842344235813    0.56970690402942
C        -2.74302484023978   -1.15382206283253    1.79024291940175
C        -2.62830626068196    0.01399337365810    2.74569297232355
C        -2.78019275744448    1.18286787014651    1.78985619617293
C        -1.71237487632557   -2.96495277489862    0.56992254378272
C        -0.34742607233272   -3.42005154793298    0.57113754806104
C         0.26394334132531   -3.01984458585962    1.79812178438094
C        -0.79634875979248   -2.47360524990874    2.73936872515652
C        -1.96029861181407   -2.27073238879578    1.79475548426526
C        -0.23909131000550   -3.00078554961747   -1.85005134942875
C         0.75178946290606   -2.28244140018875   -2.60795718162199
C         1.97656698497364   -2.28138805096284   -1.84611015311902
C         1.73406139165008   -2.99747421084289   -0.61951908453625
C         0.37253066005886   -3.43785964971635   -0.61961100814631
C         2.79023028046307   -1.15841590331711   -1.84239496396953
C         2.41517730695450    0.00752919293435   -2.60077133552968
C         2.79353458550319    1.17183677510959   -1.83947719252303
C         3.40219287844137    0.72218254360607   -0.61384275560589
C         3.39646942406814   -0.71159246039548   -0.61267692633257
C         1.97395953178534    2.29283371118248   -1.83392020375777
C         0.75045289528103    2.29485990890308   -2.59333641489232
C        -0.24250129203190    3.01541345193020   -1.83829963116751
C         0.36514109496833    3.45707795385665   -0.60873139867065
C         1.73741229883278    3.01010388848889   -0.60639791703506
C        -1.56467410435125    2.59140064963412   -1.84764330019900
C        -1.94018541621973    1.42476334016957   -2.60755352090047
C        -2.92956296584867    0.70289595886666   -1.84969200744500
C        -3.15897763213215    1.42418225680031   -0.62200162867979
C        -2.32493746474682    2.58994314340671   -0.62441566761388
C        -2.92813137856135   -0.68398940678800   -1.84956603434455
C        -1.93872074528438   -1.40760343320205   -2.61013457931056
C        -1.55842550181929   -2.57096683723349   -1.85133318457356
C        -2.30577111255045   -2.55930980449574   -0.61948973584174
C        -3.14473069217351   -1.40042880555635   -0.61892952095498
C        -0.98248829064945   -0.71188517009020   -3.33949960515087
C        -0.98271868031936    0.72988348343539   -3.33586883189524
C         0.38757298028726    1.17406877674714   -3.33067999477626
C         1.23465702387349    0.00890603133910   -3.33290051741860
C         0.38763694682734   -1.15752734027575   -3.33800515917275
Cl       -1.57867602235398   -0.03245830940071    5.33419480194227
Cl       -4.08820104959669    0.00378299554079    3.81224319437005
Cl        3.01835136597253   -2.18623603421882    4.11489613035619
Cl       -1.18863439663207   -3.61727575918895    4.08287452392672
64
 energy: -146.703216962238 gnorm: 0.000138325411 xtb: 6.4.1 (a3dbbd7)
C        -1.29970057817420    0.01214618967451    3.54670262465236
C        -0.36249755544596   -1.14508549379056    3.24017771585669
C         0.91795688691121   -0.71875437293575    3.20732968959571
C         0.95155574932015    0.73318585853827    3.22925917298633
C        -0.39185292578230    1.19067619794583    3.26908360840561
C         2.30440725581623   -2.56324488465772    0.57222587542638
C         3.15224155911063   -1.39747604788246    0.57523164791716
C         2.94385018399747   -0.69159708057950    1.79474688851872
C         2.07797730502041   -1.52169611697501    2.72188855606370
C         1.56496347860174   -2.59847230797741    1.79331899165289
C         3.16597522105794    1.40791385069318    0.57281724889270
C         2.32444472857913    2.58037432889053    0.57415198611973
C         1.56802039239933    2.58764440864967    1.80072625415236
C         1.93169803203846    1.42865380934682    2.54964184431981
C         2.92896752322938    0.68287050765846    1.78804684815645
C        -0.36768761100464    3.45397400755255    0.57013033738085
C        -1.73980916129512    3.01134321932988    0.56503649411384
C        -1.98743073705316    2.30054527916276    1.78830709863838
C        -0.74758454462034    2.30955973777244    2.56044852419806
C         0.23940838944660    3.01799811560770    1.80023395291291
C        -3.35662180495170    0.72931735272752    0.56771560911532
C        -3.33892152749198   -0.70849138905386    0.56978281606864
C        -2.74313272139999   -1.15383209326902    1.79036351954935
C        -2.62843127796371    0.01400428738022    2.74582707407075
C        -2.78008459785416    1.18281675726430    1.78973669714044
C        -1.71238116664186   -2.96494148566532    0.56997185282342
C        -0.34742580554513   -3.42006469629857    0.57115418201929
C         0.26395643162188   -3.01986701968430    1.79806768122465
C        -0.79634869101623   -2.47355111163035    2.73931155131926
C        -1.96028953889171   -2.27073664338693    1.79475832765002
C        -0.23908623567885   -3.00076126906631   -1.85007408203321
C         0.75179677831339   -2.28242062009689   -2.60796848101347
C         1.97657471408711   -2.28136330038242   -1.84610846770881
C         1.73400950598901   -2.99746079829082   -0.61948775601032
C         0.37255454836400   -3.43784458169248   -0.61959755972802
C         2.79022299741702   -1.15841313862884   -1.84243220095358
C         2.41516854511109    0.00753221791151   -2.60079043955947
C         2.79352056374737    1.17184520860028   -1.83948233803025
C         3.40217662254758    0.72215239373983   -0.61382220548520
C         3.39648848587549   -0.71156863122754   -0.61266376679666
C         1.97394051468858    2.29282236464790   -1.83391623041621
C         0.75043646497201    2.29485483575602   -2.59334198515667
C        -0.24251420713314    3.01539410350280   -1.83827464277608
C         0.36511224394383    3.45703708978315   -0.60869072711254
C         1.73739371729084    3.01006654380552   -0.60636509467610
C        -1.56467027732310    2.59138741952914   -1.84761159472447
C        -1.94019690790844    1.42476796739185   -2.60757202219430
C        -2.92955732272891    0.70288812333483   -1.84973266214904
C        -3.15894857302039    1.42418225922592   -0.62198408309494
C        -2.32493740852657    2.58987889141376   -0.62435213604505
C        -2.92811010987556   -0.68397512618310   -1.84954606084706
C        -1.93870193845553   -1.40759371664068   -2.61012123193046
C        -1.55839526255814   -2.57095469683711   -1.85134547155655
C        -2.30576868003896   -2.55927652882939   -0.61945986811266
C        -3.14465595735195   -1.40045056582103   -0.61888128773573
C        -0.98250616432487   -0.71187935346643   -3.33956647961116