63
 energy: -142.086923973273 gnorm: 0.137852287261 xtb: 6.4.1 (a3dbbd7)
C        -1.30524132879597    0.00000000000538    3.57807329023422
C        -0.38198622120159   -1.16615737488772    3.28622995044209
C         0.97316446785684   -0.71953336628746    3.26852105894251
C         0.97316446785530    0.71953336630216    3.26852105894473
C        -0.38198622120459    1.16615737490379    3.28622995045274
C         2.33525790565848   -2.58178581715533    0.58265918378867
C         3.18402429064640   -1.41551052449968    0.58305164633927
C         2.94575551469093   -0.69331830539435    1.80727245276214
C         1.94633616722705   -1.41428833030776    2.55691587181014
C         1.57537284635923   -2.57710002453835    1.80571263196464
C         3.18402429064568    1.41551052450295    0.58305164633618
C         2.33525790565840    2.58178581715875    0.58265918378237
C         1.57537284635929    2.57710002454614    1.80571263195897
C         1.94633616722623    1.41428833031814    2.55691587180842
C         2.94575551468950    0.69331830540176    1.80727245276124
C        -0.36286725388684    3.43716117593932    0.57905462418204
C        -1.73307079475598    2.99275061625332    0.57524951534827
C        -1.97752320629156    2.27496221823572    1.79457083857807
C        -0.73661625909686    2.27496497778529    2.56523814188962
C         0.24797249911112    2.99276091828423    1.80557303834060
C        -3.36590164017822    0.71953732333088    0.57375248902312
C        -3.36590164017888   -0.71953732332215    0.57375248902510
C        -2.78105190250946   -1.16617827543313    1.79633080427055
C        -2.63331800734743    0.00000000000824    2.75326019131418
C        -2.78105190250706    1.16617827544612    1.79633080426590
C        -1.73307079475815   -2.99275061624643    0.57524951535621
C        -0.36286725388906   -3.43716117593443    0.57905462419038
C         0.24797249911082   -2.99276091827599    1.80557303834608
C        -0.73661625909661   -2.27496497777287    2.56523814188986
C        -1.97752320629363   -2.27496221822376    1.79457083858313
C        -0.24045690066217   -3.00743782548085   -1.83034246730529
C         0.75231661586805   -2.28840993805800   -2.58424128273324
C         1.97824017738855   -2.28845527885670   -1.82288383798471
C         1.74258918722144   -3.00745695556584   -0.59875134393160
C         0.36899288245124   -3.44813425118672   -0.59934302533638
C         2.79566620008723   -1.16591822783908   -1.82325695863853
C         2.41697359109874   -0.00000000000271   -2.58108531976838
C         2.79566620008779    1.16591822783556   -1.82325695864148
C         3.40959680691412    0.72110795434846   -0.59778286565664
C         3.40959680691433   -0.72110795434857   -0.59778286565546
C         1.97824017738961    2.28845527885345   -1.82288383799084
C         0.75231661586926    2.28840993805322   -2.58424128273948
C        -0.24045690066036    3.00743782547884   -1.83034246731341
C         0.36899288245285    3.44813425118749   -0.59934302534530
C         1.74258918722258    3.00745695556589   -0.59875134393955
C        -1.56217286029713    2.58178679356912   -1.83784975797872
C        -1.93879975252934    1.41553008402889   -2.59849355392507
C        -2.93052386427469    0.69331652856981   -1.84222173469045
C        -3.15943698990261    1.41427069975303   -0.61403881020582
C        -2.32163160591617    2.57707956787764   -0.61452432163280
C        -2.93052386427455   -0.69331652856949   -1.84222173468868
C        -1.93879975252999   -1.41553008403179   -2.59849355392122
C        -1.56217286029877   -2.58178679357009   -1.83784975797151
C        -2.32163160591823   -2.57707956787401   -0.61452432162573
C        -3.15943698990344   -1.41427069974849   -0.61403881020168
C        -0.98033776527170   -0.72109715720207   -3.32415755726590
C        -0.98033776527144    0.72109715719620   -3.32415755726739
C         0.39032106020777    1.16579648770428   -3.31706046827290
C         1.23757908177170   -0.00000000000348   -3.31355725238661
C         0.39032106020722   -1.16579648771087   -3.31706046826971
Cl       -1.60949318930206   -0.00000000015797    5.36443419001363
Cl       -4.09957109178614    0.00000000004209    3.81802953081684
Cl        4.23311261129891   -1.75024747086418   -2.75514061588357
63
 energy: -142.110981826915 gnorm: 0.058279582940 xtb: 6.4.1 (a3dbbd7)
C        -1.30571587383048    0.00013125148569    3.57850452878520
C        -0.38267395652275   -1.16623150997248    3.28761270204452
C         0.97178989697326   -0.71844910237146    3.26854145157906
C         0.97180081833238    0.72093360028321    3.26934777541825
C        -0.38292859941064    1.16669657660733    3.28669946634532
C         2.32918970070013   -2.58141201828723    0.58445711446350
C         3.17336128825433   -1.40630961859625    0.58756864282343
C         2.94610319364763   -0.68945063078409    1.81342888169448
C         1.94513025675303   -1.41244320554614    2.55703980900164
C         1.57325588489388   -2.57632316561431    1.80468145455336
C         3.18303456301219    1.42054235397611    0.59018060248151
C         2.33332502971676    2.58594897920934    0.58579002790557
C         1.57391863619147    2.58078049291326    1.80844581990716
C         1.94488453057156    1.41759900864283    2.55938097108600
C         2.94626774262316    0.69890431221004    1.81235519214451
C        -0.36473100032842    3.43931055907584    0.58064668719632
C        -1.73417369108656    2.99392533555304    0.57623884565037
C        -1.97836913576414    2.27596123763303    1.79517032817233
C        -0.73796482054679    2.27610504533112    2.56577747774948
C         0.24609496618058    2.99490151621939    1.80737795908732
C        -3.36603554004261    0.72003405561363    0.57431227333384
C        -3.36695085155728   -0.71915967479319    0.57457087172606
C        -2.78195277910581   -1.16578661514205    1.79728716139974
C        -2.63375861156411    0.00045391796949    2.75373819151171
C        -2.78148347745607    1.16633473400993    1.79641206841702
C        -1.73862410180341   -2.99461850294923    0.57782633036756
C        -0.37010223210455   -3.44186554019930    0.58244444316329
C         0.24390718169039   -2.99472972682414    1.80722965703139
C        -0.73818155852394   -2.27589801125851    2.56612717970607
C        -1.97985377511194   -2.27526287298305    1.79644961476147
C        -0.25170620622327   -3.01475850198130   -1.82613191227106
C         0.74410271400947   -2.28953068946201   -2.57224775316821
C         1.96803357373778   -2.31195204280520   -1.82692166676739
C         1.72806259613142   -3.00419549718400   -0.59858777841710
C         0.35688950358102   -3.45546671046362   -0.59679080941812
C         2.88266931452054   -1.19911293720126   -1.87911354440295
C         2.40659174919439    0.01379318471042   -2.57791013871037
C         2.78412900729561    1.16763979228377   -1.81802080787229
C         3.40063694257892    0.72243674778600   -0.59230536920071
C         3.40300819312189   -0.71127647601298   -0.58406482817105
C         1.97320224078423    2.29676937416713   -1.82243821401639
C         0.75045747077470    2.29629507442855   -2.58429115226420
C        -0.24227211004647    3.01192757661132   -1.82898720288001
C         0.36690797043848    3.45244065178122   -0.59761563171074
C         1.74022146856061    3.01218031471768   -0.59643456668098
C        -1.56311811014112    2.58362020376189   -1.83677231323307
C        -1.93933480226064    1.41655162606705   -2.59716064885887
C        -2.93144813429668    0.69412167042367   -1.84169379634530
C        -3.15951761737689    1.41431214483628   -0.61399810059412
C        -2.32214968756358    2.57798098452339   -0.61408235967204
C        -2.93212783970325   -0.69389720673372   -1.84192230592693
C        -1.94322844116947   -1.41683216875040   -2.59707133120018
C        -1.57009381281243   -2.58513336770020   -1.83599509412297
C        -2.32725759120136   -2.57869437969901   -0.61204841009199
C        -3.16203712072988   -1.41409301953080   -0.61278350261966
C        -0.98020482356311   -0.72115120698883   -3.32150253778118
C        -0.98113635083418    0.72268566457779   -3.32258862229285
C         0.38708380577558    1.17205117742957   -3.31718871873583
C         1.23016272820179    0.00648682754135   -3.30305370621267
C         0.38514938572982   -1.16588676123166   -3.31388103410056
Cl       -1.60979793785329    0.00088281745374    5.36480153066137
Cl       -4.10000585835373    0.00028939366376    3.81828459930193
Cl        4.35606497166788   -1.79135451329556   -2.83074326313715
63
 energy: -142.116868862459 gnorm: 0.013374436790 xtb: 6.4.1 (a3dbbd7)
C        -1.30835426980404    0.00144323735269    3.57980953662242
C        -0.38544785854264   -1.16484806132780    3.28902310760326
C         0.96870134260889   -0.71679998476578    3.26820200655936
C         0.96922513678160    0.72297870314129    3.27095955491864
C        -0.38551368298822    1.16799445139715    3.28787759771868
C         2.32872267053997   -2.58262696468992    0.58442555257985
C         3.17147663512099   -1.40214244624882    0.58187849206177
C         2.93865444034008   -0.68674759032037    1.80827915214320
C         1.94112721688915   -1.40988614346744    2.55459002664521
C         1.57077793361003   -2.57381932077141    1.80067695914727
C         3.17777548607515    1.41991663538225    0.59291471153138
C         2.32982509386809    2.58697715723062    0.58822581347966
C         1.57086474871315    2.58377930296488    1.81099230331605
C         1.94273481065175    1.42079374726321    2.56241055048131
C         2.94244819672469    0.70204227317839    1.81296033440057
C        -0.36824261449661    3.44188787521692    0.58310275624688
C        -1.73719872962945    2.99565700005783    0.57842099757103
C        -1.98137930470780    2.27764897955225    1.79709246897551
C        -0.74117582379178    2.27813089601158    2.56747223586846
C         0.24252794851525    2.99757236493927    1.81005032006398
C        -3.36851056439158    0.72095432288061    0.57639040877606
C        -3.36936551664892   -0.71845474916669    0.57654694165358
C        -2.78455560586722   -1.16504358935379    1.79951176036743
C        -2.63641332811201    0.00160090076732    2.75540081873309
C        -2.78396783035599    1.16718991273045    1.79782467412052
C        -1.74354745445223   -2.99585890773493    0.58075504763754
C        -0.37413693538366   -3.44098585354884    0.58445056278808
C         0.24007160296275   -2.99442747762727    1.80901162739752
C        -0.74065258437253   -2.27524960670622    2.56723105932316
C        -1.98353170966731   -2.27515576775584    1.79907714331675
C        -0.25455830685686   -3.01171942036743   -1.82188279964850
C         0.74692319249865   -2.28440648340524   -2.56317650214888
C         1.96314579305663   -2.31356237070914   -1.82573604489742
C         1.72480768126047   -2.99543066260314   -0.60227319000464
C         0.35287172940992   -3.45188505296787   -0.59477870012940
C         2.96001445309368   -1.22671063065480   -1.92806004135045
C         2.40949866605297    0.01471892647711   -2.58132409369938
C         2.77496297930836    1.15920027679852   -1.81588023418070
C         3.38987767506512    0.71414689381173   -0.58920992830749
C         3.40902856355356   -0.71160321359795   -0.58497430613737
C         1.96877191485840    2.29587967403416   -1.81998525522887
C         0.74856828501181    2.29827330509473   -2.57977232511150
C        -0.24507811982680    3.01569611705160   -1.82715960276131
C         0.36392364314760    3.45522279995197   -0.59511076457229
C         1.73676743016242    3.01275738767067   -0.59436720354015
C        -1.56559490906846    2.58566097944861   -1.83473990808612
C        -1.94085420945535    1.41725529179093   -2.59437680279962
C        -2.93415005262943    0.69525586362749   -1.83962677954259
C        -3.16163920477671    1.41467520338228   -0.61240357987477
C        -2.32432463100495    2.57892152723598   -0.61238128889118
C        -2.93373124902280   -0.69367106567590   -1.83996075012118
C        -1.94699189789480   -1.41645708701107   -2.59466848326945
C        -1.57334996384627   -2.58412932935317   -1.83274702653347
C        -2.33217478540695   -2.57957857683136   -0.60951452898132
C        -3.16545363837305   -1.41372325662112   -0.61032247965991
C        -0.97868494669592   -0.72140017981918   -3.31730535385087
C        -0.98125898965243    0.72305839515634   -3.31716711130285
C         0.38679941370378    1.17102320572618   -3.30909020838157
C         1.23307175494734    0.00785541958778   -3.29698476595065
C         0.38375710706021   -1.16553059728410   -3.31427043532066
Cl       -1.61181674850228    0.00234263709716    5.36623061942306
Cl       -4.10239246963721    0.00155829316307    3.82006745364386
Cl        4.44282526702575   -1.82846303765057   -2.88822956223669
63
 energy: -142.117174318531 gnorm: 0.007940934165 xtb: 6.4.1 (a3dbbd7)
C        -1.30990038178506    0.00201094086706    3.58081568373657
C        -0.38693701239960   -1.16431286582779    3.28989095734255
C         0.96708833989834   -0.71620619448579    3.26739365921340
C         0.96752625880714    0.72361204595511    3.27126799162692
C        -0.38713645968278    1.16872050018740    3.28885304044392
C         2.33041304044584   -2.58427249191752    0.58498437732251
C         3.17412056262093   -1.40298333584367    0.57849412353421
C         2.93508829806779   -0.68623627126709    1.80376652434224
C         1.93892470255129   -1.40874565305732    2.55215207831492
C         1.56998938842226   -2.57332646809260    1.79926104205639
C         3.17514013201414    1.41831296793593    0.59138316338302
C         2.32759439172562    2.58578406740173    0.58852296878978
C         1.56923693475943    2.58427586273921    1.81177260358861
C         1.94121683820646    1.42133458478253    2.56306911157500
C         2.93972025346797    0.70208720293828    1.81133548397815
C        -0.36995406439100    3.44327377190406    0.58448155297927
C        -1.73893203331734    2.99686425432701    0.57986567140312
C        -1.98310840726746    2.27858842289075    1.79846602888346
C        -0.74288434960596    2.27930724895958    2.56888116717352
C         0.24088803312707    2.99879760940424    1.81156122033420
C        -3.36987062486597    0.72143599778383    0.57760469079034
C        -3.37085138531747   -0.71816363776292    0.57749254420224
C        -2.78606898967007   -1.16488379428811    1.80063780270946
C        -2.63797596896915    0.00202463333538    2.75646470889693
C        -2.78540181905198    1.16771463731379    1.79892123338864
C        -1.74479994878954   -2.99583664095938    0.58159583779919
C        -0.37471483185718   -3.43930312128681    0.58459676978406
C         0.23898788584900   -2.99379857805855    1.80964613395330
C        -0.74168697427346   -2.27482490700591    2.56785540262994
C        -1.98507935441999   -2.27515873261850    1.80014358472557
C        -0.25343781712035   -3.00782470740824   -1.82034978167123
C         0.75093870347718   -2.28216053475528   -2.56247153147314
C         1.96475938204151   -2.30895597345185   -1.82505013828248
C         1.72745207480730   -2.99240669098079   -0.60419023632254
C         0.35350055889052   -3.44774072188540   -0.59415464866834
C         2.97988554816482   -1.23182835535163   -1.94006983946558
C         2.41699095245490    0.01191212414437   -2.58717208269718
C         2.77374404983867    1.15542810108848   -1.81684974160961
C         3.38899612836363    0.71045984677133   -0.59027838317529
C         3.41713839848367   -0.71476190934891   -0.58947624259787
C         1.96719917436022    2.29313040625487   -1.81813194642407
C         0.74768556703461    2.29703102389059   -2.57710427114111
C        -0.24642336692914    3.01644684335304   -1.82602481259273
C         0.36239841731762    3.45586770423639   -0.59386258684884
C         1.73472220198088    3.01143607374687   -0.59352514945687
C        -1.56676001412091    2.58619979888509   -1.83328362506186
C        -1.94120530514331    1.41726899026658   -2.59276145784271
C        -2.93532451348316    0.69591448540829   -1.83839950562427
C        -3.16282161878814    1.41515436822872   -0.61125509617650
C        -2.32570812569169    2.57970016345254   -0.61112886863851
C        -2.93435724229655   -0.69312497333227   -1.83897735450643
C        -1.94781265375300   -1.41564090663003   -2.59345458366660
C        -1.57318622030662   -2.58267070832740   -1.83127815898652
C        -2.33337484843067   -2.57935088502997   -0.60876249548646
C        -3.16696980106530   -1.41344983474214   -0.60938131252664
C        -0.97787629642376   -0.72170987169716   -3.31563222360856
C        -0.98080090980925    0.72244979042011   -3.31400058481133
C         0.38779543634358    1.16836023913122   -3.30439890337711
C         1.23701645184737    0.00624072796459   -3.29831017925249
C         0.38400351849369   -1.16590268216550   -3.31665871198778
Cl       -1.61395086045642    0.00413585580586    5.36722615324944
Cl       -4.10400211567419    0.00250983305114    3.82108961268640
Cl        4.45565356804900   -1.83845714811161   -2.89871593226278
63
 energy: -142.117267573473 gnorm: 0.004623675779 xtb: 6.4.1 (a3dbbd7)
C        -1.31034787916480    0.00216794430117    3.58145236398392
C        -0.38736496322497   -1.16418146193409    3.29049906650433
C         0.96656772660728   -0.71603195126033    3.26709803852766
C         0.96686200514238    0.72383471599931    3.27135429464375
C        -0.38767819970817    1.16899860152191    3.28933141186428
C         2.33153608502150   -2.58557634507099    0.58609858431548
C         3.17533623059696   -1.40357495309772    0.57707217660901
C         2.93340037481697   -0.68589372644010    1.80139738024267
C         1.93791995076372   -1.40819144418635    2.55084655309946
C         1.56991771632498   -2.57352282681440    1.79917479830395
C         3.17336662768368    1.41741030642157    0.59043441538739
C         2.32640370715438    2.58507879381739    0.58867679262948
C         1.56866802080550    2.58452240600780    1.81232173279022
C         1.94061542539659    1.42162056754237    2.56357954354373
C         2.93852024563305    0.70201469140200    1.81070509702466
C        -0.37059906912732    3.44408444006119    0.58502343659374
C        -1.73956900606418    2.99746261453518    0.58037574566636
C        -1.98360209106473    2.27889639253823    1.79890055055585
C        -0.74341605493955    2.27984569357526    2.56950011644282
C         0.24035293063159    2.99950647758982    1.81230893057743
C        -3.37009241675770    0.72147632220933    0.57786102702503
C        -3.37112693609608   -0.71822970797689    0.57758731172378
C        -2.78631777512075   -1.16500607724861    1.80088633987939
C        -2.63828507356660    0.00203126367811    2.75673635167393
C        -2.78555603855054    1.16771245389395    1.79908741959512
C        -1.74488008148133   -2.99585647495599    0.58174749237580
C        -0.37463663855091   -3.43858532511469    0.58461168953992
C         0.23879859830671   -2.99366877939718    1.81021768234284
C        -0.74183323394591   -2.27476811484117    2.56825262870473
C        -1.98540043461498   -2.27536915811726    1.80051731440060
C        -0.25260533828703   -3.00531743056170   -1.81946300565339
C         0.75323807198853   -2.28048675089057   -2.56241130755042
C         1.96523357612447   -2.30455108220843   -1.82377039980864
C         1.72932450783177   -2.99058682357361   -0.60490970949633
C         0.35404066156892   -3.44506924630197   -0.59380066165388
C         2.98788345121462   -1.23352460826119   -1.94477535506631
C         2.42087797444226    0.00997807521786   -2.59020330628312
C         2.77266991721614    1.15350227658005   -1.81714893898158
C         3.38811736850226    0.70853699959564   -0.59061212234387
C         3.42124323250973   -0.71682765959754   -0.59200875116256
C         1.96623450452226    2.29144382543682   -1.81681397925788
C         0.74720034308505    2.29644249349671   -2.57598934974700
C        -0.24712972359433    3.01692104300212   -1.82562594447503
C         0.36168411298565    3.45629969002626   -0.59345972307242
C         1.73363296187800    3.01063027830464   -0.59305833197066
C        -1.56724297592339    2.58642167808755   -1.83271211675509
C        -1.94131030579467    1.41732874158449   -2.59231625157645
C        -2.93578096751722    0.69622548445349   -1.83814731317977
C        -3.16320483550701    1.41534525082690   -0.61097639356124
C        -2.32630229742109    2.58011342518588   -0.61071911666854
C        -2.93449483584457   -0.69287264507528   -1.83889672256017
C        -1.94819518041734   -1.41518171639176   -2.59333363188290
C        -1.57284134092457   -2.58198788907710   -1.83086258293284
C        -2.33342876681856   -2.57926046297368   -0.60870088008777
C        -3.16739162354113   -1.41346545368102   -0.60931440282723
C        -0.97779667286377   -0.72183389387695   -3.31553055656373
C        -0.98045115134904    0.72212131944581   -3.31246085038472
C         0.38846305233693    1.16705994828486   -3.30203873305220
C         1.23870927647932    0.00538904296241   -3.29910773089763
C         0.38357258614133   -1.16595977926331   -3.31869739873946
Cl       -1.61424561251333    0.00509602910524    5.36797063692202
Cl       -4.10487730263974    0.00277342237955    3.82061587164047
Cl        4.45411445597874   -1.84315839174516   -2.89999468834317
63
 energy: -142.117307027418 gnorm: 0.002448465115 xtb: 6.4.1 (a3dbbd7)
C        -1.31019807385750    0.00206267673487    3.58123564112065
C        -0.38717232298049   -1.16430876068536    3.29070156007676
C         0.96671696267254   -0.71610599109078    3.26713848949353
C         0.96686313305621    0.72384419982258    3.27130224296832
C        -0.38758632374450    1.16899875865151    3.28936251300843
C         2.33202535774259   -2.58617639035165    0.58696848323790
C         3.17539570858599   -1.40355717918135    0.57684107911938
C         2.93304139670236   -0.68563830515395    1.80069033764134
C         1.93786882781036   -1.40807347447326    2.55053913860251
C         1.57028615264176   -2.57389631161497    1.79958105951746
C         3.17268391513338    1.41724425516863    0.59016092885451
C         2.32611901372838    2.58492547740959    0.58874073560822
C         1.56873188401186    2.58464771228963    1.81258583270271
C         1.94064370704789    1.42181623910921    2.56390303225827
C         2.93842124528594    0.70206438468208    1.81075814957311
C        -0.37060153887467    3.44434436614307    0.58503485744004
C        -1.73952047681458    2.99755224799483    0.58033664912180
C        -1.98347847992139    2.27887767353084    1.79882069757992
C        -0.74329970173110    2.27991816099326    2.56950741760637
C         0.24041668758442    2.99973670574110    1.81245289870075
C        -3.36981738583812    0.72132296035897    0.57770243440883
C        -3.37082048893647   -0.71842468865528    0.57737306668067
C        -2.78596586658730   -1.16524436460879    1.80069789283614
C        -2.63787324359342    0.00186969961019    2.75642284560554
C        -2.78524793581635    1.16757506022060    1.79885515338914
C        -1.74447655310372   -2.99595808286308    0.58158460939671
C        -0.37432882497697   -3.43862470447439    0.58458314382561
C         0.23908257277485   -2.99384506504421    1.81055593892769
C        -0.74149928445539   -2.27493965962395    2.56831169074046
C        -1.98509358792330   -2.27560701606609    1.80044974553512
C        -0.25225563757882   -3.00438867740938   -1.81909211830016
C         0.75399990888211   -2.27941962215827   -2.56220492661580
C         1.96469048648454   -2.30153423122449   -1.82243691905266
C         1.72997329132747   -2.98952186049732   -0.60494444189407
C         0.35425838128462   -3.44406341974042   -0.59371226000509
C         2.99030697663879   -1.23411689677053   -1.94622790711979
C         2.42164695751267    0.00927169867715   -2.59075565726574
C         2.77183028600472    1.15293100904669   -1.81698904188741
C         3.38730904656330    0.70795249582725   -0.59041316410380
C         3.42200631209355   -0.71748245783925   -0.59270342629545
C         1.96591699357061    2.29096767425912   -1.81625839274381
C         0.74707562607262    2.29647812905917   -2.57589289332873
C        -0.24731064366358    3.01723774649758   -1.82567128277783
C         0.36155875432930    3.45655300337524   -0.59353317434560
C         1.73336312214009    3.01042874806277   -0.59293505891644
C        -1.56724402523855    2.58644897394325   -1.83267723581095
C        -1.94127905487030    1.41739376668311   -2.59251218602448
C        -2.93575561955360    0.69626102845095   -1.83832189151628
C        -3.16311593667564    1.41530106712473   -0.61110704000785
C        -2.32632147646300    2.58016294743359   -0.61077641276930
C        -2.93432634738967   -0.69287970886859   -1.83915109797454
C        -1.94829280649262   -1.41503981312734   -2.59367448634966
C        -1.57259997111592   -2.58193226713093   -1.83100966634416
C        -2.33303688995184   -2.57930642243705   -0.60889466368172
C        -3.16720124747988   -1.41360123282827   -0.60952809921754
C        -0.97793738117557   -0.72181330349116   -3.31609917599772
C        -0.98026506533517    0.72209332770547   -3.31219581855592
C         0.38878751287168    1.16684721871815   -3.30139245341152
C         1.23889568837320    0.00531624842999   -3.29909307854545
C         0.38304704264992   -1.16580432097651   -3.31977248571833
Cl       -1.61618687689068    0.00528414154446    5.36737766030130
Cl       -4.10366195797289    0.00259552669706    3.82137589540548
Cl        4.44730895218125   -1.84526857247425   -2.89759282611301
63
 energy: -142.117316415135 gnorm: 0.001518669597 xtb: 6.4.1 (a3dbbd7)
C        -1.31006630841480    0.00191679804161    3.58162327974641
C        -0.38693001046047   -1.16428519806108    3.29059073966060
C         0.96699846219911   -0.71618538155464    3.26721428939239
C         0.96707608781331    0.72377206103542    3.27117816036241
C        -0.38739843138561    1.16873437543307    3.28919007757499
C         2.33202350845368   -2.58612200080183    0.58722952885831
C         3.17508897780795   -1.40326176136626    0.57717081397001
C         2.93339852480892   -0.68553316857899    1.80101701818594
C         1.93823613202817   -1.40816756100684    2.55082212188021
C         1.57061432315437   -2.57406659956367    1.79992848420746
C         3.17287999848025    1.41752130429416    0.59034391946941
C         2.32631148357724    2.58511696267606    0.58877745677364
C         1.56889912523352    2.58466011412287    1.81260959135114
C         1.94086248714149    1.42189319592862    2.56395439595812
C         2.93879646669099    0.70218662170430    1.81104376038362
C        -0.37046803081832    3.44418207133831    0.58494320453671
C        -1.73932939864958    2.99730786196211    0.58022157487408
C        -1.98331467214879    2.27864352073136    1.79871174796311
C        -0.74314332219278    2.27967542649387    2.56937235275072
C         0.24053090160998    2.99957033825351    1.81236276720212
C        -3.36952076442355    0.72115071461744    0.57747579896465
C        -3.37045270384641   -0.71853814684557    0.57715289358491
C        -2.78558825388497   -1.16522307338375    1.80048076847064
C        -2.63807901878214    0.00171943203181    2.75653410329836
C        -2.78499002316676    1.16729467045369    1.79866705779942
C        -1.74419107542280   -2.99597515894126    0.58147895351480
C        -0.37415578571580   -3.43887971872576    0.58463592547816
C         0.23932165124773   -2.99395643442215    1.81066655007910
C        -0.74125022322963   -2.27499675611156    2.56824704695606
C        -1.98479173699135   -2.27560225691871    1.80032342487233
C        -0.25230331303851   -3.00465689879156   -1.81911186106867
C         0.75371388768387   -2.27914298188953   -2.56193524260770
C         1.96392329227203   -2.30063474375670   -1.82169503167341
C         1.72968754992711   -2.98926268366813   -0.60465203117341
C         0.35418484552654   -3.44431356376748   -0.59373261194017
C         2.99010913098206   -1.23431765801889   -1.94617458879704
C         2.42087126062112    0.00955167055612   -2.59008605690005
C         2.77163644778483    1.15324202164819   -1.81677028181430
C         3.38708943046873    0.70824738113597   -0.59012830984884
C         3.42119010211237   -0.71713441552807   -0.59226455626999
C         1.96605052172517    2.29131533268880   -1.81632136830340
C         0.74715636194014    2.29677692247233   -2.57617736269654
C        -0.24720145179828    3.01734130428070   -1.82578884316189
C         0.36166020245749    3.45658098009919   -0.59363557955532
C         1.73352539263846    3.01062567735955   -0.59296604822600
C        -1.56707796644386    2.58640113348301   -1.83281665803912
C        -1.94120784143508    1.41743049936773   -2.59282002969395
C        -2.93557856565398    0.69616550680967   -1.83857223274682
C        -3.16290727044352    1.41515299483578   -0.61131613889671
C        -2.32613415789404    2.58000455805086   -0.61092020291036
C        -2.93411998230178   -0.69300313761633   -1.83940507687945
C        -1.94820923133378   -1.41510845005566   -2.59400333877191
C        -1.57254824299241   -2.58214142312790   -1.83127353854685
C        -2.33273776793646   -2.57937633216031   -0.60903541967081
C        -3.16687436980729   -1.41369247240424   -0.60971941790175
C        -0.97799887352978   -0.72173298558856   -3.31660064559149
C        -0.98024294527737    0.72223418924789   -3.31261508123742
C         0.38881648302896    1.16719329138084   -3.30173573904776
C         1.23852341967800    0.00564366867919   -3.29880280650098
C         0.38287985454201   -1.16563946666376   -3.31985096045845
Cl       -1.61130451804974    0.00502160056477    5.36866156640829
Cl       -4.10683001792520    0.00226534571857    3.81757013975753