63
 energy: -142.117322082931 gnorm: 0.000136857486 xtb: 6.4.1 (a3dbbd7)
C        -1.30995842022933    0.00189182524685    3.58110707806318
C        -0.38685963422963   -1.16438202789177    3.29042113176046
C         0.96704217762643   -0.71617934820918    3.26721498339518
C         0.96716514399898    0.72377848492836    3.27120657956323
C        -0.38734161129724    1.16879088246906    3.28911857341531
C         2.33189819507696   -2.58571822017919    0.58679262255369
C         3.17509473240835   -1.40308372405227    0.57741383718878
C         2.93377670684727   -0.68559829178404    1.80156339809167
C         1.93848108775284   -1.40826336187418    2.55111624207684
C         1.57066996805045   -2.57391382712082    1.79977185890569
C         3.17335942005835    1.41775019975418    0.59059925676094
C         2.32655383566109    2.58532663741989    0.58873956736072
C         1.56893300899391    2.58464648976275    1.81243991786926
C         1.94092159068590    1.42184604868562    2.56377004535661
C         2.93898711087745    0.70225622537206    1.81109980163184
C        -0.37040246149031    3.44402387141188    0.58484730289741
C        -1.73928513734576    2.99723935243921    0.58012128302436
C        -1.98330702308692    2.27865757446661    1.79863158250436
C        -0.74312203224997    2.27964675242725    2.56925276058774
C         0.24055898744473    2.99946309535664    1.81219159911785
C        -3.36960600163310    0.72117280100204    0.57747691324070
C        -3.37048903021617   -0.71852764938345    0.57717984091590
C        -2.78563929879169   -1.16527130382606    1.80044421946121
C        -2.63776551388551    0.00171148031858    2.75629748694830
C        -2.78512251910271    1.16740227710876    1.79869531952995
C        -1.74423845651521   -2.99603682851914    0.58142393631579
C        -0.37414391065048   -3.43900309627437    0.58458924343148
C         0.23938770010694   -2.99397568400358    1.81038963996241
C        -0.74120903461473   -2.27504368540531    2.56805485099927
C        -1.98474259107875   -2.27559285299571    1.80018538531281
C        -0.25246692620173   -3.00535688527548   -1.81942105722331
C         0.75313963497882   -2.27955321891646   -2.56193094829852
C         1.96375021262459   -2.30175082543064   -1.82200187342672
C         1.72919443855019   -2.98968896797494   -0.60449232165026
C         0.35411307069410   -3.44508192899907   -0.59388872493277
C         2.98970686271018   -1.23444639974410   -1.94600937502435
C         2.42025716777182    0.01029616283990   -2.58964272204986
C         2.77214777553643    1.15374868207300   -1.81681523861280
C         3.38756438104935    0.70875929100465   -0.59016332711236
C         3.42066276225454   -0.71646461105968   -0.59161635660684
C         1.96629657136170    2.29177003049897   -1.81670439113273
C         0.74731239808825    2.29689747254594   -2.57634854415230
C        -0.24701686336307    3.01719867617444   -1.82582758692338
C         0.36180105563396    3.45648238973826   -0.59366535035028
C         1.73376572771398    3.01085812850890   -0.59305588207680
C        -1.56698365393812    2.58636963856567   -1.83292131676157
C        -1.94112954011017    1.41737932000565   -2.59280445465134
C        -2.93546908035893    0.69609388486691   -1.83858031223050
C        -3.16286175437388    1.41510375522927   -0.61134313170866
C        -2.32604622000742    2.57992748397403   -0.61099523778342
C        -2.93402688151592   -0.69306929762939   -1.83937404164298
C        -1.94801709268795   -1.41522378012578   -2.59396386312014
C        -1.57259177983016   -2.58224197888189   -1.83136643347729
C        -2.33280072460269   -2.57943648257003   -0.60905057258651
C        -3.16678842734114   -1.41368949751636   -0.60970277624184
C        -0.97783280768221   -0.72168692583019   -3.31651787316874
C        -0.98027833593054    0.72232985231545   -3.31297464211670
C         0.38868204201460    1.16749390279908   -3.30228607906333
C         1.23840936713631    0.00589847041548   -3.29879719825600
C         0.38323308701813   -1.16560321828957   -3.31935783824237
Cl       -1.61430284599138    0.00474979083475    5.36755525969688
Cl       -4.10438672604100    0.00211260097790    3.82017229318726
Cl        4.43986699242316   -1.84543708263949   -2.89388180190858
