63
 energy: -142.081811505443 gnorm: 0.155334033425 xtb: 6.4.1 (a3dbbd7)
C        -1.32333194775417    0.00617886347970    3.59125188963251
C        -0.38909456310608   -1.27772716531095    3.58793274117145
C         0.98734837171535   -0.72675165446744    3.28582848483634
C         0.97037352147027    0.69420630050098    3.25749094477592
C        -0.37633960723915    1.14742685553706    3.29074190055216
C         2.33092254703306   -2.58746567485154    0.56610397604514
C         3.16875994483946   -1.41579758165486    0.56774606192583
C         2.91978889080344   -0.69314490348597    1.79074016083681
C         1.93018806170321   -1.40549148670748    2.54814074589443
C         1.57476788296703   -2.59634073810083    1.79100274817011
C         3.18328087896891    1.41909085132624    0.57258499213333
C         2.33432229320876    2.58580968143883    0.57559918777772
C         1.57332139543398    2.57095369604789    1.79851755002390
C         1.94352282881158    1.40414426944103    2.54285112768194
C         2.93804115459266    0.69543633516321    1.79366637265872
C        -0.36752716666001    3.44413435035873    0.58029879258012
C        -1.74013210357057    3.00741588983283    0.58054459941955
C        -1.97818665379860    2.28654468588757    1.80361199533287
C        -0.73393250395930    2.25581684802015    2.55761528373596
C         0.24647420110131    2.98080949443068    1.80023381740862
C        -3.39591089216029    0.72883802558845    0.57533866561121
C        -3.37932885665645   -0.70504006359254    0.57786353554246
C        -2.74934612856665   -1.12865052488571    1.82052481704193
C        -2.40026274086307   -0.01382700939334    2.55826017594831
C        -2.77435746218519    1.16021035149421    1.80187148511327
C        -1.70577977915925   -3.00504292266898    0.57191390059864
C        -0.34657433486683   -3.46193150719564    0.56452064530943
C         0.25810980605866   -3.00738238851431    1.79111395103090
C        -0.74203335365356   -2.29289841924391    2.55243835495534
C        -1.91196172287597   -2.27950749485726    1.81757326885181
C        -0.23558165862281   -3.01371296632646   -1.83961821271520
C         0.75175047781152   -2.28700579367404   -2.59867644532734
C         1.98089777627659   -2.28868303835222   -1.84308617931945
C         1.74918768154887   -3.01946296828987   -0.62050040464920
C         0.38088379041600   -3.46658963937948   -0.62079308111870
C         2.79204993046375   -1.16413556659148   -1.83875967224219
C         2.41002754086118    0.00666527739579   -2.59106683151125
C         2.78807241943814    1.16926264052202   -1.83130610074559
C         3.40298548527550    0.72369088805355   -0.60835037131266
C         3.40110069057525   -0.71955382898331   -0.60923004493565
C         1.96912615256614    2.29475463280888   -1.82840259178522
C         0.74474441569639    2.29528025280401   -2.58515694980539
C        -0.24988429155059    3.01642431380723   -1.82795956514323
C         0.36353023978106    3.45499162487799   -0.59844520421847
C         1.73735095077191    3.01278425815446   -0.60243935985793
C        -1.56944867307335    2.59059487249377   -1.83048045584010
C        -1.94787757007795    1.42311330884846   -2.58910001301826
C        -2.94122296022124    0.70465889669871   -1.83002690890673
C        -3.17947337159538    1.42642572884929   -0.60816005298080
C        -2.33307692209202    2.59081264516620   -0.60600270171083
C        -2.93172079240255   -0.68656028280689   -1.82266620418654
C        -1.94059925011627   -1.40887980593779   -2.58138532694875
C        -1.55636984787224   -2.57670213587000   -1.82754179967090
C        -2.29848528094837   -2.57416283302738   -0.59738768824741
C        -3.15456863482430   -1.39758782868201   -0.59434922362650
C        -0.98936986995949   -0.71482485845558   -3.31408037280858
C        -0.99159024528376    0.72723605185279   -3.31429029098428
C         0.38014149579772    1.17201579903766   -3.31523274930469
C         1.22728121177112    0.00778684511203   -3.31823795360647
C         0.38205649969615   -1.16057927312445   -3.31917058806611
Cl       -2.09995733548554    0.29360223981566    5.20530702406437
Cl       -0.35034641589922   -2.11046483688082    5.19906768498811
Cl        2.39788906978096   -3.90219270008192    2.73615996536107
63
 energy: -142.108371000272 gnorm: 0.078406324240 xtb: 6.4.1 (a3dbbd7)
C        -1.32135098278804    0.00692959634023    3.58650351695147
C        -0.38808257329084   -1.27685912736280    3.58510495882636
C         0.98252066024872   -0.71866304109912    3.27274870543228
C         0.97148848465970    0.70166034810025    3.25738484378955
C        -0.37561223631784    1.15083081588616    3.28997365898361
C         2.33345683338080   -2.57405279940999    0.55636804218600
C         3.16532684638212   -1.40873208448745    0.56231689433948
C         2.91561269187492   -0.68596951059476    1.78539274828088
C         1.92812136376514   -1.39110916482152    2.54256758570068
C         1.62905138733097   -2.66996572663018    1.85284943097152
C         3.18435906239790    1.42321985028762    0.57001850932437
C         2.33524912568958    2.58886022768624    0.57410728354193
C         1.57441931915166    2.57497419540545    1.79760378003282
C         1.94580137388179    1.41021395015114    2.54333825815766
C         2.93831265077322    0.70194231257835    1.79257399642573
C        -0.36604583272107    3.44533294768337    0.58077536026479
C        -1.73945308105971    3.00653007558991    0.58250323416066
C        -1.97666761071339    2.28828555191140    1.80471336086568
C        -0.73355540984522    2.25940308411290    2.55716476621388
C         0.24795179712254    2.98499374980190    1.79973026126113
C        -3.39479980512553    0.72536472450293    0.57474771858662
C        -3.38483637852343   -0.70850661520706    0.57311799486564
C        -2.75683947772222   -1.13554560211853    1.81312986112977
C        -2.40019523643248   -0.01330789521096    2.55513589073333
C        -2.77273065701502    1.15590036511730    1.80318444616191
C        -1.72565851370804   -3.00266361757171    0.56740608626595
C        -0.36122309039829   -3.44536379865158    0.56590007058632
C         0.23415230851960   -3.00778960066225    1.80167245823268
C        -0.73798879501814   -2.28267906417333    2.53806166744336
C        -1.93115132291672   -2.27998557524168    1.80703225204545
C        -0.23993956684517   -3.01039299011402   -1.83743989911203
C         0.74967372295127   -2.28438998566946   -2.59529288719848
C         1.98178205165817   -2.28469132471320   -1.84408106152766
C         1.74552911127377   -3.00171689645535   -0.61901149595267
C         0.37129682031597   -3.45524129993495   -0.61583036689367
C         2.79625638702229   -1.15937429096316   -1.84253238584742
C         2.41130902631122    0.00962696320391   -2.59306836558923
C         2.78978263418441    1.17350744710260   -1.83437515472826
C         3.40516526524045    0.72839486597239   -0.61184114695535
C         3.40497080174550   -0.71400273479138   -0.61677310716999
C         1.96980017227541    2.29712282462920   -1.82989704346867
C         0.74401381828122    2.29670022858314   -2.58506286052980
C        -0.24925152852595    3.01704515023385   -1.82761175467181
C         0.36424638722539    3.45617594136361   -0.59920967600421
C         1.73788177809711    3.01507978525742   -0.60391750874123
C        -1.57044403473730    2.58961325579849   -1.82874492535440
C        -1.94842011967547    1.42371810114661   -2.58863437714171
C        -2.94292898905817    0.70420602415601   -1.83120907671553
C        -3.17880766749247    1.42392469177070   -0.60721920057597
C        -2.33235398421506    2.58929596428326   -0.60501000276966
C        -2.93609411138544   -0.68552809315933   -1.82795104407358
C        -1.94387296253161   -1.40807961086827   -2.58564730120534
C        -1.56394543115556   -2.57596861059440   -1.83177575334620
C        -2.31393889802253   -2.57546384230242   -0.60661862772405
C        -3.16370086426951   -1.39963237147536   -0.60187988752014
C        -0.99051724334739   -0.71377466203254   -3.31548334889850
C        -0.99227338754461    0.72800101246729   -3.31422207013099
C         0.37951782453630    1.17264117637419   -3.31503873140378
C         1.22662131833930    0.00903507196042   -3.31807557721639
C         0.38124325719752   -1.15918283312952   -3.31796150407723
Cl       -2.10122415769040    0.29529238063142    5.19917958178807
Cl       -0.34511225495935   -2.11087209744951    5.19497929323286
Cl        2.46872659335373   -4.00529892974223    2.80668312817733
63
 energy: -142.116832911590 gnorm: 0.023442133061 xtb: 6.4.1 (a3dbbd7)
C        -1.31956504642283    0.00773674746737    3.58062745375519
C        -0.38476589496893   -1.27339354682521    3.58174653831327
C         0.98646713057565   -0.72125686864297    3.26714956316816
C         0.97197159988115    0.70159411595431    3.24982365325617
C        -0.37431611180427    1.15198976793209    3.28640143080156
C         2.33737503600802   -2.57165865683091    0.55686075519139
C         3.15712013740438   -1.40816078594016    0.56127930133398
C         2.90872199706270   -0.68570678006672    1.78374625526286
C         1.93420951578148   -1.39251041663809    2.54802500447737
C         1.68427245839858   -2.73776387656551    1.91200180137088
C         3.18349632686646    1.42612953288472    0.56760962773619
C         2.33566841400822    2.59208771918315    0.57206073497766
C         1.57561959260502    2.57953270184524    1.79665502703606
C         1.94583695045850    1.41254012672429    2.53998686294004
C         2.93504147733312    0.70316649550079    1.78989888142663
C        -0.36478956551416    3.44768834908310    0.58083875303654
C        -1.73878269740393    3.00578154896902    0.58397065873243
C        -1.97390017989410    2.29052775202847    1.80480832025606
C        -0.73302601050706    2.26331282599648    2.55647128918040
C         0.24958457434827    2.99049154362195    1.79918786137458
C        -3.39351055414750    0.72133210366133    0.57275293500522
C        -3.39088266578404   -0.71274405270095    0.56817491670056
C        -2.75786590801281   -1.14248058546439    1.80230817865609
C        -2.39923815633520   -0.01018182262837    2.55101782064516
C        -2.76837046550522    1.14991697062855    1.80297812662573
C        -1.73341195316944   -2.99607091557354    0.56413402136021
C        -0.36413979077363   -3.42791733696702    0.56800520470377
C         0.22590991115037   -2.98430635356925    1.80448032610363
C        -0.71952835261170   -2.27138679556894    2.52233743679729
C        -1.94079526388374   -2.27712533537091    1.79456945231248
C        -0.24562135668429   -3.00541197827529   -1.83293471239580
C         0.74442460896902   -2.27948727639118   -2.58924239761215
C         1.97471683031129   -2.27710731825238   -1.83484624194959
C         1.74340755939398   -2.98992923663644   -0.60924914979633
C         0.36270448631460   -3.44825775503515   -0.60998330848125
C         2.79438823668399   -1.15313845327451   -1.84089285880080
C         2.41122149912104    0.01298409114156   -2.59493002239940
C         2.78992568633699    1.17824396042457   -1.83665686404783
C         3.40513894436095    0.73206367436403   -0.61417159941458
C         3.40287678671611   -0.71058941440205   -0.61924516780265
C         1.96948203496319    2.30090142492625   -1.83166283287111
C         0.74190263676057    2.29935757332343   -2.58531376842806
C        -0.24966808070317    3.01853169418480   -1.82772618864697
C         0.36412259128167    3.45870038145547   -0.60032716781058
C         1.73789849283882    3.01912674516458   -0.60589772456213
C        -1.57214592321621    2.58873145573572   -1.82707779220852
C        -1.95020944985739    1.42494834442444   -2.58874470000991
C        -2.94571500610434    0.70346788507641   -1.83335883521795
C        -3.17841695634794    1.42108182806357   -0.60672258528044
C        -2.33161626438254    2.58772862741034   -0.60450705667818
C        -2.94324069279575   -0.68495559921683   -1.83509097175272
C        -1.94932657773439   -1.40734440653040   -2.59189238355613
C        -1.57271041782366   -2.57521015000116   -1.83701697031006
C        -2.32631492096674   -2.57568853844373   -0.61558227438769
C        -3.17443680850549   -1.40374933659187   -0.61056575286294
C        -0.99380740717607   -0.71195996784472   -3.31799470561125
C        -0.99432949177538    0.72968009992447   -3.31473755109066
C         0.37750196478236    1.17421505773840   -3.31486963355150
C         1.22453699502458    0.01127734515995   -3.31789048550887
C         0.37838388063521   -1.15662066155494   -3.31667258045185
Cl       -2.10560762758978    0.29810643600600    5.19085394968888
Cl       -0.34466517192492   -2.11259212762294    5.18441768748253
Cl        2.51541708408605   -4.08924969312670    2.86317795620477
63
 energy: -142.117471662526 gnorm: 0.013708178799 xtb: 6.4.1 (a3dbbd7)
C        -1.31636719019379    0.00737595122843    3.57587909400478
C        -0.38232565687768   -1.27256585821611    3.58219769868123
C         0.99248513970840   -0.72506474810850    3.27051850984340
C         0.97364274850506    0.69929349678608    3.24454298975727
C        -0.37165075832176    1.15107961412632    3.28245772743778
C         2.34338996337333   -2.57864064434902    0.56349073493942
C         3.15612958873415   -1.40985894184819    0.56364968225977
C         2.90929047868541   -0.68759397357808    1.78611893077968
C         1.94293758366440   -1.40057737205862    2.55724134548706
C         1.70001084425806   -2.75290328205814    1.92700541252113
C         3.18252723274361    1.42727795277548    0.56650903350684
C         2.33618257686487    2.59439093673155    0.57079161489995
C         1.57675723793550    2.58190752925539    1.79567469496756
C         1.94622812320290    1.41270729980905    2.53703714266345
C         2.93412356305604    0.70214597167388    1.78792009286803
C        -0.36430558235428    3.44999046508757    0.58037929855313
C        -1.73819495349653    3.00586642688385    0.58411090962593
C        -1.97203546175605    2.29154405903141    1.80429572513632
C        -0.73151552630554    2.26431180530336    2.55508339777875
C         0.25085624426914    2.99318606378241    1.79832412808627
C        -3.39311557337100    0.72001631329044    0.57110026193279
C        -3.39374849662233   -0.71412733232450    0.56571299331923
C        -2.75677659216111   -1.14396264125540    1.79667331387880
C        -2.39690192651602   -0.00865776978071    2.54762749642085
C        -2.76510663637045    1.14750030787631    1.80158018399379
C        -1.73258525137753   -2.99428718316314    0.56312146677648
C        -0.36183309950629   -3.42557391810787    0.56851787434155
C         0.23146647407195   -2.97588694285287    1.80492424541547
C        -0.71168227145266   -2.26909209549123    2.51963227716602
C        -1.94119298673578   -2.27504187095884    1.78912741265079
C        -0.24845418890857   -3.00336223605472   -1.83101307731845
C         0.74121680627711   -2.27588883332726   -2.58443227092058
C         1.96966687513949   -2.27273227448427   -1.82726002460024
C         1.74407633795534   -2.98980459182749   -0.60315840002939
C         0.36053384843695   -3.44753352027874   -0.60856244645060
C         2.79101914297912   -1.15017143028743   -1.83766831668261
C         2.40948740079200    0.01476374378996   -2.59466494941789
C         2.78907673774999    1.18057677517904   -1.83732528109602
C         3.40377424819895    0.73356373003164   -0.61457820775736
C         3.39975558716784   -0.70934216061065   -0.61704631751968
C         1.96892183139093    2.30344738828681   -1.83281961884727
C         0.74033877872943    2.30129254923362   -2.58583036859009
C        -0.25057851619335    3.01996815763875   -1.82810279350985
C         0.36382305364309    3.46114593440240   -0.60109942831864
C         1.73799201255340    3.02218846530750   -0.60707330917782
C        -1.57311017995334    2.58874234256812   -1.82658169717797
C        -1.95197927887255    1.42561910339553   -2.58902255853120
C        -2.94784985263047    0.70304649262785   -1.83479231719797
C        -3.17862021630332    1.42023749335675   -0.60708720612705
C        -2.33135279266730    2.58726202485810   -0.60445906497687
C        -2.94790461544825   -0.68545919798859   -1.83863765186509
C        -1.95286894944192   -1.40746525146014   -2.59490568492064
C        -1.57645762818934   -2.57545414157516   -1.83899190441308
C        -2.33050080500972   -2.57676274421908   -0.61851818432093
C        -3.17932186661958   -1.40626488686571   -0.61415321283448
C        -0.99644411425278   -0.71099944402725   -3.31892883451471
C        -0.99626057148250    0.73079099408144   -3.31533418278248
C         0.37554375680298    1.17570838212195   -3.31497104783380
C         1.22232255415970    0.01298872991717   -3.31688015598374
C         0.37599984632972   -1.15471989039332   -3.31487902856783
Cl       -2.10465144723202    0.29607274097073    5.18587609351226
Cl       -0.35645594304338   -2.11390009712024    5.18110625946997
Cl        2.51719698242399   -4.10329508328598    2.87310300202441
63
 energy: -142.117699487107 gnorm: 0.006025855367 xtb: 6.4.1 (a3dbbd7)
C        -1.31449175135243    0.00782669507109    3.57509679124144
C        -0.38138990647270   -1.27263873712818    3.58488950037021
C         0.99586774416708   -0.72719245159164    3.27351870588438
C         0.97450258244812    0.69765388337944    3.24174421546281
C        -0.36989065477362    1.15017028539139    3.28007918066238
C         2.34646060800831   -2.58353750593127    0.56804735124673
C         3.15477015341798   -1.41042980318812    0.56499386919327
C         2.90904273117232   -0.68850204868144    1.78763639098471
C         1.94773495998364   -1.40619685829745    2.56328150992689
C         1.70701477687563   -2.75916654340122    1.93336310331539
C         3.18155524280684    1.42784820454544    0.56602382124938
C         2.33649135704607    2.59594317673994    0.57050704177980
C         1.57731262794959    2.58341395726917    1.79544268112254
C         1.94611654026843    1.41277089219613    2.53555158760098
C         2.93295215666932    0.70130655548152    1.78645857454059
C        -0.36402647284583    3.45159451468054    0.58041444884570
C        -1.73779799414242    3.00576849545910    0.58473706657693
C        -1.97081068825678    2.29243806132244    1.80464703786285
C        -0.73058547232561    2.26483648501572    2.55462059763382
C         0.25155077800232    2.99479575280337    1.79811055677512
C        -3.39233133959050    0.71866530421511    0.57071969640634
C        -3.39476599805956   -0.71542074502938    0.56519510328904
C        -2.75572203148035   -1.14529267578397    1.79390057227022
C        -2.39449092042302   -0.00753617605227    2.54639682935155
C        -2.76204653279042    1.14530615038185    1.80142667536735
C        -1.73097510844112   -2.99375758887497    0.56282026237954
C        -0.35982768110245   -3.42571620721521    0.56769240430547
C         0.23692994957347   -2.96920535500494    1.80361594679474
C        -0.70594633256235   -2.26762297117016    2.51869365408362
C        -1.94076641518234   -2.27375117848915    1.78535038859008
C        -0.24993146601101   -3.00298351796483   -1.83107467941400
C         0.73956092117940   -2.27374847852942   -2.58153456116551
C         1.96671603628124   -2.26997238126077   -1.82253865216808
C         1.74430518581910   -2.98979504402811   -0.59991143097923
C         0.35937005677181   -3.44818734885652   -0.60910976118590
C         2.78899052534077   -1.14848695643931   -1.83586925241025
C         2.40855823540864    0.01581735301429   -2.59464061688940
C         2.78878053116315    1.18189362114207   -1.83781787989132
C         3.40265544915233    0.73447335583845   -0.61464124547954
C         3.39704432978717   -0.70837017696899   -0.61529817441633
C         1.96886030796524    2.30491138720806   -1.83336088776412
C         0.73958939148401    2.30221805890237   -2.58594043203385
C        -0.25091991094897    3.02049038129590   -1.82803910255361
C         0.36372561398676    3.46252347877685   -0.60117446780766
C         1.73824029993672    3.02405572407083   -0.60744378551367
C        -1.57329788196351    2.58807341685586   -1.82562310928307
C        -1.95269663105272    1.42525420974808   -2.58859872601167
C        -2.94848035338594    0.70195188690024   -1.83492785813736
C        -3.17823128228716    1.41906891069145   -0.60657705596039
C        -2.33085180935063    2.58651272364658   -0.60394649224320
C        -2.95024452227524   -0.68660569951366   -1.84014786153166
C        -1.95460442305751   -1.40812421846752   -2.59655449076017
C        -1.57825339720383   -2.57642950320263   -1.84018096198848
C        -2.33266295193553   -2.57835667756214   -0.62007539243367
C        -3.18134824059776   -1.40867529419842   -0.61542148007307
C        -0.99766034983523   -0.71089262986235   -3.31922132446187
C        -0.99711968047079    0.73102546123381   -3.31556294471680
C         0.37457920245980    1.17645198739037   -3.31507077813603
C         1.22114018227907    0.01394811940769   -3.31616372312138
C         0.37492963691058   -1.15383343698555   -3.31406045477549
Cl       -2.11032192453662    0.31071996430058    5.18036655848078
Cl       -0.35698725919543   -2.12578113957604    5.17510473124002
Cl        2.50875393973020   -4.10450022166850    2.87263423088796
63
 energy: -142.117707468742 gnorm: 0.004641211746 xtb: 6.4.1 (a3dbbd7)
C        -1.31186856002254    0.00764266520883    3.57271529325827
C        -0.38104319180883   -1.27074164218505    3.58398387471618
C         0.99800399205328   -0.72651890422485    3.27478460115258
C         0.97593030202193    0.69801336793968    3.24050918786995
C        -0.36812687516490    1.15031636688651    3.27927464801786
C         2.34650282524737   -2.58448123051376    0.56961871030474
C         3.15384611814323   -1.40996922936574    0.56504976052521
C         2.90903959864306   -0.68814987550374    1.78784112391236
C         1.94948665728791   -1.40759808860875    2.56532818174240
C         1.70802088671062   -2.76008274951130    1.93467774603391
C         3.18156400970054    1.42826333196305    0.56539993894292
C         2.33696215835252    2.59679321929597    0.57013714729319
C         1.57794838301354    2.58447647699310    1.79511118376307
C         1.94708549959865    1.41372153760823    2.53487386383145
C         2.93311422874537    0.70145386672899    1.78541328580679
C        -0.36386347161202    3.45206949863707    0.58047051760418
C        -1.73759268241350    3.00539263686378    0.58539386135219
C        -1.97027615625044    2.29280585685155    1.80541413423271
C        -0.73002363679056    2.26556015845687    2.55504563109743
C         0.25205023905215    2.99553989972283    1.79807776273827
C        -3.39189601677629    0.71782417387954    0.57096291287281
C        -3.39499091981262   -0.71621515511342    0.56523004167173
C        -2.75565193943225   -1.14637405375943    1.79274183713102
C        -2.39391459877285   -0.00744059475950    2.54646798168105
C        -2.76081905276198    1.14398833319097    1.80221963594366
C        -1.73015251230039   -2.99412380170977    0.56254332341087
C        -0.35902554823490   -3.42595776433862    0.56667975401069
C         0.23960127010925   -2.96472224830013    1.80207116451309
C        -0.70372278991581   -2.26674789013047    2.51806511825434
C        -1.94072681540096   -2.27343370486482    1.78299491051196
C        -0.25004450355618   -3.00361755858921   -1.83209173203248
C         0.73945746692111   -2.27337171471437   -2.58093605636417
C         1.96610481999614   -2.26914057780769   -1.82120636523587
C         1.74420759136297   -2.98914275629312   -0.59914876706722
C         0.35912444467442   -3.44873599913644   -0.61007141022231
C         2.78863066461507   -1.14808037755496   -1.83577209147829
C         2.40854178721572    0.01601943345899   -2.59510413509231
C         2.78893672703826    1.18219652429446   -1.83847054283490
C         3.40246584197598    0.73483141543020   -0.61506155041483
C         3.39598362608120   -0.70787226368880   -0.61488276019845
C         1.96901998337740    2.30520220843274   -1.83381581322520
C         0.73942142052971    2.30219509485875   -2.58607875820189
C        -0.25091854628236    3.02029755271725   -1.82805851522816
C         0.36374591950248    3.46266850903225   -0.60118846267884
C         1.73849859449805    3.02463060624159   -0.60782676355617
C        -1.57314108007369    2.58730360720770   -1.82492832580736
C        -1.95262822303157    1.42450986212282   -2.58811639357889
C        -2.94814741249032    0.70100345981514   -1.83453509353568
C        -3.17774602037936    1.41819584375594   -0.60593954080367
C        -2.33041520271746    2.58586120496206   -0.60346062295824
C        -2.95049217437142   -0.68750490247660   -1.84042207956863
C        -1.95472723974592   -1.40877722678807   -2.59714720116602
C        -1.57836929727775   -2.57736006332410   -1.84081247059916
C        -2.33328815670795   -2.57957154809910   -0.62090829421477
C        -3.18140748815619   -1.41012391378349   -0.61563515874714
C        -0.99763851269943   -0.71130268703532   -3.31928806582172
C        -0.99714699148283    0.73067312362644   -3.31564707628659
C         0.37445247517370    1.17639326400868   -3.31533709621173
C         1.22099022807256    0.01403872295988   -3.31615964027382
C         0.37500906448442   -1.15395678168711   -3.31426165126624
Cl       -2.09687972939925    0.28950122695315    5.18749840504743
Cl       -0.37999668686127   -2.10827163991483    5.18024929491956
Cl        2.49755987864086   -4.10097722287081    2.86802110292270
63
 energy: -142.117781684067 gnorm: 0.002251568755 xtb: 6.4.1 (a3dbbd7)
C        -1.31332389357630    0.00784154643691    3.57480847911490
C        -0.38128785858848   -1.27166601939225    3.58525039587021
C         0.99667901471407   -0.72599688723256    3.27427760584465
C         0.97525727633448    0.69825599961343    3.24213358680495
C        -0.36914741757481    1.15020390281380    3.28020007142453
C         2.34517595803908   -2.58260515392128    0.56812644217057
C         3.15405582939780   -1.40955735534913    0.56466981656472
C         2.90881598048179   -0.68776803906682    1.78750176552208
C         1.94757946340156   -1.40571173445406    2.56338680681806
C         1.70555538985271   -2.75827472731479    1.93258328616609
C         3.18164580463956    1.42796904539258    0.56593687949694
C         2.33662583600521    2.59615543832046    0.57063916321274
C         1.57747656330219    2.58374122301204    1.79554926794040
C         1.94670736036732    1.41349912086738    2.53586726618963
C         2.93318360708385    0.70166376699839    1.78620436752081
C        -0.36408672409153    3.45141763235758    0.58059617129248
C        -1.73789269136963    3.00531818100717    0.58529598057102
C        -1.97083184212453    2.29261352034555    1.80539880300388
C        -0.73058087636471    2.26502920233666    2.55518339913861
C         0.25159803260161    2.99474737743054    1.79829736365673
C        -3.39197779902435    0.71798515136297    0.57121482679164
C        -3.39439559414438   -0.71602226765930    0.56584458063205
C        -2.75598720945217   -1.14615289054167    1.79413450185333
C        -2.39437016408820   -0.00753289868624    2.54732092622058
C        -2.76150121888003    1.14436007825569    1.80242306708256
C        -1.73052771387661   -2.99421788758155    0.56301388899860
C        -0.35963326952693   -3.42550985021766    0.56670970323242
C         0.23825052545043   -2.96504485410961    1.80174025442628
C        -0.70485734986400   -2.26646869375804    2.51835972553864
C        -1.94083428770365   -2.27374512120003    1.78438140933512
C        -0.24939024501544   -3.00407552273527   -1.83237862638931
C         0.74021219033477   -2.27424833500236   -2.58196933645824
C         1.96726553871269   -2.27006150861513   -1.82276065821111
C         1.74416918351587   -2.98887379986509   -0.60029440925417
C         0.35957902542124   -3.44853182451212   -0.61007902838108
C         2.78946292690192   -1.14863879816107   -1.83636221088010
C         2.40899413744759    0.01567940599740   -2.59504124817894
C         2.78906534470817    1.18173110695977   -1.83810352491854
C         3.40273343206670    0.73454021482309   -0.61473888109356
C         3.39682128478578   -0.70812134373247   -0.61526270002020
C         1.96901234570882    2.30461685625212   -1.83336596543180
C         0.73966721983574    2.30174072789413   -2.58583082926166
C        -0.25083676686758    3.01997099134293   -1.82796749534066
C         0.36367094144466    3.46202956736790   -0.60096770531723
C         1.73829879618308    3.02384686195973   -0.60738546035452
C        -1.57308499832534    2.58728415117317   -1.82507946683761
C        -1.95231594638356    1.42430676039290   -2.58804760749747
C        -2.94776274369714    0.70102673965045   -1.83426329151906
C        -3.17779428396813    1.41829324993064   -0.60592221946232
C        -2.33063409153030    2.58595842119406   -0.60358425637722
C        -2.94950673525219   -0.68741492918426   -1.83960351931046
C        -1.95397338927390   -1.40878501798557   -2.59640668340118
C        -1.57758347370531   -2.57728932798253   -1.84024778008933
C        -2.33252091034179   -2.57926145882821   -0.62021813854256
C        -3.18042726204662   -1.40965620515188   -0.61483918332595
C        -0.99707060322447   -0.71156417245720   -3.31898318367813
C        -0.99676188394920    0.73037412030466   -3.31543225242747
C         0.37484730879771    1.17601280442530   -3.31518187432676
C         1.22150959281788    0.01365291641112   -3.31627508895464
C         0.37556243292670   -1.15441729464024   -3.31458427726573
Cl       -2.10409534584688    0.30420534031165    5.18467697194296
Cl       -0.36546459568826   -2.11990672794481    5.17631060293067