108
 energy: -319.760233581088 gnorm: 2.249923350971 xtb: 6.4.1 (a3dbbd7)
C        -1.23626340000000    0.00000000000000    3.32997640000000
C        -0.38202640000000   -1.17575640000000    3.32997640000000
C         1.00015810000000   -0.72665740000000    3.32997640000000
C         1.00015810000000    0.72665740000000    3.32997640000000
C        -0.38202640000000    1.17575640000000    3.32997640000000
C         2.34433560000000   -2.60145750000000    0.59464210000000
C         3.19857260000000   -1.42570110000000    0.59464210000000
C         2.96246730000000   -0.69904370000000    1.83090550000000
C         1.96230920000000   -1.42570110000000    2.59495830000000
C         1.58028280000000   -2.60145750000000    1.83090550000000
C         3.19857260000000    1.42570110000000    0.59464210000000
C         2.34433560000000    2.60145750000000    0.59464210000000
C         1.58028280000000    2.60145750000000    1.83090550000000
C         1.96230920000000    1.42570110000000    2.59495830000000
C         2.96246730000000    0.69904370000000    1.83090550000000
C        -0.36750900000000    3.48258920000000    0.59464210000000
C        -1.74969350000000    3.03349030000000    0.59464210000000
C        -1.98579880000000    2.30683290000000    1.83090550000000
C        -0.74953540000000    2.30683290000000    2.59495830000000
C         0.25062270000000    3.03349030000000    1.83090550000000
C        -3.42570570000000    0.72665740000000    0.59464210000000
C        -3.42570570000000   -0.72665740000000    0.59464210000000
C        -2.80757400000000   -1.17575640000000    1.83090550000000
C        -2.42554760000000    0.00000000000000    2.59495830000000
C        -2.80757400000000    1.17575640000000    1.83090550000000
C        -1.74969350000000   -3.03349030000000    0.59464210000000
C        -0.36750900000000   -3.48258920000000    0.59464210000000
C         0.25062270000000   -3.03349030000000    1.83090550000000
C        -0.74953540000000   -2.30683290000000    2.59495830000000
C        -1.98579880000000   -2.30683290000000    1.83090550000000
C        -0.25062270000000   -3.03349030000000   -1.83090550000000
C         0.74953540000000   -2.30683290000000   -2.59495830000000
C         1.98579880000000   -2.30683290000000   -1.83090550000000
C         1.74969350000000   -3.03349030000000   -0.59464210000000
C         0.36750900000000   -3.48258920000000   -0.59464210000000
C         2.80757400000000   -1.17575640000000   -1.83090550000000
C         2.42554760000000    0.00000000000000   -2.59495830000000
C         2.80757400000000    1.17575640000000   -1.83090550000000
C         3.42570570000000    0.72665740000000   -0.59464210000000
C         3.42570570000000   -0.72665740000000   -0.59464210000000
C         1.98579880000000    2.30683290000000   -1.83090550000000
C         0.74953540000000    2.30683290000000   -2.59495830000000
C        -0.25062270000000    3.03349030000000   -1.83090550000000
C         0.36750900000000    3.48258920000000   -0.59464210000000
C         1.74969350000000    3.03349030000000   -0.59464210000000
C        -1.58028280000000    2.60145750000000   -1.83090550000000
C        -1.96230920000000    1.42570110000000   -2.59495830000000
C        -2.96246730000000    0.69904370000000   -1.83090550000000
C        -3.19857260000000    1.42570110000000   -0.59464210000000
C        -2.34433560000000    2.60145750000000   -0.59464210000000
C        -2.96246730000000   -0.69904370000000   -1.83090550000000
C        -1.96230920000000   -1.42570110000000   -2.59495830000000
C        -1.58028280000000   -2.60145750000000   -1.83090550000000
C        -2.34433560000000   -2.60145750000000   -0.59464210000000
C        -3.19857260000000   -1.42570110000000   -0.59464210000000
C        -1.00015810000000   -0.72665740000000   -3.32997640000000
C        -1.00015810000000    0.72665740000000   -3.32997640000000
C         0.38202640000000    1.17575640000000   -3.32997640000000
C         1.23626340000000    0.00000000000000   -3.32997640000000
C         0.38202640000000   -1.17575640000000   -3.32997640000000
C        -1.76086815247998    0.00000000000000    4.78849957557021
F        -0.76911826531252    0.00000000000000    5.67468926254662
F        -2.50968386795825   -1.06794314680471    5.04863888333743
F        -2.50968386795825    1.06794314680471    5.04863888333743
C         2.50473491433418   -4.35941144902977   -0.86730593917895
F         2.08438487052912   -4.95213043104453   -1.98125838386969
F         3.81390519137296   -4.16837996597314   -1.00324768478856
F         2.34400857369757   -5.23632280881804    0.11965581818547
C         1.42457227037960   -1.03501233722714    4.78849957248258
F         0.62223011468481   -0.45207589682711    5.67468926529602
F         1.40265511061956   -2.33913928186680    5.04863905501621
F         2.65809836182651   -0.61117154425495    5.04863869666890
C         3.37204091334889   -3.72927672645244    0.86730596148276
F         4.06564647311728   -3.51265957144659    1.98125763710228
F         4.25569947457670   -3.84739838595791   -0.11965645964809
F         2.78580317558591   -4.91533944031226    1.00324916143779
C         4.92005227074660   -1.03501232949151   -0.86730592957069
F         5.35386609588658   -0.45207588830481   -1.98125865327758
F         5.14292645153878   -2.33913927311179   -1.00324714649869
F         5.70437742108406   -0.61117153086585    0.11965558739362
C         2.84103082519036    3.32439911178427   -2.62817407941587
F         2.23127406184888    4.50005340761388   -2.75037746012491
F         3.10404037880940    2.89718378306489   -3.85992609894427
F         4.01248672303644    3.55720929213525   -2.04303264409737
C         2.28376457660886    3.72927671755932    2.62817408867206
F         3.59030321655004    3.51265997057976    2.75037870097715
F         2.14318168460923    4.91533956626619    2.04303190988612
F         1.79618325340524    3.84739782561575    3.85992562899767
C        -4.25247495652193    1.01957928511255   -2.62817407757680
F        -4.45020405360863    2.32910962270744   -2.75037677428969
F        -4.21414295278388    0.51936236815955   -3.85992636334025
F        -5.33704498641440    0.51936149478958   -2.04303305824604
C        -2.84103082519036    3.32439911178427    2.62817407941587
F        -2.23127406184888    4.50005340761388    2.75037746012491
F        -4.01248672303644    3.55720929213525    2.04303264409737
F        -3.10404037880940    2.89718378306489    3.85992609894427
C         0.54413818249354   -1.67468516033722   -4.78849957845317
F         0.23767107904745   -0.73147481112462   -5.67468925997942
F        -0.24013968171955   -2.71686350152345   -5.04863903502921
F         1.79120914301982   -2.05683909935453   -5.04863874564184
C        -1.08016271022039   -3.32439912180418    3.71645041587937
F        -1.46215754230407   -4.50005299330749    3.22571838851551
F        -0.03290491502764   -3.55721032900471    4.50254840735999
F        -2.06425285383526   -2.89718320022386    4.50255037491024
C         1.08016271022039   -3.32439912180418   -3.71645041587937
F         1.46215754230406   -4.50005299330749   -3.22571838851551
F         0.03290491502765   -3.55721032900471   -4.50254840736000
F         2.06425285383526   -2.89718320022386   -4.50255037491024
108
 energy: -321.131337369388 gnorm: 2.345632470100 xtb: 6.4.1 (a3dbbd7)
C        -1.23959515280694    0.00296543751709    3.33406407872750
C        -0.38054523075186   -1.16987276850145    3.33452878595952
C         1.00235483572031   -0.72662441683125    3.33447573773982
C         0.99823175561843    0.73640792009929    3.33054832289594
C        -0.37053443910375    1.18251044760115    3.33111227409865
C         2.33228116071858   -2.57149401421205    0.60426852429050
C         3.19675963524527   -1.42417671979465    0.60913293126925
C         2.95595448481496   -0.70010148433866    1.83147803368988
C         1.97042254022242   -1.42895342026368    2.57944382118547
C         1.57786753924318   -2.59748645697434    1.83714528585132
C         3.19538858877595    1.42747565403913    0.59515211505507
C         2.34492601847686    2.60197958532734    0.58444036293394
C         1.59182751050398    2.60828076350729    1.83526327200931
C         1.96325592857388    1.41313836919977    2.59307103778548
C         2.95887656848578    0.70124568661015    1.83071130189821
C        -0.37017859436584    3.47832020133577    0.59579136824392
C        -1.74348758944760    3.03257545790248    0.58337657599846
C        -1.99411552783572    2.31566039518498    1.83554138281892
C        -0.73711204910208    2.31024885302994    2.59089101572404
C         0.23343252237731    3.03080204844880    1.83259865596125
C        -3.42353149808749    0.72538349435277    0.59447101796694
C        -3.42444660675368   -0.72896398456486    0.59457906371393
C        -2.80838246070094   -1.17530172105917    1.82587870971422
C        -2.43461920663105    0.00294687739180    2.57485290156400
C        -2.81042569399225    1.15537158476802    1.83331017722441
C        -1.74972309757215   -3.03072233471216    0.59609762995016
C        -0.36858184981610   -3.48051129369085    0.60246804909154
C         0.25023297280916   -3.03636372323386    1.81879580942160
C        -0.75512530720105   -2.31632104575080    2.60267906701007
C        -1.99146845100207   -2.30943575044844    1.81890424393804
C        -0.25671352974860   -3.03681243581739   -1.82682141786153
C         0.74361708598085   -2.29990360895255   -2.56289094996070
C         1.98821304620061   -2.31094932201037   -1.83349987380142
C         1.72576006001761   -3.01373343282218   -0.60117183600877
C         0.36130756957772   -3.48384560817220   -0.59605037446236
C         2.80531575461346   -1.16679164014181   -1.84146998323624
C         2.42540481644570   -0.00244114080558   -2.58571455445797
C         2.81428616460965    1.15897771042966   -1.82926415379886
C         3.42664636081413    0.73697293113714   -0.59942382310940
C         3.43303643257807   -0.72614871531072   -0.59983471887934
C         1.99416117775087    2.31671865349803   -1.83583193257065
C         0.73729006653579    2.30929815789105   -2.59390813954822
C        -0.24828521936724    3.03209188759518   -1.82991510863196
C         0.36803790589583    3.47996575559433   -0.59560367966029
C         1.74244412074997    3.03114985467805   -0.58380199829311
C        -1.58045901635521    2.59758386426202   -1.83098882361191
C        -1.94883630504824    1.43064518535853   -2.59324069241518
C        -2.96991341658847    0.70542867848646   -1.83523467218985
C        -3.19243229380203    1.42755316205690   -0.58228386466344
C        -2.34135140401976    2.60029417645756   -0.59529076778684
C        -2.96478526337246   -0.71702882327706   -1.83496895839962
C        -1.96702742436654   -1.42644279919731   -2.58590619308547
C        -1.58642316660411   -2.60015168357531   -1.82896515720629
C        -2.34469435947550   -2.59996139907205   -0.59566218484169
C        -3.19444342164506   -1.42681446476713   -0.59513182106058
C        -1.00528615547826   -0.72036452710078   -3.33380034064050
C        -0.99883092052435    0.72950665626506   -3.32836158946410
C         0.37921444621940    1.17817441116573   -3.32763575349022
C         1.23855451835913    0.00826045617805   -3.33489293631376
C         0.37286692980210   -1.15085984275918   -3.30663266053950
C        -1.77812230542549    0.00464090146667    4.78701249564346
F        -0.86440752858785    0.03614821969015    5.68994060357639
F        -2.52057550742277   -1.05740966074766    5.05428340467681
F        -2.51837770688259    1.07190138862366    5.04933975821012
C         2.46991904634082   -4.33256179232789   -0.86691035769981
F         2.12796539818766   -5.00280151787713   -1.90766027460726
F         3.86634133274703   -4.18771154765278   -1.08525215482961
F         2.29653524293131   -5.32080831146209    0.10994982094453
C         1.43984440100356   -1.03938640664583    4.78738578895074
F         0.72050261373788   -0.47937977656735    5.69025665014961
F         1.41831984119451   -2.33706210352218    5.05387776791981
F         2.67020507261980   -0.61154164749487    5.04732822466503
C         3.35838825646703   -3.68736329852296    0.89138651123960
F         4.07076615913604   -3.51367781086330    1.98771555754853
F         4.34451324783136   -3.84068946645183   -0.09408162690570
F         2.79261991969001   -4.96081108445224    1.09225714444467
C         4.92314692642225   -1.02256225618211   -0.86782144433920
F         5.35923129113969   -0.45177901162807   -1.98606081063427
F         5.15505206228409   -2.33801669536464   -1.01258356655269
F         5.70876168025439   -0.61197363741911    0.12109220867349
C         2.84315010302841    3.32901008914842   -2.62977642251306
F         2.23163082253276    4.50415058510060   -2.75243142503805
F         3.10578968603729    2.89707485073223   -3.86404630612231
F         4.01583743170334    3.55871144827806   -2.04331834566469
C         2.28673585663544    3.73333233652292    2.63123753784141
F         3.59399940289847    3.51422214498843    2.75187042177234
F         2.14370836600937    4.91862594327517    2.04271671085623
F         1.79614175416184    3.84874361111959    3.86273413017518
C        -4.25640828378582    1.02207211598803   -2.62895130420380
F        -4.45300812519312    2.33231333434373   -2.75263263567785
F        -4.21530732244621    0.51828294082230   -3.86372701603465
F        -5.34071576544163    0.51847776813261   -2.04334504917468
C        -2.84360831940618    3.32819087710971    2.63079284724482
F        -2.23163200027750    4.50395157569332    2.75134290324188
F        -4.01535446508973    3.55875390057573    2.04247368182879
F        -3.10653581731964    2.90080170145989    3.86072100342598
C         0.52500396023292   -1.63067405977657   -4.76522398888781
F         0.23688223462009   -0.72695153311649   -5.68214590928805
F        -0.30920538416300   -2.70346509002479   -5.11697052205745
F         1.84353707910725   -2.00531608837996   -5.11941283821899
C        -1.08355174072923   -3.32797012359301    3.71873865001003
F        -1.46329973779420   -4.50669803558932    3.22499085663982
F        -0.04106031336933   -3.57090747599051    4.50145237987583
F        -2.06471275385985   -2.91317168738621    4.50183087323516
C         1.06257462799335   -3.31027178907841   -3.67703545769308
F         1.42420771253768   -4.49175979911079   -3.31700864058218
F        -0.01418124532712   -3.64458898328001   -4.50776608872871
F         2.16023096117098   -2.94494346379300   -4.51112774207630
108
 energy: -322.806681475663 gnorm: 1.618152894922 xtb: 6.4.1 (a3dbbd7)
C        -1.24260528279682    0.00395573352133    3.34933201588964
C        -0.37821928030470   -1.16290421070124    3.33065158145491
C         1.00493147127125   -0.72766053254565    3.34981846764021
C         0.99370701494287    0.74730653569613    3.32245594765950
C        -0.35890375536821    1.18797330728182    3.32469101530903
C         2.33422443803712   -2.55765770370636    0.61660724606719
C         3.19298061074506   -1.42344254348499    0.62491679006443
C         2.94971266455812   -0.70375059599205    1.82979214744249
C         1.97944352559478   -1.43455360893350    2.56277651276412
C         1.57358695487625   -2.58906776739598    1.84467300841104
C         3.19225466165782    1.42711823269981    0.59691988418209
C         2.34416207051944    2.59658667799011    0.57227748199874
C         1.60598267343140    2.62126427078401    1.84472058984048
C         1.96374653455439    1.39953335984941    2.59135870068286
C         2.95613313022704    0.70462969214006    1.83068846226493
C        -0.37250731326660    3.47437901737357    0.59800783064723
C        -1.73689646976599    3.03236698709181    0.57140158879809
C        -2.00376714058809    2.33173263239559    1.84502701171088
C        -0.72219046647964    2.30857260512712    2.58568758694863
C         0.21207899894024    3.02747632183867    1.83017628354485
C        -3.42094523567920    0.72568220552643    0.59237559886431
C        -3.42398523715376   -0.73141726411890    0.59549540371532
C        -2.80876655494939   -1.17349288094994    1.82180857653761
C        -2.44536030711544    0.00978847396497    2.55364370000382
C        -2.81128602892760    1.13173586158625    1.83394493535864
C        -1.74947709685240   -3.02728302377489    0.59867138122967
C        -0.36857886244672   -3.47612405001433    0.60992351759616
C         0.25212921368690   -3.03965667271330    1.80468291061744
C        -0.76025269915369   -2.33091236572134    2.61148308619207
C        -1.99681528094598   -2.30729148466638    1.80597453313421
C        -0.26174157342097   -3.03701966841721   -1.81758819239063
C         0.74483946157050   -2.30786858651561   -2.54762798721979
C         1.99012178195617   -2.30801917159334   -1.83292452829273
C         1.71355162380575   -3.01195365382996   -0.61299526614487
C         0.35312404069189   -3.48348089051165   -0.59940238844032
C         2.79821633083754   -1.15819048451685   -1.84945044403867
C         2.42643916260389   -0.00396755521848   -2.57603742785822
C         2.81864816256032    1.13866269411408   -1.82206013365656
C         3.41794300662448    0.74766646565551   -0.60345579884854
C         3.45071375399465   -0.72798246698836   -0.60750082333983
C         2.00377308592213    2.33298628199096   -1.84583771300797
C         0.72318890196889    2.30640282320163   -2.59352399277156
C        -0.24427903964749    3.03034670333387   -1.82909694193182
C         0.36903182839790    3.47784989331805   -0.59819144726661
C         1.73561004147892    3.02857243620822   -0.57102872816571
C        -1.58251010314783    2.59351052231497   -1.83169270452546
C        -1.93512602904390    1.43659744250206   -2.59178159738948
C        -2.98544567851416    0.71417902013245   -1.84461583656610
C        -3.18737611229698    1.42889989594083   -0.56893271157385
C        -2.33838807406828    2.59930561832604   -0.59472059236890
C        -2.95641597322309   -0.73709227900540   -1.83365976894572
C        -1.97144035025613   -1.42582561709726   -2.57669737570562
C        -1.59010130429996   -2.59870309901962   -1.82733166984066
C        -2.34471778306105   -2.59903951335026   -0.59705704030615
C        -3.19025219761547   -1.42732327230767   -0.59580589764259
C        -1.00999224974710   -0.71407344917635   -3.33564799213578
C        -0.99720324377046    0.73053276840644   -3.32487552423527
C         0.37728175949941    1.17857971107235   -3.32407631856415
C         1.24005789004355    0.01560185485216   -3.33715165213814
C         0.36706162014992   -1.13325103102538   -3.30435523038627
C        -1.78315392843509    0.00498189912369    4.79074335317300
F        -0.94675970664962    0.06488849065268    5.69643607814869
F        -2.52587507927714   -1.04733977637241    5.05865544744911
F        -2.52001877026300    1.07251020699853    5.05125002678901
C         2.42065628898248   -4.29706411931819   -0.88469906518858
F         2.16838470335465   -5.04046103309684   -1.83951493698292
F         3.88199580095994   -4.22304777372983   -1.22913635066685
F         2.21591580063006   -5.42045190336629    0.02680131523936
C         1.44279677279505   -1.04065810450098    4.79123919938645
F         0.80445400411540   -0.50502591583195    5.69677666762291
F         1.42889982199409   -2.33245667870915    5.05820042298227
F         2.67464223358249   -0.61055865068055    5.04766672604507
C         3.34502302143687   -3.63429910767652    0.92098990832791
F         4.07502621511879   -3.51611202493970    1.99127825154471
F         4.44397764566663   -3.81756370291596   -0.00405792833494
F         2.83534589433333   -4.97332445395243    1.23309915292317
C         4.92677737946449   -1.01153335928179   -0.86792775389406
F         5.36225337929467   -0.45203122020939   -1.98932283225387
F         5.16349458639789   -2.33631572277681   -1.02065458240019
F         5.71087235934599   -0.61286990767640    0.12217731418243
C         2.84528405030292    3.33327396457240   -2.63122460038665
F         2.23150349976863    4.50666847593290   -2.75350432043697
F         3.10680231465985    2.89648973854073   -3.86711946759840
F         4.01829192086234    3.55948403997197   -2.04292653228684
C         2.28945727127649    3.73760480316482    2.63451395574329
F         3.59666838048539    3.51478293408355    2.75266022016500
F         2.14386427083303    4.92095844625240    2.04205430732739
F         1.79577903342541    3.84934074341461    3.86473669099094
C        -4.26080467837932    1.02422837116894   -2.63007938302011
F        -4.45458877551936    2.33484589536411   -2.75389957527137
F        -4.21582904465244    0.51715466610141   -3.86704411636085
F        -5.34332435903145    0.51760016758283   -2.04303651546272
C        -2.84616623409663    3.33170340178947    2.63410706102375
F        -2.23138144831439    4.50672509198134    2.75202992456713
F        -4.01751367289454    3.55958473903556    2.04172608880118
F        -3.10808761040710    2.90334285648786    3.86081031846354
C         0.50337804089348   -1.57676774763536   -4.73979337159246
F         0.23692014887448   -0.72614091933829   -5.68801024419340
F        -0.38371581035792   -2.62972410019409   -5.21523945298114
F         1.86266327669599   -1.90027795643263   -5.21894718213076
C        -1.08606135788219   -3.32980905751225    3.72240264616874
F        -1.46418029834364   -4.51121452060428    3.22443900788186
F        -0.04885645106836   -3.58123776048586    4.49930128113296
F        -2.06328426208095   -2.92626971561947    4.49940341322195
C         1.04902398846071   -3.30144099122329   -3.61575057249920
F         1.39116844482577   -4.47566309674013   -3.39704712111909
F        -0.03620369128043   -3.78926963645390   -4.46630874201599
F         2.27344697316070   -3.05152325990774   -4.47480360409547
108
 energy: -323.506878704157 gnorm: 0.766098626397 xtb: 6.4.1 (a3dbbd7)
C        -1.24836990420302    0.00695907206523    3.36205168124244
C        -0.37606079549373   -1.15677072858152    3.32776514300573
C         1.00776997908985   -0.72860963545984    3.36195428765322
C         0.98978516980739    0.75468925910065    3.32287354847013
C        -0.34614457467601    1.19237835538684    3.32381183090946
C         2.35065513750915   -2.57117426362319    0.62935009643620
C         3.18666032655329   -1.40675553239649    0.63830646923769
C         2.94574556533255   -0.70779610658963    1.82278463698247
C         1.98129489732854   -1.43970975592249    2.54865513324674
C         1.56171809743161   -2.57883315093092    1.85017009395709
C         3.18930874696577    1.42769964105351    0.59779532371880
C         2.34283480060091    2.59532205628400    0.56412482306075
C         1.61799624970354    2.63328792134598    1.85197346891156
C         1.96785180073563    1.38804942681354    2.58533536109308
C         2.95298251454109    0.71256359719855    1.82981631206132
C        -0.37474631445690    3.47079289229906    0.59756110720299
C        -1.73080796156602    3.02909706045137    0.56173214346087
C        -2.01473054330733    2.34504579018283    1.85281814261640
C        -0.71158489167565    2.31137526062825    2.57976557132488
C         0.19941525939298    3.02286379393033    1.82851791531827
C        -3.41991286134283    0.72292588119969    0.59108943398970
C        -3.42348431653544   -0.73398119609495    0.59480488373180
C        -2.81091903767659   -1.17528668765467    1.81414846208878
C        -2.45043941868380    0.01272414529951    2.53481060145807
C        -2.81117438465159    1.11536219700313    1.83451625114545
C        -1.74882462151383   -3.02596731940510    0.59874823486653
C        -0.37048037070261   -3.47439617482210    0.61176796435320
C         0.25469380684331   -3.03863050167061    1.79546823552716
C        -0.76721905209200   -2.34318453167396    2.62271101417632
C        -2.00138611451390   -2.30738919398871    1.79480236980814
C        -0.27092042086720   -3.03631728166621   -1.80244310565852
C         0.74916352527767   -2.32807410768268   -2.56335700770985
C         1.99577767427138   -2.28997494094509   -1.82940928107320
C         1.72140863060989   -3.03328071103053   -0.61887785788295
C         0.33780434439686   -3.47643836222725   -0.60099555425816
C         2.78327578617510   -1.16106594852174   -1.84999189624589
C         2.42455171163313   -0.00069195067138   -2.57589621298652
C         2.82313488142554    1.12621139353166   -1.81934930110022
C         3.41571052849741    0.75553631759993   -0.60871915667874
C         3.46907196811472   -0.72959385965749   -0.61397665587384
C         2.01416625794678    2.34676375870412   -1.85436337449152
C         0.71331711716474    2.30926206844250   -2.58939017729769
C        -0.24061371502602    3.02938339830571   -1.82769166592311
C         0.36770868377618    3.47568646938465   -0.59845273735965
C         1.72886826763278    3.02480876890437   -0.56279217336492
C        -1.58357907296188    2.58894687608697   -1.83266256909192
C        -1.92490555592140    1.44203316165882   -2.58636966433876
C        -2.99797525750304    0.72045129789794   -1.85126001602661
C        -3.18027107688533    1.42877885283061   -0.55798439655320
C        -2.33565578732087    2.59741715909735   -0.59544947836795
C        -2.96028551743193   -0.75018983430328   -1.83396974659134
C        -1.97370031075827   -1.42434543977589   -2.57312280554423
C        -1.59315011582471   -2.60029180687493   -1.82341478803562
C        -2.34391033582031   -2.59942038388724   -0.59945648774546
C        -3.18705838406060   -1.42722611363550   -0.59972493252220
C        -1.02204790333078   -0.70391755144384   -3.32583521358024
C        -0.99683879208293    0.72909042123448   -3.32387437427205
C         0.37766254804646    1.17878037647531   -3.32150308753823
C         1.24361632258799    0.03152047888513   -3.32975438608541
C         0.36512872365056   -1.13155852959191   -3.33036441447874
C        -1.80348088491408    0.00972876373461    4.79227682367610
F        -1.00440120422544    0.09301611697735    5.72229923360806
F        -2.54268255784315   -1.03826358900343    5.06193799723715
F        -2.53717722620163    1.08095638572823    5.04690314880406
C         2.41153370893635   -4.31384109075364   -0.89392424133047
F         2.18873751284726   -5.08617567692215   -1.80720306351105
F         3.85904813836594   -4.25771345302628   -1.32956481598430
F         2.16665926314756   -5.46861729584281   -0.04350922515822
C         1.46152310079199   -1.04744407332787    4.79329096913258
F         0.86777004638391   -0.51623684989042    5.72385497871223
F         1.44806430665038   -2.33324287040206    5.06059672435377
F         2.69509123347712   -0.61132616422393    5.03964918922296
C         3.35945419459970   -3.63060712244895    0.95414628512162
F         4.07957489676951   -3.50262273672531    2.01146113062227
F         4.49989193960313   -3.80188868831072    0.10145435533113
F         2.88023129128995   -4.94906597542672    1.34298521044557
C         4.93980865165408   -1.00920076788109   -0.87175123796830
F         5.36600722881361   -0.44846832630347   -1.99287114874521
F         5.17527097347352   -2.32398585542648   -1.03437519384381
F         5.71362191321178   -0.61144207706490    0.12362651897243
C         2.85159803328437    3.34088514891395   -2.63712579310996
F         2.23199156735707    4.51060789978537   -2.75531863217351
F         3.10805442378693    2.89699101579821   -3.87012310983053
F         4.02106592357561    3.56109860635112   -2.04300318767765
C         2.29489963971589    3.74490575967574    2.64047023216685
F         3.60000164644407    3.51667121384128    2.75424967841727
F         2.14426800051761    4.92350347016762    2.04187907807895
F         1.79571290469763    3.85062807186108    3.86742366378072
C        -4.26901262785757    1.02692266720528   -2.63474684082729
F        -4.45729662683892    2.33770430613831   -2.75575637005655
F        -4.21674261483443    0.51694055357663   -3.86922002725529
F        -5.34591259754386    0.51737606293034   -2.04316014702920
C        -2.85207217501505    3.33901376148903    2.63886756888680
F        -2.23173914370520    4.51092036709879    2.75275140384195
F        -4.02059231843025    3.56143494448204    2.04077549386288
F        -3.11112820544607    2.90824373162355    3.86124056592693
C         0.49058751440861   -1.54949664768903   -4.76212085065864
F         0.23024348725962   -0.70201590727428   -5.69372244857824
F        -0.42400330563023   -2.53379511995373   -5.28480978273944
F         1.84173550189814   -1.80612666371899   -5.28590021177822
C        -1.09039150877741   -3.34111361350793    3.72849477376302
F        -1.46615952766900   -4.51749883999684    3.22197200931090
F        -0.05753922879289   -3.59563286201778    4.49797763238038
F        -2.06554667798718   -2.94343236465258    4.49903620036947
C         1.04819713092737   -3.32549398517463   -3.61299298342070
F         1.36882163376883   -4.49180726694261   -3.44940094539608
F        -0.02682765192837   -3.88271952101729   -4.42129130436791
F         2.31945039613285   -3.13670167302375   -4.42899672796236
108
 energy: -323.828108154484 gnorm: 0.490844336752 xtb: 6.4.1 (a3dbbd7)
C        -1.25903848341607    0.01210293395908    3.39081435099779
C        -0.37654251209320   -1.15263974419897    3.31965112877101
C         1.01557347547673   -0.73026989726208    3.39191297073869
C         0.98679450341159    0.75792130235113    3.31160869428350
C        -0.33692500613088    1.19416846523476    3.31487302942429
C         2.37623192651737   -2.59907923205768    0.63904726023077
C         3.17521480564899   -1.38784727197078    0.64024173760729
C         2.94112599095495   -0.70580337348544    1.81552002140356
C         1.97575845706446   -1.43702659275450    2.54205721004067
C         1.54707116553536   -2.56140648998051    1.84798301218974