63
 energy: -142.083030384157 gnorm: 0.137343133597 xtb: 6.4.1 (a3dbbd7)
C        -1.29585809763920    0.00401118881931    3.54517689231029
C        -0.36796043466059   -1.17243305044266    3.30515820987539
C         0.98298838984909   -0.72191219210780    3.27512267957929
C         0.98156472691728    0.71960753564614    3.26971969840148
C        -0.37066843430553    1.17924059866277    3.30150764324135
C         2.33648296598357   -2.58548060321166    0.57950289371033
C         3.18657767566203   -1.41946403917212    0.57781419536533
C         2.94957050634668   -0.69854930588343    1.80123308089156
C         1.95308396825138   -1.41752165469557    2.55613481597303
C         1.57961582984989   -2.57968580834158    1.80518673258983
C         3.18767024138397    1.40991878537575    0.57593180017933
C         2.33807592119235    2.57402574463448    0.57591940987423
C         1.57683795447400    2.56605672116665    1.79975339077111
C         1.95304946478205    1.40835201085528    2.55205927541471
C         2.95072023090319    0.68875745027160    1.80098024590342
C        -0.36516779392141    3.42666371311492    0.57921714402649
C        -1.72924376731069    3.01648005687427    0.58287705229366
C        -2.09463355901587    2.46231282969886    1.94730853737491
C        -0.73027134368917    2.28553619224850    2.58224921046650
C         0.24829448370074    2.97593693088527    1.80334175247540
C        -3.37466967439567    0.70300551329579    0.57574930039426
C        -3.39003092771629   -0.73268815670587    0.56838248256510
C        -2.76818811346571   -1.16356142396752    1.78871572205038
C        -2.38904763717889    0.02437925858140    2.53264263708558
C        -2.74834472581071    1.12995086235998    1.81420011509538
C        -1.73481952354600   -3.00995345707075    0.57938225067925
C        -0.36149853487188   -3.44686666226009    0.58178847329193
C         0.25217194576597   -2.99475012297255    1.80551622011247
C        -0.72930832450935   -2.27346636848304    2.56467955460776
C        -1.97147545437730   -2.28746259180062    1.79868366143107
C        -0.24419850633136   -3.01431906314620   -1.82647673825261
C         0.74940205395547   -2.29291975806330   -2.58286291039202
C         1.97453700920709   -2.29239152825096   -1.82543977569151
C         1.74139873391846   -3.01127177396538   -0.59946235539016
C         0.36858334361035   -3.45436466601281   -0.59762914030018
C         2.79442417375665   -1.17031401238235   -1.82833550582627
C         2.41574661868216   -0.00512369138436   -2.58546959698227
C         2.79806943058290    1.16104826437995   -1.83045397159780
C         3.41356646756867    0.71553904959985   -0.60565027126811
C         3.41126633543504   -0.72579612437446   -0.60436594375932
C         1.98256115237360    2.28538932475628   -1.82964816243890
C         0.75350030248264    2.28551308222168   -2.58573232043658
C        -0.23508280223273    3.00436687434747   -1.82344140510130
C         0.37359850933878    3.44286488634390   -0.60220138875814
C         1.74684322375821    3.00246743965493   -0.60372642363152
C        -1.55566653240424    2.56818250404503   -1.80941223602174
C        -1.93859434660526    1.40592010808590   -2.57168095899201
C        -2.93551210472019    0.68461262540438   -1.82146846795257
C        -3.16898901543324    1.39767486955451   -0.59605965569985
C        -2.30435127708354    2.57332623889815   -0.58497549494069
C        -2.94114405324375   -0.70773319319533   -1.83440725651199
C        -1.94505174587464   -1.42387954866205   -2.59102123509086
C        -1.56548890453788   -2.59170746569988   -1.83211639417485
C        -2.32839595521473   -2.59312664308342   -0.60918315809929
C        -3.17773883520354   -1.43218193780650   -0.61434027481289
C        -0.98775846768414   -0.72638522805960   -3.31322849835342
C        -0.98659864734294    0.71557045446948   -3.30737103344774
C         0.38544609972999    1.16109326157285   -3.31071431262535
C         1.23106807690940   -0.00470839623161   -3.31198800118088
C         0.38446650877846   -1.17000629315169   -3.31255499434049
Cl       -1.95494402211016   -0.00808767691631    5.23350834623694
Cl       -3.13453400293270    3.62205440046694    2.87428256889563
Cl        4.80966284760386   -2.15390482712746    0.89764423399539
63
 energy: -142.107000510409 gnorm: 0.059279212323 xtb: 6.4.1 (a3dbbd7)
C        -1.29944310913926    0.00504323122469    3.54719743201428
C        -0.37267615056947   -1.17199151775622    3.30815448614544
C         0.97655695315567   -0.71796158254550    3.28042501918512
C         0.97712970913997    0.72152824536053    3.27628229435712
C        -0.37464227655430    1.18061659531752    3.30430327269412
C         2.32008013356174   -2.58791441247486    0.57984338120413
C         3.28300418291711   -1.46476520293485    0.59826940369253
C         2.93610393783659   -0.69142031935583    1.80869272133835
C         1.94395819880561   -1.41063846639165    2.55211278542574
C         1.56997605830147   -2.57481281185797    1.80029031834466
C         3.18230388315471    1.41237966614075    0.57341981935102
C         2.33674150492742    2.57279770326796    0.57514181892481
C         1.57445819781878    2.56521698868365    1.80000739429997
C         1.94843352229694    1.41109202832463    2.55708006318457
C         2.93655468810343    0.68929168551976    1.80072059093586
C        -0.36667936813122    3.42686661856637    0.57927730081018
C        -1.72957875127812    3.01679227944962    0.58272401919585
C        -2.09577962418822    2.46270859645006    1.94699269160627
C        -0.73223802868347    2.28613003273076    2.58323712860360
C         0.24653156513979    2.97532577485792    1.80357146021417
C        -3.37600704815354    0.70333608685879    0.57618573840053
C        -3.39127267825741   -0.73155992620396    0.56886403133681
C        -2.76984749906078   -1.16244430876167    1.78947028268220
C        -2.39122688308220    0.02479355970943    2.53374148234657
C        -2.74943569674119    1.13027603464851    1.81379262999536
C        -1.73890716856087   -3.01096263986467    0.58128022062662
C        -0.36799083532939   -3.45067247857002    0.58452522621218
C         0.24399668883702   -2.99749548901730    1.80635228117895
C        -0.73423080738101   -2.27385330775089    2.56703613547974
C        -1.97504971014220   -2.28775282676625    1.80022940918906
C        -0.24597442165430   -3.01272596259604   -1.82516503240376
C         0.74866739957283   -2.29075516585784   -2.58233739916703
C         1.96930353507103   -2.28793886427061   -1.82777258700193
C         1.72868700044816   -3.00478826043818   -0.59639153408348
C         0.36234549532387   -3.45766157743982   -0.59670282758837
C         2.78498119091392   -1.15808370472550   -1.82958065014745
C         2.41175569665274    0.00407365972860   -2.59643473645252
C         2.79329343010157    1.16821535905865   -1.84193911114779
C         3.40045961116664    0.71561909849245   -0.61379087307232
C         3.42140793830190   -0.71549788390671   -0.62554997713207
C         1.97909482006933    2.29129853497796   -1.83554073404378
C         0.74976529559096    2.28912799267219   -2.59018544052137
C        -0.23756441125469    3.00583200956729   -1.82508273328590
C         0.37293311355244    3.44312369886564   -0.60316493124251
C         1.74446450723772    3.00553215758703   -0.60685672588427
C        -1.55709580857641    2.56892293131256   -1.81053067671711
C        -1.93999493836257    1.40686676798258   -2.57314499650178
C        -2.93578590536866    0.68524360782592   -1.82174271569296
C        -3.16892570306045    1.39854188960947   -0.59680120290092
C        -2.30590404750921    2.57356736267150   -0.58569502218124
C        -2.94070822156293   -0.70710921532439   -1.83470561878984
C        -1.94629932761178   -1.42312208507909   -2.59155207077875
C        -1.56655784691210   -2.59024555335619   -1.83102224811891
C        -2.33064871726825   -2.59286199662841   -0.60852849623313
C        -3.17815697300060   -1.43191746970826   -0.61387667420746
C        -0.98849397810272   -0.72509654275633   -3.31514821437686
C        -0.98908772508438    0.71725454366838   -3.30989814755514
C         0.38179589747819    1.16491189273982   -3.31569692456083
C         1.22718990816236   -0.00020315952024   -3.32012488678363
C         0.38203911222371   -1.16696813917200   -3.31688285596099
Cl       -1.95676545600946   -0.00881352764194    5.23591601064192
Cl       -3.13553119922803    3.62204674814583    2.87403931561016
Cl        4.94009676734018   -2.21849747168027    0.93262222439363
63
 energy: -142.112925792122 gnorm: 0.013715976836 xtb: 6.4.1 (a3dbbd7)
C        -1.30379723660087    0.00607843013769    3.54757849018266
C        -0.37563517739912   -1.17042432496551    3.30726652756233
C         0.97288125661799   -0.71499910160007    3.27702523700076
C         0.97238981335236    0.72148962242500    3.27535825715788
C        -0.37910623849209    1.18245063008602    3.30612465741633
C         2.32210630075060   -2.59264041554372    0.58045209180415
C         3.36666300983654   -1.50580789065068    0.61823129721771
C         2.93855543593760   -0.69190441348785    1.81239116733758
C         1.94247809314589   -1.40349246199386    2.54147822332416
C         1.56861409281631   -2.56855967088990    1.78998305957196
C         3.18233944969206    1.41376150645128    0.57292749428622
C         2.33455377435094    2.56845217959990    0.57327245332610
C         1.57079838318393    2.56295853840957    1.79776515651563
C         1.94327351320630    1.40729500551553    2.55199594144773
C         2.93341640599371    0.68361168700205    1.79912091652301
C        -0.37012125749256    3.42775325304902    0.57892632310919
C        -1.73190613852208    3.01801093097310    0.58221741002298
C        -2.09883640867934    2.46401482812172    1.94645865036356
C        -0.73560977485313    2.28727017737166    2.58358944455276
C         0.24365342164967    2.97525451030183    1.80292039761379
C        -3.37895174643327    0.70493008072875    0.57642159744664
C        -3.39418524260610   -0.72948017965148    0.56927704541302
C        -2.77351758222609   -1.16061681600898    1.79021129102566
C        -2.39575777846638    0.02610570891362    2.53460811078741
C        -2.75302642232869    1.13184119900168    1.81335119145408
C        -1.74307525368314   -3.01098629929539    0.58236714175034
C        -0.37150988027064   -3.44739576233809    0.58563397318435
C         0.24124142117961   -2.99472797284470    1.80356925615913
C        -0.73727467781950   -2.27258492739949    2.56642255434896
C        -1.97865022242025   -2.28660619803605    1.80119057666807
C        -0.24756095092427   -3.00839045296761   -1.82342086720778
C         0.74894298128077   -2.28684362061134   -2.57953377846608
C         1.96887844471581   -2.28787939599285   -1.83013599938274
C         1.72884906425572   -3.00042949481453   -0.59174582359621
C         0.36135203413105   -3.44976354023168   -0.59461023487020
C         2.78042958328005   -1.15362986869040   -1.82143523191761
C         2.40590984509993    0.00652359799452   -2.59559563224130
C         2.78651338044999    1.16817261726772   -1.84222483891473
C         3.39185328267810    0.70773521909042   -0.61273611300252
C         3.41794548237199   -0.71249652656405   -0.62880349655986
C         1.97437145982293    2.29247267954128   -1.83720877022611
C         0.74590236389025    2.29240956565294   -2.59385267538816
C        -0.24131515089596    3.00774743545674   -1.82691114255682
C         0.37078570998653    3.44330820395240   -0.60391219224162
C         1.74039106467898    3.00728676760749   -0.60877634960640
C        -1.56025097887423    2.57089593946322   -1.81185935979557
C        -1.94328011026495    1.40887923875334   -2.57474702125423
C        -2.93837930689892    0.68727427723011   -1.82206739773185
C        -3.17055024205051    1.40054605406842   -0.59745364513891
C        -2.30945252130002    2.57506330518375   -0.58660668715383
C        -2.94215346761171   -0.70509340282817   -1.83473589998234
C        -1.94928293350249   -1.42111633412601   -2.59150813434304
C        -1.56845665723205   -2.58788660118174   -1.83013963261795
C        -2.33373484248759   -2.59157344420672   -0.60798149266163
C        -3.17972705283441   -1.43027640131035   -0.61321341980018
C        -0.99063236726813   -0.72322374008891   -3.31598823789549
C        -0.99298156104043    0.71980188405365   -3.31231189853038
C         0.37783649444485    1.16821923620953   -3.32001622760083
C         1.22284039339595    0.00235847595647   -3.32192681055341
C         0.37834763913361   -1.16419346555219   -3.31917554541688
Cl       -1.95981887182057   -0.00995641606998    5.23681359511052
Cl       -3.13873912243015    3.62317542769430    2.87305102787635
Cl        5.03877320778426   -2.26232756165910    0.95258634418109
63
 energy: -142.113234699891 gnorm: 0.008160546322 xtb: 6.4.1 (a3dbbd7)
C        -1.30533542674754    0.00660554683661    3.54761162182149
C        -0.37618819518557   -1.16924122514552    3.30560269324198
C         0.97237733814134   -0.71466200280441    3.27343587927885
C         0.97093187940935    0.72091851232334    3.27314079703376
C        -0.38073617237113    1.18319282952406    3.30633648365615
C         2.33071409006405   -2.59744273330876    0.58154064837244
C         3.38644603305947   -1.51650683816888    0.62423842571055
C         2.94737960498583   -0.69524875556784    1.81451592112180
C         1.94462138640060   -1.40204389782337    2.53804821097058
C         1.57081130355707   -2.56733464312409    1.78668881207208
C         3.18421387245412    1.41474882691566    0.57367062661443
C         2.33390873865422    2.56687863710727    0.57248098104113
C         1.56910025533238    2.56075694007544    1.79591713885761
C         1.94179048827894    1.40394377103680    2.54805220233595
C         2.93700040417565    0.68091322462736    1.79931996072357
C        -0.37182678839539    3.42820617811029    0.57870844284603
C        -1.73344341149821    3.01888076178750    0.58188793680772
C        -2.10072876159387    2.46497828448412    1.94622967498117
C        -0.73731565864330    2.28751922197059    2.58327781661994
C         0.24233125454024    2.97460546787680    1.80211700578177
C        -3.38069506503335    0.70602350506634    0.57646036106458
C        -3.39605040671803   -0.72843549404619    0.56947911145607
C        -2.77545827154235   -1.15972967234744    1.79055888442158
C        -2.39766715880135    0.02692144916471    2.53482407724196
C        -2.75500403327405    1.13282373434457    1.81323003563251
C        -1.74435446451650   -3.01014222125561    0.58252811863836
C        -0.37170177995919   -3.44448292267510    0.58569371687942
C         0.24196865602109   -2.99166527785702    1.80200969498395
C        -0.73778225983063   -2.27110410295554    2.56508444219715
C        -1.97995084632604   -2.28563483755531    1.80136592696843
C        -0.24759104018247   -3.00525972614911   -1.82185935995151
C         0.74914747228695   -2.28550860001483   -2.57881278386643
C         1.96986233181430   -2.28978415900721   -1.83184257925140
C         1.73301067305968   -3.00122230331547   -0.59052609513064
C         0.36270034753482   -3.44462598318808   -0.59315516175769
C         2.78112658245394   -1.15499420589635   -1.81763839197414
C         2.40330527397013    0.00561452826603   -2.59246973117761
C         2.78348770383000    1.16630630950666   -1.83943848892556
C         3.39160663473654    0.70380621091121   -0.61010760771189
C         3.41545842414748   -0.71435637924356   -0.62512942063948
C         1.97246359204183    2.29150835440621   -1.83667962052511
C         0.74457931990281    2.29307727797831   -2.59448731807458
C        -0.24282283784506    3.00864300113063   -1.82755453441941
C         0.36964945004697    3.44333322533769   -0.60400240614189
C         1.73865130327542    3.00737998103417   -0.60883868711864
C        -1.56180403315584    2.57210824707682   -1.81254922677337
C        -1.94494291745489    1.40991206113834   -2.57555268303845
C        -2.94000417994772    0.68844720968282   -1.82230472080359
C        -3.17186753999490    1.40170476336969   -0.59770109188777
C        -2.31131233962555    2.57613394678527   -0.58710883946964
C        -2.94339713913188   -0.70396353206145   -1.83466489498230
C        -1.95083076231340   -1.42005182638629   -2.59130309395876
C        -1.56894572779838   -2.58611114096472   -1.82923749260983
C        -2.33491675717877   -2.59022215101871   -0.60756332093916
C        -3.18110636962594   -1.42916759563941   -0.61291944096718
C        -0.99187765937259   -0.72255304398911   -3.31601006111129
C        -0.99468699581656    0.72076804703910   -3.31324888437743
C         0.37645084530026    1.16894293538189   -3.32091772595896
C         1.22132094952231    0.00271828772170   -3.32102612987622
C         0.37675120589351   -1.16354881682388   -3.31938516221005
Cl       -1.96221046311109   -0.01211987318612    5.23663617936942
Cl       -3.14158956701817    3.62439164984683    2.87146443576555
Cl        5.05658724250303   -2.26770745468215    0.95183103620948
63
 energy: -142.113334278098 gnorm: 0.004702173131 xtb: 6.4.1 (a3dbbd7)
C        -1.30577421661866    0.00701272631502    3.54794365935718
C        -0.37642664244215   -1.16851081408122    3.30467597774632
C         0.97193143396500   -0.71440512745558    3.27121908240387
C         0.97032738593449    0.72088914340495    3.27214477025322
C        -0.38146687444438    1.18390091399317    3.30689829790001
C         2.33563617594475   -2.59973575558278    0.58197930378528
C         3.39452059911283   -1.52106715567738    0.62699473699244
C         2.95246514015671   -0.69698238945468    1.81529304174390
C         1.94532687759617   -1.40085074804382    2.53595575348504
C         1.57144583213973   -2.56626036419224    1.78472112679442
C         3.18560383362055    1.41623442803894    0.57439312203127
C         2.33400407831554    2.56676983721403    0.57227396866610
C         1.56836324992422    2.55954670662980    1.79492117058883
C         1.94107995474925    1.40210050791854    2.54600730421695
C         2.93892963776046    0.67990534304371    1.79938014644990
C        -0.37234168566846    3.42853968747786    0.57875496609791
C        -1.73383563598900    3.01929014328284    0.58184026213939
C        -2.10142663500604    2.46545461796018    1.94625377759127
C        -0.73796710205850    2.28771998754394    2.58329505987338
C         0.24194283666821    2.97438096079437    1.80186071524950
C        -3.38117420349170    0.70639867975620    0.57657570971581
C        -3.39680628252736   -0.72814839002521    0.56959473088461
C        -2.77633259973723   -1.15947066338080    1.79084693598259
C        -2.39814252830970    0.02717951801172    2.53492771285017
C        -2.75553292767161    1.13315512132303    1.81318112045892
C        -1.74514695686349   -3.00991679907656    0.58248003477160
C        -0.37191244244830   -3.44321648355967    0.58565087663699
C         0.24221293222153   -2.98956708721168    1.80111432455551
C        -0.73812493182006   -2.27023553519046    2.56430600139337
C        -1.98062007849796   -2.28540889831649    1.80143647336682
C        -0.24752858473270   -3.00373875161755   -1.82100015331585
C         0.74922650678939   -2.28541019034016   -2.57889099761649
C         1.97008640700256   -2.29140061374458   -1.83320420416202
C         1.73495386662292   -3.00164609230894   -0.58997960668110
C         0.36338549809846   -3.44194484415756   -0.59219275843852
C         2.78141807707297   -1.15629744059727   -1.81525120443377
C         2.40176219448318    0.00488450196895   -2.59024926073441
C         2.78168449212877    1.16503459393686   -1.83748305271010
C         3.39164735433359    0.70170342459112   -0.60804940990731
C         3.41227148818399   -0.71549086586131   -0.62188057013044
C         1.97187747733705    2.29092440757425   -1.83627824885057
C         0.74437302757767    2.29307524903239   -2.59452730659913
C        -0.24309871231773    3.00899166930895   -1.82775112106302
C         0.36948277014671    3.44342924193476   -0.60388509465864
C         1.73808148915236    3.00766870897090   -0.60863288885434
C        -1.56204376195180    2.57250672693938   -1.81278536434669
C        -1.94525342198584    1.41013102882436   -2.57585876881741
C        -2.94037773126136    0.68877833815974   -1.82234750902576
C        -3.17199156976708    1.40204054891357   -0.59770188722492
C        -2.31174932787433    2.57645226425284   -0.58723128240660
C        -2.94382649713427   -0.70365083182750   -1.83469097345732
C        -1.95147871137521   -1.41983411297030   -2.59135986524372
C        -1.56917135829531   -2.58564240120910   -1.82907339103092
C        -2.33536867974554   -2.58964952165615   -0.60749309280120
C        -3.18176620124536   -1.42879963225572   -0.61283735655442
C        -0.99228910295634   -0.72259947610078   -3.31611007182921
C        -0.99513024093672    0.72091953493760   -3.31369514914192
C         0.37620358770112    1.16893324772790   -3.32111385589757
C         1.22085953395489    0.00257405988246   -3.32048710317571
C         0.37605255916438   -1.16369075049476   -3.31958679508467
Cl       -1.96355204810554   -0.01412848361658    5.23659742843147
Cl       -3.14300295922936    3.62489325290237    2.87062865062561
Cl        5.05911398203427   -2.26587739089653    0.94743444624161
63
 energy: -142.113374938210 gnorm: 0.002463513808 xtb: 6.4.1 (a3dbbd7)
C        -1.30578739363699    0.00713154975339    3.54827995208731
C        -0.37647144006274   -1.16825995305329    3.30448757411102
C         0.97165731234902   -0.71430503124718    3.27058451961426
C         0.97022718217202    0.72104247502892    3.27220198536755
C        -0.38166872173076    1.18418670263812    3.30739780780733
C         2.33671491396098   -2.59993531527296    0.58190951496055
C         3.39690255719847   -1.52235541322155    0.62768907972895
C         2.95356481254574   -0.69729710429712    1.81514899954255
C         1.94505466889963   -1.40011691715894    2.53504902898235
C         1.57109696484595   -2.56556263198607    1.78389474817827
C         3.18616959793876    1.41725101790309    0.57485940528472
C         2.33443053656206    2.56720558363971    0.57249666102114
C         1.56833737172873    2.55925077611366    1.79481414130869
C         1.94088496506415    1.40151962628326    2.54563668401933
C         2.93907946433652    0.67979091911173    1.79934944762485
C        -0.37214470118984    3.42864298929809    0.57889027755464
C        -1.73357425058544    3.01936105190323    0.58185853040670
C        -2.10134493134865    2.46554608162478    1.94628357889230
C        -0.73795658428340    2.28769970936395    2.58338058886486
C         0.24210198414501    2.97441606866770    1.80198664017322
C        -3.38101201282508    0.70640329616723    0.57662348290385
C        -3.39679787292345   -0.72819368335743    0.56964855571160
C        -2.77645425215157   -1.15949419026699    1.79101075146775
C        -2.39802865604978    0.02718669639451    2.53495720210220
C        -2.75531929441187    1.13314238098105    1.81310492971854
C        -1.74548875109892   -3.01013123175104    0.58253578880333
C        -0.37210173878829   -3.44319270095467    0.58568305657499
C         0.24213026551952   -2.98884004525741    1.80095448721207
C        -0.73828952255337   -2.27001049040076    2.56414370208851
C        -1.98080386245018   -2.28555944991513    1.80152933487220
C        -0.24744711377061   -3.00355905167847   -1.82072499531203
C         0.74928614746242   -2.28591772664685   -2.57924434020766
C         1.96992658986608   -2.29223636334610   -1.83396417598238
C         1.73506316793843   -3.00156074619057   -0.58981902793897
C         0.36352602117873   -3.44133494085711   -0.59174721412528
C         2.78116864128550   -1.15681991563049   -1.81421441860853
C         2.40129602591843    0.00465137139276   -2.58942744009879
C         2.78110438077691    1.16456033869919   -1.83680234602424
C         3.39135676409708    0.70097994608882   -0.60704232787351
C         3.40951911529493   -0.71569654063200   -0.62013516050293
C         1.97211566580047    2.29079738989065   -1.83613742447878
C         0.74472944985953    2.29283718364024   -2.59435722298143
C        -0.24274110445705    3.00893721443696   -1.82769875262645
C         0.36986113895855    3.44345355891184   -0.60373215842305
C         1.73824444982279    3.00794805931244   -0.60837212541849
C        -1.56160748192744    2.57239919108651   -1.81276874010203
C        -1.94484698182513    1.40995553795037   -2.57585310218074
C        -2.94004201226096    0.68866959988905   -1.82230844590902
C        -3.17156391456702    1.40197006792852   -0.59767820921315
C        -2.31142870375338    2.57634752759732   -0.58721092821462
C        -2.94366219127777   -0.70375372967641   -1.83469241930540
C        -1.95143377209285   -1.42002574192964   -2.59138340824985
C        -1.56915388341314   -2.58587212322997   -1.82908457452206
C        -2.33535176855737   -2.58963783476380   -0.60741969710139
C        -3.18177964188932   -1.42883756980563   -0.61279617047318
C        -0.99211592151761   -0.72289762145228   -3.31614551454974
C        -0.99485214510657    0.72071652633236   -3.31374444348690
C         0.37653254116495    1.16867663012524   -3.32099902115507
C         1.22102845984479    0.00231419094357   -3.32042650790001
C         0.37600218919472   -1.16408936684359   -3.31976575854859
Cl       -1.96417925145122   -0.01501257203170    5.23658235816698
Cl       -3.14327682162024    3.62482984806181    2.87033998546643
Cl        5.05522297723174   -2.26147359264154    0.94233561598267
63
 energy: -142.113386824343 gnorm: 0.001330794207 xtb: 6.4.1 (a3dbbd7)
C        -1.30569928621234    0.00706293372636    3.54837560069221
C        -0.37644887911885   -1.16835224930685    3.30470130833046
C         0.97162270310569   -0.71433972741724    3.27099797496347
C         0.97034890714357    0.72113933894679    3.27261091067783
C        -0.38157738268484    1.18411657935463    3.30754448352224
C         2.33569593820763   -2.59937814889149    0.58182061037787
C         3.39669001834871   -1.52210194101982    0.62741910118837
C         2.95252490703667   -0.69693817972730    1.81493401358034
C         1.94466267830565   -1.40007939562625    2.53523713155169
C         1.57066975606114   -2.56553135038274    1.78409277526662
C         3.18608670212450    1.41737288569957    0.57498869572477
C         2.33473775936721    2.56750231747449    0.57277373890119
C         1.56861557849436    2.55951249611988    1.79514885050088
C         1.94099892650163    1.40174760821113    2.54612369582268
C         2.93852958836430    0.67998899500333    1.79941172019573
C        -0.37182875147424    3.42857664399325    0.57895517742480
C        -1.73325071550349    3.01925816728765    0.58186095279107
C        -2.10103290172529    2.46542733870190    1.94626334246242
C        -0.73771749799912    2.28759919250409    2.58341778943972
C         0.24236134235758    2.97450961908270    1.80215767787128
C        -3.38077303790915    0.70629518807657    0.57657822451185
C        -3.39653526955881   -0.72829570482948    0.56960663604620
C        -2.77625240804942   -1.15957053716018    1.79098684471050
C        -2.39784764341791    0.02712180056889    2.53492490569782
C        -2.75501829931603    1.13302577242305    1.81303202428390
C        -1.74546535657804   -3.01034823422837    0.58260675660199
C        -0.37218496816731   -3.44361863382740    0.58575583430720
C         0.24197337152845   -2.98914962940632    1.80121356311839
C        -0.73831735727118   -2.27016839814797    2.56432766407112
C        -1.98073215255505   -2.28572138984153    1.80157039792466
C        -0.24742689644990   -3.00404391175247   -1.82085111527909
C         0.74933310118865   -2.28634312153678   -2.57939598464138
C         1.96975188444864   -2.29226960725279   -1.83390188575449
C         1.73448322416466   -3.00143575341307   -0.58977401646263
C         0.36337518845887   -3.44186261598313   -0.59174488868522
C         2.78077240901100   -1.15666647772671   -1.81423226554705
C         2.40156598835331    0.00475647731716   -2.58966917905751
C         2.78138162695413    1.16468275370385   -1.83705722188141
C         3.39099733031880    0.70117724526076   -0.60703968143397
C         3.40841432324391   -0.71537691642587   -0.61997370086058
C         1.97250019029464    2.29091325263718   -1.83616417505183
C         0.74505411396512    2.29268252633993   -2.59424586640998
C        -0.24240126484674    3.00874929970057   -1.82760352691723
C         0.37020736368170    3.44339619256433   -0.60367645707956
C         1.73857375017383    3.00802495423597   -0.60825141571756
C        -1.56122881929861    2.57218482013770   -1.81268876971014
C        -1.94445898681216    1.40978149036951   -2.57575767504547
C        -2.93968829808747    0.68850923379764   -1.82229717008620
C        -3.17124589355065    1.40183198898651   -0.59770090386088
C        -2.31107285322915    2.57617020037517   -0.58717697629308
C        -2.94338103478398   -0.70390190123389   -1.83471844317335
C        -1.95116721554085   -1.42021363932136   -2.59140110356503
C        -1.56906043683527   -2.58618497936552   -1.82916776996344
C        -2.33519291645923   -2.58981480009928   -0.60740578344154
C        -3.18154346179945   -1.42896993043039   -0.61282838819902
C        -0.99181184817202   -0.72307043970953   -3.31613824974251
C        -0.99449234272366    0.72054593709860   -3.31361915561255
C         0.37685812137403    1.16851307974586   -3.32087700199198
C         1.22131579845567    0.00216264916481   -3.32057234983800
C         0.37622862918877   -1.16432320624182   -3.31980200739664
Cl       -1.96414159461516   -0.01482622717346    5.23655536371567
Cl       -3.14289086046151    3.62458703233033    2.87044121022663