62
 energy: -137.509781451936 gnorm: 0.139970610869 xtb: 6.4.1 (a3dbbd7)
C        -1.29770965891222    0.00000000000000    3.53163224767276
C        -0.37107604425475   -1.17478800586359    3.31058196643012
C         0.97979757550459   -0.72157705231961    3.28110534952822
C         0.97979757550459    0.72157705231961    3.28110534952822
C        -0.37107604425475    1.17478800586360    3.31058196643013
C         2.33544184946295   -2.58264348698296    0.58346340581249
C         3.18207169571150   -1.41543014636129    0.58234433372313
C         2.94373959867916   -0.69404060100004    1.80708186552027
C         1.95046398470883   -1.41556779135961    2.56176558167067
C         1.57767488865866   -2.57871801508103    1.80912454278211
C         3.18207169571150    1.41543014636129    0.58234433372313
C         2.33544184946295    2.58264348698296    0.58346340581249
C         1.57767488865866    2.57871801508103    1.80912454278211
C         1.95046398470883    1.41556779135961    2.56176558167066
C         2.94373959867916    0.69404060100004    1.80708186552027
C        -0.36119281684147    3.44519252612879    0.58582996047390
C        -1.73469290191499    3.00153459982720    0.58916793337350
C        -1.97220713510261    2.29308475607878    1.81059639720294
C        -0.73400332666893    2.27691900303500    2.56853480078419
C         0.25309257506893    2.99789064535074    1.80898867763471
C        -3.39649784746455    0.71758744312072    0.57410478167568
C        -3.39649784746455   -0.71758744312072    0.57410478167568
C        -2.77168037603652   -1.14964415915414    1.80664876434809
C        -2.42168465399864    0.00000000000000    2.56054627302143
C        -2.77168037603652    1.14964415915414    1.80664876434809
C        -1.73469290191499   -3.00153459982719    0.58916793337351
C        -0.36119281684148   -3.44519252612879    0.58582996047390
C         0.25309257506893   -2.99789064535073    1.80898867763471
C        -0.73400332666892   -2.27691900303499    2.56853480078419
C        -1.97220713510261   -2.29308475607878    1.81059639720295
C        -0.24585893810850   -3.00970705822685   -1.82232538763502
C         0.74439012833927   -2.28841876480361   -2.57822875384061
C         1.97268106729833   -2.28861170675520   -1.82114897801170
C         1.74031203428013   -3.00832022201671   -0.59623578829480
C         0.36724813466371   -3.45114129717027   -0.59443426078026
C         2.79027372790168   -1.16551010025889   -1.82330670861298
C         2.41077011246349    0.00000000000000   -2.58030971859023
C         2.79027372790168    1.16551010025889   -1.82330670861298
C         3.40598095600767    0.72109250237888   -0.59875668403540
C         3.40598095600767   -0.72109250237888   -0.59875668403540
C         1.97268106729833    2.28861170675520   -1.82114897801170
C         0.74439012833927    2.28841876480360   -2.57822875384062
C        -0.24585893810850    3.00970705822685   -1.82232538763502
C         0.36724813466371    3.45114129717027   -0.59443426078026
C         1.74031203428013    3.00832022201671   -0.59623578829480
C        -1.56847069976934    2.58049680433801   -1.82122736601016
C        -1.94730857051169    1.41533687195356   -2.58360676406823
C        -2.94243160962768    0.69434475341889   -1.82977489504240
C        -3.17479380115303    1.41444285760430   -0.60326970185865
C        -2.32688654321742    2.58113588269429   -0.60086409487791
C        -2.94243160962768   -0.69434475341889   -1.82977489504240
C        -1.94730857051169   -1.41533687195356   -2.58360676406823
C        -1.56847069976934   -2.58049680433801   -1.82122736601016
C        -2.32688654321742   -2.58113588269429   -0.60086409487790
C        -3.17479380115303   -1.41444285760429   -0.60326970185865
C        -0.99138524268633   -0.72097607833148   -3.31029871234527
C        -0.99138524268633    0.72097607833148   -3.31029871234528
C         0.38054100031802    1.16548515734434   -3.30884687187952
C         1.22668597234242    0.00000000000000   -3.30783368151334
C         0.38054100031802   -1.16548515734434   -3.30884687187952
Cl       -1.93737486741132   -0.00000000000005    5.25509316806359
Cl       -4.79907166031781    2.14880169596718   -0.91717818015352
62
 energy: -137.534351658339 gnorm: 0.066610608939 xtb: 6.4.1 (a3dbbd7)
C        -1.29560938489825   -0.00612362805178    3.54498965927645
C        -0.36951904684631   -1.17962556886330    3.31599078639519
C         0.98108920999917   -0.72421152193418    3.28270883568146
C         0.98060871982028    0.71863417915895    3.28466510607204
C        -0.36985394657675    1.16900508025810    3.31318253183500
C         2.33679503722640   -2.58261055296978    0.58481473590647
C         3.18239333989992   -1.41503892316290    0.58313186545971
C         2.94456741504881   -0.69393805652888    1.80786668730354
C         1.95195625538203   -1.41651401942033    2.56276004614360
C         1.58002355900785   -2.57995903898873    1.81075555784608
C         3.18205948871721    1.41620319282801    0.58289019992594
C         2.33716008604528    2.58309557024431    0.58349553168659
C         1.57801034727139    2.57755598487607    1.80873335433943
C         1.95034012914641    1.41346550606787    2.56222664629484
C         2.94384936250623    0.69386743447682    1.80854752368478
C        -0.35638311411086    3.44681863124270    0.58390626064085
C        -1.72399546206360    2.99425887050254    0.58343370657138
C        -1.96306462911025    2.27863960430068    1.80611643015670
C        -0.73172729266963    2.27198294359354    2.56813860554522
C         0.25440452896847    2.99595241889418    1.80854345071380
C        -3.40268799259108    0.70413028206432    0.59093434455200
C        -3.38835925204379   -0.71516659656180    0.58082273978843
C        -2.76424420545734   -1.15319792933999    1.81801289233621
C        -2.41538720934252   -0.01248941099246    2.57467661572290
C        -2.75708195163194    1.13163119751641    1.80805448446714
C        -1.73535809514238   -3.00170121966168    0.59537746729391
C        -0.36070776806373   -3.44363990071338    0.58853649988251
C         0.25579730534057   -2.99988206229461    1.81168226555990
C        -0.73132701809079   -2.28137701329693    2.57273097858168
C        -1.97024137908102   -2.30123325980498    1.81613686225903
C        -0.24586691860463   -3.00724869054463   -1.82189746996084
C         0.74563091888963   -2.28780455529942   -2.57865099023000
C         1.97216596817914   -2.28734793503411   -1.81998753548512
C         1.73983543047870   -3.00753755776622   -0.59452968382825
C         0.36735280622643   -3.44906158506999   -0.59192853419602
C         2.79107363652565   -1.16481785382072   -1.82277859410490
C         2.41281486077525    0.00021371616088   -2.58065571755830
C         2.79198751966438    1.16630329692325   -1.82298293167775
C         3.40674170998032    0.72165773270895   -0.59832707126478
C         3.40616459845372   -0.72038094750481   -0.59823856830787
C         1.97631691834454    2.29008530121030   -1.82165496603139
C         0.74788525909165    2.28926997454639   -2.57957501292838
C        -0.23885591825097    3.01187656062366   -1.82418883839533
C         0.37240945401426    3.45414532802383   -0.59689404424428
C         1.74420770170508    3.00988849991951   -0.59737361755755
C        -1.56147380880801    2.57577394852739   -1.81990857398948
C        -1.93935034324810    1.40847899269189   -2.58303358839284
C        -2.92983042401654    0.68603995445404   -1.84191925056091
C        -3.26910819937637    1.45717304010977   -0.62710485653609
C        -2.31202666569680    2.58299544211536   -0.60490177313511
C        -2.92722674272684   -0.69601527359266   -1.83181638546452
C        -1.94176376857852   -1.41794370272871   -2.59116754092682
C        -1.56634005066646   -2.57835067973312   -1.82167456888796
C        -2.32969553635979   -2.57755954846302   -0.60017747490135
C        -3.17130309990064   -1.41900249568580   -0.60406819628501
C        -0.98557030386681   -0.72269301668104   -3.31922569112959
C        -0.98480588619828    0.71721405235054   -3.31793992672014
C         0.38449078365428    1.16505267561818   -3.31149699644280
C         1.23106400403358   -0.00020361043562   -3.31054295043095
C         0.38513523710388   -1.16602682984099   -3.31296114637439
Cl       -1.92261815078916    0.00495215475872    5.27380189642214
Cl       -4.92088605603523    2.22114311398659   -0.95408517656125
62
 energy: -137.541888976199 gnorm: 0.024086700261 xtb: 6.4.1 (a3dbbd7)
C        -1.29121980072718   -0.01091688836063    3.55002920806945
C        -0.36498287887027   -1.18600860903086    3.32210267300813
C         0.98515019109316   -0.72864832722399    3.28806380096665
C         0.98292490491653    0.71475542586555    3.28876020261179
C        -0.36620992410555    1.16459670780180    3.31827150572476
C         2.34054207173181   -2.58426393974122    0.58730419514327
C         3.18462519773544   -1.41626272474354    0.58514735640791
C         2.94617530758054   -0.69553514369877    1.81000772586701
C         1.95604980706952   -1.41927989919311    2.56632941480912
C         1.58518189803205   -2.58316076942151    1.81386861131056
C         3.18295441956450    1.41615858391447    0.58386844889932
C         2.33996395440975    2.58239094070615    0.58369939483487
C         1.57813796198444    2.57437868068352    1.80835107417956
C         1.95178921591324    1.41001423318282    2.56288075076953
C         2.94436204065825    0.69262302379396    1.81075696333659
C        -0.35730482011298    3.43747663416802    0.57994981455160
C        -1.72408617660511    2.98701305263430    0.57366900990702
C        -1.95883487374970    2.26336154332048    1.79963443912958
C        -0.73112313141155    2.26463169328312    2.56714426912235
C         0.25442876041842    2.98864946887587    1.80715068502806
C        -3.40966166470169    0.70028054037707    0.58993820698567
C        -3.36695719027985   -0.69935850718919    0.57831701394556
C        -2.75079044130980   -1.14924727599746    1.82211273173880
C        -2.40815736829204   -0.01912011639288    2.57801002969002
C        -2.75242839844390    1.12348665392946    1.79699777514834
C        -1.73356619891821   -3.00145429127386    0.60292028709274
C        -0.35767456273367   -3.44297599070854    0.59157591291322
C         0.26163737340845   -3.00358912567451    1.81545056676065
C        -0.72563136009900   -2.28802703957957    2.57866088713507
C        -1.96385502972387   -2.30771939350081    1.81903091892249
C        -0.24550179764995   -3.00334358609825   -1.82059622523762
C         0.74722441549062   -2.28684560198488   -2.57868445204657
C         1.97160224931268   -2.28561602995455   -1.81739679111306
C         1.74042575355874   -3.00713956496511   -0.59155383647083
C         0.36922596090699   -3.44772219508955   -0.58814893756539
C         2.79299022639377   -1.16485013897992   -1.82094635929769
C         2.41575733315322   -0.00037014670055   -2.58012850721769
C         2.79519481163755    1.16586696173799   -1.82189705527681
C         3.40823325372606    0.72087927277115   -0.59686329406746
C         3.40823623072527   -0.72119960868223   -0.59626812699347
C         1.98028760705449    2.28986352252307   -1.82137898537466
C         0.75053528324942    2.28828856966150   -2.57931824141738
C        -0.23597963585892    3.00695600539890   -1.82230519197245
C         0.37518078765776    3.45067659786226   -0.59832081530023
C         1.74853697674450    3.01052277527290   -0.59811469777090
C        -1.56142442783652    2.56820441829917   -1.81279093506200
C        -1.93788164879876    1.39997559929488   -2.57393909141061
C        -2.93174518263072    0.68448241788333   -1.84653822424521
C        -3.36513002153467    1.50092869317117   -0.65091703756429
C        -2.31293036890814    2.58418588253088   -0.60828698558954
C        -2.92434738077217   -0.69162679211714   -1.83453654335298
C        -1.93735530135717   -1.41403553642217   -2.59080869464626
C        -1.56280661493477   -2.57369680576643   -1.82089272790667
C        -2.33115442790494   -2.56947413492574   -0.59766708659474
C        -3.16666948605619   -1.42260022056310   -0.60664199020087
C        -0.98081621263508   -0.72180882135088   -3.32283594564777
C        -0.98063219818547    0.71466217185834   -3.31791418631003
C         0.38762619461084    1.16409581510810   -3.31189871953831
C         1.23575771150331   -0.00066780360086   -3.31210752106339
C         0.38898570809833   -1.16653055824058   -3.31726844976010
Cl       -1.89897038491941    0.00619407917121    5.28480847476264
Cl       -5.02183272761526    2.28629731805815   -0.99186979692241
62
 energy: -137.542501223063 gnorm: 0.015384081741 xtb: 6.4.1 (a3dbbd7)
C        -1.28936636815617   -0.01310831571990    3.54975300552629
C        -0.36245687374108   -1.18907019364434    3.32354225692718
C         0.98779438681827   -0.73140898157693    3.29034023940394
C         0.98509976838954    0.71219949729766    3.29114625349129
C        -0.36369664338523    1.16113349556205    3.31780340429016
C         2.34352080501255   -2.58547068072078    0.58902076504641
C         3.18680683636101   -1.41694159936033    0.58648651027558
C         2.94836630389365   -0.69683384082308    1.81179870171368
C         1.95938115682760   -1.42135170689889    2.56840434239268
C         1.58865999936790   -2.58583159877848    1.81594987520621
C         3.18417601061623    1.41602451013375    0.58484147997608
C         2.34060167343925    2.58099401898335    0.58423505997113
C         1.57757110929358    2.57143247446796    1.80853831912890
C         1.95324519535832    1.40788480839864    2.56397344875633
C         2.94541668075122    0.69165002247044    1.81215674040594
C        -0.36021147973836    3.42962513160863    0.57774858568997
C        -1.72867024875790    2.98543476014146    0.56963357394251
C        -1.96002487347298    2.25834512554276    1.79830537556964
C        -0.73105085240122    2.25911784353442    2.56568650168331
C         0.25317205312721    2.98231271673767    1.80580392338265
C        -3.40968530853202    0.70266854153623    0.58338511368393
C        -3.36662556878105   -0.69211944824105    0.57433945543456
C        -2.74572683499816   -1.14423277340618    1.81919887327787
C        -2.40717907073158   -0.01972064571287    2.57670080354468
C        -2.75744973512602    1.12689706721719    1.79326781315634
C        -1.73254935661828   -3.00031089530319    0.60595330873614
C        -0.35567277992437   -3.44288718234714    0.59297075535951
C         0.26490183113002   -3.00621686871355    1.81751835102085
C        -0.72318963185270   -2.29102967661452    2.58042263980321
C        -1.96085393493272   -2.30864301430026    1.81815003184169
C        -0.24516437630769   -2.99996804668383   -1.81883213221832
C         0.74832998612956   -2.28541968218350   -2.57726995415325
C         1.97215079441889   -2.28442311520860   -1.81546180315183
C         1.74152425141556   -3.00659288958628   -0.58965555392017
C         0.37070769459653   -3.44669331828078   -0.58569505957898
C         2.79447823484161   -1.16460442310862   -1.81963121697738
C         2.41726795357429   -0.00030031999387   -2.57947997803573
C         2.79704272197550    1.16592407697750   -1.82099783773725
C         3.40984358720341    0.72086675068595   -0.59579587066593
C         3.40968038461403   -0.72133226390632   -0.59471524321930
C         1.98152093848519    2.28962585782749   -1.82073461148145
C         0.75080349636251    2.28704778308178   -2.57836584190261
C        -0.23720755085067    3.00273866791465   -1.82132479471262
C         0.37432693930785    3.44658740827497   -0.59848395286719
C         1.74933381990212    3.00975825797977   -0.59776257470663
C        -1.56482708404009    2.56694685150486   -1.81241252553241
C        -1.94138541541624    1.39861618351103   -2.57304375325150
C        -2.94236459611184    0.68773318681916   -1.85034291150783
C        -3.38632265248842    1.51205441191802   -0.65939719718815
C        -2.32192731133186    2.58799660151443   -0.61148914590922
C        -2.92896100446279   -0.68890112512556   -1.83618634742177
C        -1.93614560336946   -1.41002520726877   -2.58811594074591
C        -1.56108906586105   -2.56976232915406   -1.81932418722938
C        -2.33228716380945   -2.56465129847226   -0.59590794616496
C        -3.17062204930033   -1.42529355797781   -0.60857815681457
C        -0.97932109091158   -0.72060457834332   -3.32223994643928
C        -0.98060154273857    0.71493490229364   -3.31628732514454
C         0.38810473416284    1.16360385266507   -3.31083438856629
C         1.23763024105281   -0.00054615510887   -3.31212961918061
C         0.39054006012306   -1.16628307661776   -3.31803736770181
Cl       -1.88139590768194    0.01018968685902    5.28921026610460
Cl       -5.03590570206311    2.29903601168927   -1.00177569478147
62
 energy: -137.542759065939 gnorm: 0.005930251749 xtb: 6.4.1 (a3dbbd7)
C        -1.28843474021391   -0.01375339143223    3.54922397954029
C        -0.36130832217085   -1.19060286337903    3.32350164873773
C         0.98906861699167   -0.73279796942118    3.29180871707254
C         0.98646230954133    0.71099657552365    3.29290381860821
C        -0.36185292511029    1.15960666627530    3.31698351912222
C         2.34519007142370   -2.58621720772566    0.58999920588468
C         3.18774113226624   -1.41709699168342    0.58709454716279
C         2.94939969591205   -0.69739328510193    1.81293930708971
C         1.96119504830662   -1.42231978827226    2.56966487867339
C         1.59069064912247   -2.58754605877215    1.81717110182891
C         3.18478417395671    1.41619045961389    0.58527841654757
C         2.34077939256010    2.58004879348852    0.58449340776843
C         1.57708740343041    2.56992269699035    1.80879472826303
C         1.95413425052068    1.40690357099992    2.56460216960908
C         2.94591763040349    0.69135639628101    1.81304973702872
C        -0.36258996314863    3.42422455028947    0.57613415154440
C        -1.73139994010012    2.98416155186064    0.56726995570837
C        -1.96117324756349    2.25469144953210    1.79855252932375
C        -0.73072468843372    2.25622014318734    2.56540144479420
C         0.25206370330877    2.97789770674599    1.80484469700412
C        -3.40818994669405    0.70468521467665    0.57797773594986
C        -3.36648439347584   -0.68651862426642    0.57128749202336
C        -2.74194198321296   -1.13969509078740    1.81745748910091
C        -2.40749013800013   -0.02085692977812    2.57641170929424
C        -2.76332637386993    1.13183372248220    1.79231184488265
C        -1.73207956020637   -2.99953690493686    0.60834820212011
C        -0.35416120591383   -3.44352799871882    0.59365826545466
C         0.26692646976813   -3.00825553543003    1.81874394815582
C        -0.72172947503388   -2.29274631002882    2.58108875912279
C        -1.95878439696127   -2.30970794834348    1.81691518379823
C        -0.24541865589578   -2.99756012632399   -1.81802770981879
C         0.74861025980176   -2.28429738649156   -2.57624541329790
C         1.97211814672743   -2.28368637632211   -1.81439289760840
C         1.74190147029888   -3.00621823129958   -0.58861914771265
C         0.37155747573102   -3.44627523409112   -0.58396980315501
C         2.79495545246655   -1.16446483146652   -1.81908628082821
C         2.41774167334964   -0.00017034619964   -2.57939750844290
C         2.79800841388446    1.16607943839269   -1.82068885426841
C         3.41047541630668    0.72099222932615   -0.59539866450232
C         3.41004500597210   -0.72130221003212   -0.59389214075262
C         1.98223991321435    2.28980375282683   -1.82033032203932
C         0.75085413036648    2.28624938479752   -2.57775111086450
C        -0.23816360108908    2.99938766479858   -1.82042279007039
C         0.37353712222924    3.44410351318192   -0.59848442771858
C         1.74971213738905    3.00934800130006   -0.59759327657015
C        -1.56674389728240    2.56587310566098   -1.81209647271586
C        -1.94347211023666    1.39757567537105   -2.57223440276912
C        -2.94996470086282    0.68985372243252   -1.85168025603822
C        -3.39583613086647    1.51746857894475   -0.66359598443211
C        -2.32840524054318    2.58976843160763   -0.61285825344788
C        -2.93167232523676   -0.68732853200005   -1.83699706809889
C        -1.93545197973256   -1.40711479637846   -2.58654287284708
C        -1.55991198482327   -2.56687099833006   -1.81860226374347
C        -2.33371685401094   -2.56160729833033   -0.59490617337758
C        -3.17306184453615   -1.42859500047604   -0.60989594745561
C        -0.97862497683093   -0.71990642556128   -3.32222864933319
C        -0.98060703415692    0.71539351475898   -3.31460076824520
C         0.38822789904576    1.16348068061170   -3.31005179850173
C         1.23849580291736   -0.00045947326769   -3.31254942203522
C         0.39121980611837   -1.16615773796235   -3.31887265416933
Cl       -1.87222111075571    0.01290360159371    5.28979981950936
Cl       -5.03413495570545    2.30236880502577   -1.00572218002857
62
 energy: -137.542810795911 gnorm: 0.002847658934 xtb: 6.4.1 (a3dbbd7)
C        -1.28874381007161   -0.01342293145039    3.54957592773923
C        -0.36155819595079   -1.19042883448535    3.32311093617365
C         0.98884767276497   -0.73263426548951    3.29184008205312
C         0.98635449237002    0.71114984302437    3.29308728939525
C        -0.36178396303420    1.15990404242469    3.31678037565238
C         2.34503430957948   -2.58615701696056    0.58991541714463
C         3.18744021182589   -1.41689011440572    0.58689318678215
C         2.94910148065901   -0.69717470070245    1.81287089982524
C         1.96101182268234   -1.42204764993500    2.56955008750131
C         1.59060659095198   -2.58748712611164    1.81705465572136
C         3.18452418281314    1.41639971838804    0.58511658521438
C         2.34053290308297    2.58004004091316    0.58441270114876
C         1.57691433927050    2.57019995030715    1.80893873272035
C         1.95396378437355    1.40709047937383    2.56448412367924
C         2.94571256904925    0.69158093711611    1.81301726823633
C        -0.36289468895546    3.42402308150051    0.57600643757806
C        -1.73086114061734    2.98362644616254    0.56718488404646
C        -1.96138333387489    2.25401568016193    1.79919398267908
C        -0.73063755981403    2.25670917069428    2.56602033172615
C         0.25177983818843    2.97777067133302    1.80491382299663
C        -3.40742612517253    0.70487914419632    0.57709232931791
C        -3.36589859676231   -0.68544140598426    0.57103228339670
C        -2.74146947493720   -1.13862649872190    1.81783086106954
C        -2.40805696963409   -0.02168919103709    2.57693456425487
C        -2.76513539548209    1.13365501956235    1.79307650552867
C        -1.73222552314340   -2.99956487101968    0.60885222796030
C        -0.35392386395218   -3.44404147124985    0.59361183129162
C         0.26697418987291   -3.00843874131777    1.81874356955329
C        -0.72170373334959   -2.29261263764843    2.58094372255089
C        -1.95854454218833   -2.31015273643063    1.81640321624893
C        -0.24580988146980   -2.99750108163617   -1.81838762110080
C         0.74826894326883   -2.28418862461167   -2.57620135456162
C         1.97177865503842   -2.28365977523074   -1.81449013597413
C         1.74165196328404   -3.00619613259441   -0.58873819272434
C         0.37150735639454   -3.44642931705657   -0.58376733594277
C         2.79455544696445   -1.16444104388565   -1.81925583108353
C         2.41734046821646   -0.00009515685150   -2.57959096478073
C         2.79776177007014    1.16614936318250   -1.82083966248407
C         3.41010533776814    0.72110398918215   -0.59561304664999
C         3.40964469657611   -0.72120236226411   -0.59400769233866
C         1.98212304014371    2.29006305382801   -1.82035265563968
C         0.75074929882474    2.28630611884098   -2.57786660628291
C        -0.23826339242058    2.99912461696935   -1.82032043524485
C         0.37341369364449    3.44432410440358   -0.59848102391011
C         1.74961441654190    3.00949284226264   -0.59770401249205
C        -1.56638853434077    2.56550021096906   -1.81200618009487
C        -1.94317008516047    1.39731683667694   -2.57202327662379
C        -2.94990832882975    0.68966968274546   -1.85074584362347
C        -3.39535164602065    1.51725453022473   -0.66312351842391
C        -2.32817521221508    2.58863898793530   -0.61227997312753
C        -2.93112396211001   -0.68728521912211   -1.83686512384599
C        -1.93551035896094   -1.40695583171911   -2.58675131838662
C        -1.55991458898616   -2.56682061309604   -1.81900573882219
C        -2.33431747219337   -2.56160437305444   -0.59504258194428
C        -3.17258752852074   -1.42960234050610   -0.60987686897895
C        -0.97875535191395   -0.72001721268693   -3.32264499341895
C        -0.98061905322735    0.71555064145662   -3.31442308584969
C         0.38809675627363    1.16363205118527   -3.31011892999700
C         1.23826968068677   -0.00046718747281   -3.31287131872690
C         0.39098994734609   -1.16620273650822   -3.31924067584429
Cl       -1.87351815880421    0.01307651378826    5.28855224019077
Cl       -5.02694741575588    2.30003312840487   -1.00442818462362
62
 energy: -137.542825970243 gnorm: 0.001815915522 xtb: 6.4.1 (a3dbbd7)
C        -1.28917847442943   -0.01314259182103    3.55027100854638
C        -0.36191405575191   -1.19011963302533    3.32301424786873
C         0.98848650771071   -0.73232382548942    3.29159491643882
C         0.98601081756858    0.71140227532548    3.29291637216914
C        -0.36208944309604    1.16031583306158    3.31688984889947
C         2.34465295804875   -2.58598998890747    0.58971929061059
C         3.18711118560071   -1.41674298343133    0.58667474960469
C         2.94870900324787   -0.69692394504263    1.81263086630956
C         1.96058031787270   -1.42169541421190    2.56923770544146
C         1.59022549880822   -2.58714348510186    1.81676642541807
C         3.18417008594365    1.41652985056045    0.58494000691567
C         2.34030002013176    2.58022997161106    0.58431107266544
C         1.57684175771846    2.57061613270627    1.80900536036446
C         1.95364016701804    1.40735507242204    2.56428336028823
C         2.94545909519588    0.69177648561114    1.81284491061251
C        -0.36267516988181    3.42482035339656    0.57622211260015
C        -1.72995625326977    2.98343782169376    0.56742717013941
C        -1.96129593871143    2.25394796597251    1.79946693582819
C        -0.73067590085994    2.25756496506528    2.56658259915711
C         0.25174166088515    2.97849874877236    1.80520340289421
C        -3.40727342867608    0.70453270176809    0.57739354104111
C        -3.36530469975209   -0.68560489332474    0.57144751533202
C        -2.74176968813597   -1.13862455937522    1.81849410803848
C        -2.40831001493111   -0.02219621440898    2.57738061351429
C        -2.76523752995711    1.13394633611600    1.79367496980754
C        -1.73245990541712   -2.99969915079530    0.60887875012788
C        -0.35400402298381   -3.44424922033229    0.59351852089468
C         0.26669067636403   -3.00818444372552    1.81856707182001
C        -0.72193336242551   -2.29221902616868    2.58077317508177
C        -1.95872635876397   -2.31037161280845    1.81623141194309
C        -0.24606832283120   -2.99787331279637   -1.81881263014209
C         0.74795748883740   -2.28431125183686   -2.57636245534382
C         1.97150937631476   -2.28372842987252   -1.81470134378141
C         1.74140063541382   -3.00624012392708   -0.58897831879541
C         0.37131198413732   -3.44655332433884   -0.58386224277314
C         2.79416753395495   -1.16442618309276   -1.81941496271312
C         2.41694640607872   -0.00004479129838   -2.57967452313833
C         2.79736461659414    1.16616434444991   -1.82094833541812
C         3.40969063565706    0.72117314047644   -0.59580427300307
C         3.40932481737516   -0.72113582545323   -0.59419765241126
C         1.98185431757641    2.29021114441802   -1.82043835622526
C         0.75063648435046    2.28651721741627   -2.57810717634365
C        -0.23821963459486    2.99965500588662   -1.82046299166636
C         0.37344859466731    3.44492636835789   -0.59851055226048
C         1.74944797940225    3.00969200722441   -0.59783741165149
C        -1.56584749444500    2.56546110926592   -1.81212386155947
C        -1.94264644014339    1.39737154206114   -2.57219983814853
C        -2.94841173858188    0.68910371246898   -1.84997750687385
C        -3.39431055974737    1.51656940201665   -0.66227386049353
C        -2.32664621583160    2.58733685469991   -0.61166855775356
C        -2.93024550443560   -0.68748523880660   -1.83678521639858
C        -1.93570845972077   -1.40742759812327   -2.58728850485196
C        -1.56018461028716   -2.56738117658005   -1.81951491422939
C        -2.33455592950101   -2.56211661226640   -0.59535938849305
C        -3.17167836606965   -1.42960697640371   -0.60963838608243
C        -0.97895639755054   -0.72023613633121   -3.32301044959275
C        -0.98068463314345    0.71557294546819   -3.31476842966699
C         0.38795900246160    1.16378421556609   -3.31036070707335
C         1.23794694466246   -0.00046403665021   -3.31298502463199
C         0.39069037317270   -1.16622660010715   -3.31937706255857
Cl       -1.87582184822748    0.01290107796967    5.28767692830085
Cl       -5.02142456995979    2.29787569999330   -1.00261713876411
62
 energy: -137.542829575518 gnorm: 0.000793535905 xtb: 6.4.1 (a3dbbd7)
C        -1.28941784894406   -0.01309814981957    3.55085061514357
C        -0.36205922429240   -1.19004404967918    3.32318676437780
C         0.98832745680921   -0.73220958305767    3.29140313235634
C         0.98580097883491    0.71147696665672    3.29272502229487
C        -0.36233338821012    1.16043326875782    3.31704276893379