63
 energy: -142.110547719869 gnorm: 0.000140819670 xtb: 6.4.1 (a3dbbd7)
C        -1.29879893307106    0.00655045089152    3.52923691096930
C        -0.37310421422479   -1.17397549101035    3.28974194434543
C         0.98283160079313   -0.71791973118351    3.27641377744524
C         0.97791977424176    0.71610661207308    3.25920381254508
C        -0.37479916296368    1.18044208700013    3.29005103560400
C         2.32551247067550   -2.56825419920754    0.58386525319804
C         3.18756153848509   -1.40471221644452    0.57216203789421
C         2.95014731287692   -0.68711421472757    1.79051634272757
C         1.94437140310907   -1.41734641035553    2.53473211077733
C         1.59696131594897   -2.57338786001665    1.80325238358285
C         3.19180189436585    1.42038562118643    0.57133647113470
C         2.33870037597856    2.58198851706264    0.57221479078536
C         1.57505330404008    2.56976862554463    1.79576123200761
C         1.95198052499512    1.41495595657516    2.54627095473250
C         2.95244867937619    0.69790893889043    1.79462033238848
C        -0.36646498234273    3.43231904709269    0.57553148859097
C        -1.73261265037868    3.02446591727905    0.57880257380568
C        -2.09903690299749    2.47153918155329    1.94286730033754
C        -0.73418937782937    2.28900284956604    2.57588136187245
C         0.24548137582081    2.98247134051983    1.79876023457973
C        -3.37924494083289    0.71384359969190    0.57179271650754
C        -3.38827006322623   -0.72228127938896    0.56481057163334
C        -2.76885909600505   -1.15105075275087    1.78560567051047
C        -2.39668576295322    0.03316461672484    2.52602692896188
C        -2.75764994771012    1.14271668193048    1.80911493543433
C        -1.71315962587314   -2.99017777265456    0.57359873608203
C        -0.36615623698387   -3.45669094176983    0.57634373123811
C         0.26044509315054   -3.20522742940950    1.92766677650890
C        -0.74179928337811   -2.27793313422607    2.57698258300965
C        -1.95107814792666   -2.26780894005125    1.79505199503404
C        -0.24641581530915   -3.00029759447029   -1.82112913760683
C         0.74697702459517   -2.28342757498595   -2.57847577072189
C         1.97400609589794   -2.28665581652594   -1.82098657307527
C         1.74732907078465   -3.00922824004965   -0.60488312130118
C         0.36142106636307   -3.44173504626059   -0.59272761696445
C         2.79787191281135   -1.16158608396169   -1.83369833383164
C         2.41686237995715   -0.00025185637496   -2.58847625601016
C         2.79978722343005    1.16904200652591   -1.83553397349756
C         3.41840396299969    0.72593907917205   -0.61096219686081
C         3.41512666847946   -0.71475490710557   -0.60969569863616
C         1.98267664506811    2.29100460113783   -1.83362987260552
C         0.75285477211994    2.29082259663884   -2.58905458619566
C        -0.23536112838530    3.00877659968526   -1.82658666332970
C         0.37258074057083    3.44800618224060   -0.60584250958143
C         1.74610052815949    3.00820517446538   -0.60675996083108
C        -1.55759291254014    2.57490120906778   -1.81400579494842
C        -1.94106582973241    1.41335516327830   -2.57595727634643
C        -2.93977104201715    0.69419256558599   -1.82751907521235
C        -3.17380035526271    1.40812228072219   -0.60269174794731
C        -2.30732441925234    2.58114722709905   -0.59045328486754
C        -2.94651543721549   -0.69902454696947   -1.84045207489538
C        -1.95013015513149   -1.41608430339381   -2.59668586651436
C        -1.57012973124131   -2.58155013442021   -1.83498479737794
C        -2.32364710340558   -2.57992703795393   -0.61428661974876
C        -3.17614142981486   -1.42109321189288   -0.61844179748177
C        -0.98980020575610   -0.71915781858600   -3.31575722430645
C        -0.98788986232536    0.72125847388746   -3.31090026324806
C         0.38532944696739    1.16590735869947   -3.31351669285527
C         1.23051990257826    0.00092946117870   -3.31594101597082
C         0.38342348270414   -1.16345646952647   -3.31269230094982
Cl       -1.94297274356436   -0.02128347057146    5.22317817320043
Cl       -3.13028285935685    3.64023156368405    2.87212749670373
Cl        0.37856486519557   -4.77592052209252    2.88134539983792
