63
 energy: -142.117128340243 gnorm: 0.000061133996 xtb: 6.4.1 (a3dbbd7)
C        -1.30801649965551   -0.01097455847096    3.57317576591347
C        -0.38300579699535   -1.17888983912923    3.28289581259834
C         0.96885730472189   -0.72696257676549    3.25776777813768
C         0.96040933169209    0.71074333703984    3.24429278544380
C        -0.39823354340443    1.15541919929616    3.25204982540583
C         2.33913274169564   -2.58873399610956    0.57946164171605
C         3.18688228306703   -1.42126005775667    0.57957652746234
C         2.94560220502996   -0.70001589304692    1.80145788486474
C         1.94724249720695   -1.42140696496949    2.55201375109130
C         1.57988355637092   -2.58692179771017    1.80328048734125
C         3.18574066528337    1.41120071013431    0.57643182915316
C         2.33719799714700    2.57566694201565    0.57262297256748
C         1.56633321753534    2.56293254079206    1.78965181844685
C         1.93797657392194    1.40352996764822    2.54147381476675
C         2.94433306373057    0.68767282986331    1.80023854517554
C        -0.36983177818171    3.42899435923947    0.56389999318517
C        -1.73650188040762    3.02908703818148    0.56449977798483
C        -2.10553869521682    2.46027076317985    1.92010001901752
C        -0.74787292531952    2.27082184288410    2.55126835752472
C         0.23820753972131    2.97025245432554    1.78673887897050
C        -3.31293733656154    0.71576273711417    0.59171490763559
C        -3.34058618970482   -0.73347793528370    0.57791696804325
C        -2.77269831261677   -1.18533702615056    1.79845362016147
C        -2.62192152988549   -0.00931790739328    2.74352407079766
C        -2.78489210081607    1.15443254173159    1.79416222097054
C        -1.72922283240475   -3.01260798379643    0.57746789074910
C        -0.35729482306644   -3.45190647322938    0.57867679891051
C         0.25380354266185   -3.00684014253016    1.80519101452242
C        -0.73317619758044   -2.29386554422973    2.56754612154239
C        -1.97436416441174   -2.30017862944626    1.79949573505951
C        -0.23660657288293   -3.01296382571110   -1.83085713463639
C         0.75645748064853   -2.29252494914124   -2.58569744717660
C         1.97999447706917   -2.29208599246918   -1.82614184225246
C         1.74575498257137   -3.01346182969897   -0.60134277349016
C         0.37376368463659   -3.45651319197814   -0.60080142155101
C         2.79967428660633   -1.17006564013785   -1.82726005313223
C         2.42296372204421   -0.00429789458940   -2.58667835616590
C         2.80363013309195    1.16213278309489   -1.83069576817101
C         3.41509348207630    0.71582185366113   -0.60382888040547
C         3.41247420909619   -0.72539897127285   -0.60244216825736
C         1.98942935837634    2.28708799775346   -1.83380989648615
C         0.76480698419525    2.28988001308931   -2.59723797738862
C        -0.22605124506997    3.01220488647929   -1.84159411918330
C         0.37716316794193    3.44828615013419   -0.61368499036188
C         1.74822077028708    3.00481000812805   -0.60902929023567
C        -1.54642576022227    2.58158085103593   -1.83737801877925
C        -1.92538911783385    1.41597558029925   -2.59350535713756
C        -2.91601829895856    0.69637984903566   -1.82612305298467
C        -3.15407742371367    1.41969670380432   -0.62053618436061
C        -2.30371750590042    2.58431418597644   -0.61295476665245
C        -2.91964355552116   -0.69963276144223   -1.83752361748632
C        -1.93426956530684   -1.41645260873207   -2.59249092469600
C        -1.55705995632112   -2.58879205066892   -1.83641163276087
C        -2.31694287611147   -2.59196479194012   -0.61283798668245
C        -3.14711385501811   -1.42501448487633   -0.60920618711086
C        -0.97446548732455   -0.72310006781622   -3.32453211934723
C        -0.97313642744242    0.72010903655899   -3.32288822673562
C         0.39884199043454    1.16456935502324   -3.32287485797533
C         1.24272471475896   -0.00297065793219   -3.31764923186717
C         0.39250980646421   -1.16788936792793   -3.31789486164042
Cl       -1.60568931941779    0.00136024062499    5.35711252073274
Cl       -4.09997474537216   -0.01161351203837    3.80623867589238
Cl       -3.12250928986888    3.64970933309921    2.87836966545520
