63
 energy: -142.114383867155 gnorm: 0.000105467665 xtb: 6.4.1 (a3dbbd7)
C        -1.30344887070413    0.00356687759832    3.55077293041082
C        -0.37151658695275   -1.17064609744322    3.30806026863361
C         0.97350791067163   -0.72061075307741    3.28061361528918
C         0.97078510352373    0.72171537282571    3.27685076696520
C        -0.38066359503915    1.18173643123283    3.31129303558938
C         2.32491009294761   -2.57936729539063    0.57215598252451
C         3.17367761339345   -1.41595375703487    0.56599750886183
C         2.94481233601873   -0.70039809778606    1.80768207874863
C         1.94970791936785   -1.41040285419763    2.55088470862664
C         1.57134648558471   -2.57336964685647    1.79823158529744
C         3.18041296724718    1.41823336587623    0.59237769083291
C         2.32901687001945    2.55199065305460    0.57928677633703
C         1.56305087474955    2.56257798431616    1.80726177701065
C         1.93762955546633    1.40997029428812    2.55623849039263
C         2.93265149252911    0.69456138679819    1.78626425163818
C        -0.37438918074389    3.42697182100679    0.58546991389643
C        -1.73249875714755    3.01720114634052    0.58675217509357
C        -2.10316553782699    2.46435641731077    1.95172588338694
C        -0.74055232151033    2.28914205126170    2.59168881944860
C         0.23788180266440    2.97691487745300    1.81139784476536
C        -3.37873227998909    0.70262338757635    0.57843069539984
C        -3.39402954310171   -0.73233718092843    0.57085841170916
C        -2.77249693099470   -1.16281047103418    1.79060951745326
C        -2.39425634705064    0.02473492896651    2.53560938916825
C        -2.75353609598551    1.13026719604955    1.81722221542973
C        -1.73941426243160   -3.01084797626289    0.57932091252323
C        -0.36881254815796   -3.44870618526068    0.58001802942309
C         0.24674753298589   -2.99265864736939    1.80314098511523
C        -0.73540700426041   -2.27457091530510    2.56556872493111
C        -1.97355533865468   -2.28590941499315    1.80060461883553
C        -0.25499108446532   -3.02044727062090   -1.82903051461923
C         0.73875982491129   -2.29615372026080   -2.58274316693737
C         1.96180824640234   -2.29564045838503   -1.82248569831911
C         1.73067196290692   -3.01601897791916   -0.60521954724361
C         0.35924445784523   -3.46188625182247   -0.60096247365887
C         2.77835924368304   -1.16409863090669   -1.80984808557654
C         2.39945714797455    0.00181232758808   -2.56746969252578
C         2.79744183455609    1.16286082781987   -1.84351404326507
C         3.64347613666744    0.75756879199514   -0.65591314718525
C         3.41511525508229   -0.73776776644434   -0.60846530198974
C         1.97621513822663    2.26873054769111   -1.82834982723326
C         0.74816226278657    2.27240667573588   -2.58057875176676
C        -0.23759903145620    2.99289450602244   -1.81878639439634
C         0.37512967425526    3.43469503961906   -0.59751189568712
C         1.74014884032900    3.00644317516213   -0.60106318524385
C        -1.55879736087888    2.56314146643761   -1.80707730866489
C        -1.94514849926558    1.40180019886386   -2.57189294204671
C        -2.93980230599858    0.68283809333644   -1.82087572033690
C        -3.17078338629469    1.39805403175835   -0.59327415376912
C        -2.31044947338174    2.57195556338417   -0.58375602822961
C        -2.94853885773835   -0.71012040604035   -1.83338287153427
C        -1.95564045237381   -1.42774472501871   -2.59216965193646
C        -1.57596013950762   -2.59605056516993   -1.83299222501875
C        -2.33606142398886   -2.59476072776842   -0.60872364592597
C        -3.18405396193067   -1.43326712859789   -0.61282281445220
C        -0.99893333576020   -0.73127975293941   -3.31655596920635
C        -0.99688872506770    0.71103949472750   -3.31257414278796
C         0.37579033068868    1.15305588421491   -3.31432899633537
C         1.21792140037955   -0.00664326048687   -3.30990070469050
C         0.37390344980139   -1.17346251771551   -3.31228000809905
Cl       -1.96675716431707   -0.01681356998066    5.23629947062390
Cl       -3.14937863813435    3.62220297139114    2.87162537537827
Cl        5.41295735628003    1.12931652778118   -0.96878100321851
