63
 energy: -142.112954749577 gnorm: 0.000113554872 xtb: 6.4.1 (a3dbbd7)
C        -1.30025418404167    0.01344015753544    3.55409158251928
C        -0.37163168601169   -1.16248413890623    3.31192419864267
C         0.98065290253642   -0.71398559158686    3.28173810091186
C         0.97928884789329    0.72287682561012    3.27181418983714
C        -0.37310549463999    1.18649107031970    3.30578695531100
C         2.32942963617355   -2.57567525864049    0.56751401821779
C         3.17676990389868   -1.41070577727433    0.57070743814846
C         2.94143350578905   -0.69310110137928    1.79502813892571
C         1.94688952400630   -1.41603835466560    2.55185369517804
C         1.58018827257991   -2.57553154276245    1.81049118331773
C         3.18674982913700    1.41740394640255    0.57465346173089
C         2.33745923294746    2.57964904268597    0.57613809327282
C         1.57507876797465    2.56942379875998    1.80067100613094
C         1.95170903523287    1.41377162004186    2.55238051490470
C         2.94713159072628    0.69331353656863    1.79864412226967
C        -0.36622587404284    3.43127936914862    0.58143876717522
C        -1.73020640614118    3.02164629583698    0.58518007483526
C        -2.09663549889899    2.46901319167961    1.95004491371576
C        -0.73208873569606    2.29123321269854    2.58527281148688
C         0.24659183656490    2.98088420389636    1.80436908150665
C        -3.37555803650179    0.70563459191280    0.57772451615911
C        -3.39478842127903   -0.72518960049467    0.57272911593454
C        -2.77264247056751   -1.15399288442303    1.79442008199711
C        -2.39466081231602    0.03372931710005    2.54139546070862
C        -2.75064463769582    1.13659597361451    1.81855447907321
C        -1.71695858187446   -2.99349786194069    0.58038423207572
C        -0.37197741220816   -3.44097453453634    0.59692617434006
C         0.24245401294243   -2.97718657624912    1.78994563461950
C        -0.73477682847200   -2.25734294214484    2.56750348225766
C        -1.97174522217813   -2.27178380453218    1.80461293075234
C        -0.24549111268808   -3.01554001334444   -1.84052397359274
C         0.73750919611058   -2.27883466909839   -2.56472750974773
C         1.96432266818520   -2.27878227006216   -1.80753763474234
C         1.75472215148030   -3.01345922310780   -0.60438710379326
C         0.40035505127244   -3.68654040914890   -0.64817013804766
C         2.79276015427472   -1.15734871673453   -1.82510542147795
C         2.41540621169406    0.00639362267694   -2.58504914008229
C         2.80031252840961    1.17321051190663   -1.83270652834812
C         3.41720544974880    0.72667406980986   -0.60840981817743
C         3.41163962744263   -0.71426729545171   -0.60918359257271
C         1.98355789482917    2.29707097246327   -1.83049240232959
C         0.75398452570489    2.29722162423750   -2.58691343684116
C        -0.23500165981886    3.01271281553620   -1.82255388642153
C         0.37323395307103    3.44990600847762   -0.60106394141229
C         1.74620825729635    3.01096100417642   -0.60358535263707
C        -1.55531928616461    2.57355975131322   -1.80842136975145
C        -1.93670822205838    1.41362422428252   -2.57100434695693
C        -2.93180316323986    0.68917866840476   -1.81904761433627
C        -3.16922257215556    1.40357703525305   -0.59457845199491
C        -2.30505981755879    2.57629121926041   -0.58206243743523
C        -2.93225571814516   -0.70197063382867   -1.83020750843502
C        -1.93410319511805   -1.41438956926138   -2.58536042196358
C        -1.55184902608579   -2.58138912717528   -1.83139986790093
C        -2.33549617314526   -2.59019543433876   -0.60913737159815
C        -3.17145342618722   -1.43171633983778   -0.61183405647680
C        -0.98321263083722   -0.71416293574818   -3.31583664104425
C        -0.98547935752620    0.72720048956329   -3.31197244202687
C         0.38660579276970    1.17364433970945   -3.31384184238340
C         1.23097447645531    0.00683097797515   -3.31147148901239
C         0.38229064050618   -1.15645862883843   -3.31020710852147
Cl       -1.95495553076521    0.00377892593569    5.24259471270369
Cl       -3.13690019312688    3.62909376660435    2.87532039884230
Cl        0.58349198456094   -5.49027285747740   -0.93937575307938
