63
 energy: -142.115339911819 gnorm: 0.000107881954 xtb: 6.4.1 (a3dbbd7)
C        -1.29801228166354    0.01152808808701    3.53228186080963
C        -0.35758272051204   -1.15804006284631    3.28784920605090
C         0.96206481219836   -0.71246602454989    3.27543331068624
C         0.97001432176405    0.71559104668043    3.25187077885942
C        -0.38082081967259    1.18976917581352    3.29380935187259
C         2.31128330618552   -2.57224385441531    0.57824571262214
C         3.16098222137293   -1.40376674453657    0.57728165027633
C         2.95812395592583   -0.69725665798734    1.79676391152903
C         2.08693795282444   -1.51623725221078    2.72230511916746
C         1.58031474715514   -2.59782090778440    1.79802661715510
C         3.17546524078961    1.40249993669214    0.56907469017528
C         2.32990151764601    2.56808036463360    0.57088725336219
C         1.57106278075663    2.56258196833143    1.79775937056237
C         1.94927232837398    1.41592740123854    2.55270702318554
C         2.94148044200142    0.67907069466381    1.79002680511544
C        -0.36871397592191    3.43151236497601    0.57764612299041
C        -1.73515718147026    3.02393262607019    0.57953265755066
C        -2.10473304012278    2.47368669703004    1.94470610717729
C        -0.74004223856547    2.29669538604163    2.58001108126246
C         0.24124756188558    2.98548433706282    1.80025810841851
C        -3.37903180974054    0.70924014628867    0.57316930961776
C        -3.38888985315354   -0.72840990738145    0.56892954248339
C        -2.76849344199113   -1.15494327444087    1.78725814999218
C        -2.39293710726395    0.03113167394900    2.52498716760960
C        -2.75710766037969    1.14080997282445    1.81049988162565
C        -1.72644219592560   -3.00249464894149    0.57248877133231
C        -0.35693257300604   -3.44206751892207    0.57122258901372
C         0.25886079440609   -2.99294906655684    1.79281797338166
C        -0.73974836447280   -2.28800692306370    2.56705604071940
C        -1.95713595690281   -2.28130856316109    1.80093697593577
C        -0.24669607893001   -3.01659812300948   -1.84053964791663
C         0.74573309747747   -2.29266189260394   -2.59722292261956
C         1.96888753894253   -2.28991221842672   -1.83667854952603
C         1.73268388646424   -3.00977665720284   -0.61205373039343
C         0.36891767497450   -3.45575442761766   -0.61326584454196
C         2.78746340868888   -1.16728267324991   -1.83857149781422
C         2.41209809269405   -0.00273576770064   -2.59742366691008
C         2.79565221284553    1.16303608566687   -1.84182014134471
C         3.40764475997290    0.71447567122110   -0.61668121377671
C         3.40016354764271   -0.71958982627887   -0.61289295785211
C         1.97785298379035    2.28582788222864   -1.83671477525127
C         0.75080604202058    2.28767635065751   -2.59072775528090
C        -0.23812095595572    3.00637950805322   -1.82532537539434
C         0.37036030401784    3.44592331589993   -0.60630525801004
C         1.74186639709598    3.00122759520034   -0.60745870614042
C        -1.55877530823913    2.57094818423828   -1.81205724263450
C        -1.94151390370695    1.40828094950758   -2.57321787958708
C        -2.93852680688328    0.68852361269204   -1.82401848000215
C        -3.17323624569794    1.40217624025174   -0.59945478151462
C        -2.30838100628877    2.57853296708979   -0.58792703920291
C        -2.94330194678686   -0.70497195027800   -1.83441196862888
C        -1.94724965442472   -1.42117377863968   -2.59364165308183
C        -1.56643965347603   -2.58918826511474   -1.83884356107253
C        -2.32415770382733   -2.58813497059956   -0.61121631824834
C        -3.17795826997245   -1.42742061750339   -0.61634561848531
C        -0.99182575219912   -0.72326899345716   -3.31972836921869
C        -0.99041163824931    0.71843898212656   -3.31277453446762
C         0.38093474759713    1.16321734977615   -3.31808041586352
C         1.22630679706691   -0.00126156040777   -3.32333035706252
C         0.37936188239134   -1.16780460578586   -3.32351700055235
Cl       -1.94684303598965   -0.02589991219207    5.21997558230206
Cl       -3.14489107735503    3.63674796079643    2.86692363851254
Cl        3.07540043492235   -2.22876458773884    4.09073493918495
