64
 energy: -146.690839785674 gnorm: 0.051330112067 xtb: 6.4.1 (a3dbbd7)
C        -1.32398852040865    0.02639117626827    3.64520973690046
C        -0.40419613186395   -1.26838822810407    3.60611251117058
C         0.97532262337528   -0.73692896362665    3.28198258455462
C         0.96231196992354    0.68112955478750    3.21847225637073
C        -0.38832259847468    1.11990708459311    3.22809895956027
C         2.34340755736214   -2.57397279725208    0.58147943238519
C         3.15295372916079   -1.39763113418311    0.56778161435689
C         2.88059003312320   -0.68469771168958    1.78237791166711
C         1.91670946722741   -1.40721735238565    2.56240784496954
C         1.70122738905278   -2.76073145910863    1.93397693704894
C         3.16637723674161    1.42520345598231    0.54458170601711
C         2.32493332793614    2.59199129636403    0.53818427536462
C         1.56519451752699    2.56297315492967    1.75538744345444
C         1.90583186919651    1.39190398193152    2.49445259611658
C         2.89797044804256    0.69475051025576    1.75741185544009
C        -0.37088663769661    3.42135309807023    0.56183939353243
C        -1.73014464793147    2.96079370954212    0.57091470949578
C        -1.98146772763026    2.24575903280783    1.78543493497707
C        -0.72719668243945    2.24383587888978    2.53702423938299
C         0.24559455661378    2.96458110341750    1.77030228570767
C        -3.35426387034692    0.71404723807141    0.58444777323752
C        -3.34734011526441   -0.70918447602918    0.56567903950978
C        -2.74966901312889   -1.14288342139998    1.79111797678231
C        -2.63798539012453   -0.01368865327486    2.77839277387365
C        -2.79499435680312    1.15346255796174    1.82964859920321
C        -1.71230812321240   -2.94010077021479    0.53863789049653
C        -0.36090134617465   -3.38452052784899    0.55502398881145
C         0.23277028729499   -2.91973618285202    1.79994534989013
C        -0.69393610949245   -2.23423141663763    2.51713924233898
C        -1.93566923662152   -2.21984829103673    1.76092479495917
C        -0.22983213805478   -2.98406300170929   -1.83280499762869
C         0.76321136664633   -2.26190942627076   -2.57528068559559
C         1.97693608136471   -2.25351420471374   -1.80506247589637
C         1.76363433211344   -2.97913117302880   -0.58711520702952
C         0.36379590200427   -3.41851032335564   -0.60313815565018
C         2.79137898367528   -1.13517879001119   -1.83577054741147
C         2.41638396955396    0.02526350340075   -2.59910312935863
C         2.79445380635825    1.19461130325128   -1.85565651254608
C         3.39511948767686    0.73665847051266   -0.62714641395154
C         3.38486191606955   -0.69923943163982   -0.61284545719374
C         1.97438570218867    2.30938104295363   -1.85641855551199
C         0.75039560050868    2.30599583898567   -2.60995291736753
C        -0.24424711054254    3.01384617212444   -1.85068616360944
C         0.35847223249876    3.44528462435414   -0.61752146210212
C         1.73470874350344    3.02502971966135   -0.63323188277177
C        -1.55732828167105    2.57698835079040   -1.84576335218522
C        -1.93172477924866    1.42283800576904   -2.61208065544092
C        -2.91402411679406    0.70140912923754   -1.83582068392393
C        -3.13749562681225    1.40219962837899   -0.60122119821613
C        -2.30848898487039    2.56140301080566   -0.61737817681840
C        -2.91340165851984   -0.67819299333257   -1.84609442228963
C        -1.92515193659233   -1.39635465344857   -2.61730314924040
C        -1.55000254226354   -2.55599747829837   -1.85470050386110
C        -2.30662000658368   -2.55354113932556   -0.64057340799998
C        -3.13665662550968   -1.39302676336216   -0.62344221097389
C        -0.97023304648765   -0.70521939764434   -3.33292969361984
C        -0.97490465921409    0.73502382945948   -3.33578897835886
C         0.39156315285415    1.17984796299447   -3.33502168272007
C         1.23981289575664    0.01969197769698   -3.32790533836610
C         0.39908428612868   -1.14805433028959   -3.31278320523796
Cl       -1.70867693658531    0.46359759756752    5.35347226215213
Cl       -0.41350326252316   -2.20642039702159    5.14301283824164
Cl        2.40381291919944   -4.13909633598400    2.87065376657414
Cl       -4.09934792110474   -0.18005857718667    3.85023835919127
64
 energy: -146.696012731835 gnorm: 0.020844978683 xtb: 6.4.1 (a3dbbd7)
C        -1.31888096142404    0.01840952173696    3.62846716188380
C        -0.38946778960543   -1.26958206765986    3.59352534677401
C         0.99598281191060   -0.73278767196359    3.28596958721382
C         0.96920351850083    0.68826477321575    3.22374205393644
C        -0.38403999272635    1.12456340179245    3.22789717056728
C         2.34877315419011   -2.58030565398261    0.57378217169053
C         3.15913164172896   -1.40482701426672    0.56782041688073
C         2.90438375113347   -0.68536863995162    1.78902538964047
C         1.94668802948824   -1.40744602695274    2.57107432360417
C         1.70864155237753   -2.75838561761064    1.93454174250158
C         3.18006380766058    1.42982452631047    0.56016189862501
C         2.33259933245837    2.59692509153793    0.55976344677426
C         1.56989088616846    2.57816022300806    1.77843630453547
C         1.92794440907147    1.40594600965852    2.51548754917908
C         2.92436602439068    0.70135529457944    1.77678911775770
C        -0.37106057900465    3.43736062825056    0.56697922226002
C        -1.73786106899540    2.98398609500799    0.56813134439819
C        -1.98475188978188    2.26429134384264    1.78455247166019
C        -0.73403534617139    2.25388748565368    2.54077387767005
C         0.24267429440982    2.98219008747499    1.78332672009506
C        -3.36976821766750    0.72256770852965    0.57487273182083
C        -3.36053294911677   -0.71018504135409    0.56268289160996
C        -2.75250212184957   -1.14736177402942    1.78320100558446
C        -2.63303769139583   -0.00739592838801    2.76039307786010
C        -2.80041341468958    1.16644573885127    1.81462889627690
C        -1.71994283153764   -2.96521846570182    0.54560595894171
C        -0.35916439290044   -3.40237998879673    0.55698665522753
C         0.23651968177833   -2.93715315678942    1.79926565895578
C        -0.69539772894640   -2.24806427142827    2.51388126724138
C        -1.93684875447045   -2.23537350414506    1.76323976966398
C        -0.23775160791526   -2.99731653670102   -1.83842081917532
C         0.75532802260971   -2.27101075533160   -2.58440863989994
C         1.97670908528017   -2.26498448862607   -1.81858930402620
C         1.75729811407130   -2.98568576415893   -0.59764941910878
C         0.36421625540772   -3.43639373211958   -0.61089796778049
C         2.79597678687682   -1.14393587046643   -1.83760097088810
C         2.41750872158969    0.01986123739512   -2.59776437013843
C         2.79634773998015    1.18787320530351   -1.84479782813177
C         3.40464736989312    0.73648999289893   -0.61734782411598
C         3.39542265514938   -0.70419335457693   -0.61279960860221
C         1.97541808180690    2.30812463056054   -1.84358453684774
C         0.74965180648344    2.30551418219629   -2.60095120065588
C        -0.24529547082177    3.01894458832997   -1.84436520924798
C         0.36177292958500    3.45667961404818   -0.61178170399395
C         1.73814946957693    3.02666268596122   -0.61789145384209
C        -1.56471725288076    2.58672918178520   -1.84722077301381
C        -1.94055888393832    1.42441706319237   -2.60821287479803
C        -2.93088806816990    0.70059287630926   -1.84428094467953
C        -3.15704548632400    1.41402896188655   -0.61399235177272
C        -2.32248331231944    2.57760294821035   -0.62227233198359
C        -2.93222494293469   -0.68422793394193   -1.85173584838743
C        -1.93920519079185   -1.40604288942340   -2.61457910817565
C        -1.56397260107650   -2.57213022933055   -1.85620449214924
C        -2.32078689113418   -2.56813155574501   -0.63744185723368
C        -3.15611452000026   -1.40213983078792   -0.62623966009442
C        -0.98019755584015   -0.71058002958670   -3.33253848990786
C        -0.98173464262921    0.73250980575804   -3.33310903275611
C         0.38734421183464    1.17845282204563   -3.33003468158815
C         1.23595795768255    0.01593247274370   -3.32587042542309
C         0.39129511412428   -1.15296006145778   -3.32017631163916
Cl       -1.70400294015735    0.43015094723847    5.34186739991755
Cl       -0.41234984410314   -2.17455764223423    5.15130002415175
Cl        2.44195162201278   -4.12490694753901    2.86431792511962
Cl       -4.11652764822483   -0.14782950071587    3.80149612089584
64
 energy: -146.696181903082 gnorm: 0.010937554839 xtb: 6.4.1 (a3dbbd7)
C        -1.31849919825830    0.01760567303445    3.62705050100192
C        -0.38537327896249   -1.27508630720962    3.59101131084124
C         0.99886626943642   -0.73092335643357    3.28191770126257
C         0.96930917767336    0.69113656917566    3.22738758460120
C        -0.38210952436135    1.12809997717317    3.22916966503368
C         2.34971831478118   -2.58184553981888    0.56856284678731
C         3.15938220215399   -1.40833540743439    0.56751551757557
C         2.91377614528044   -0.68651051881073    1.79208653665040
C         1.95524701264861   -1.40677068757093    2.56976042668931
C         1.71071256254384   -2.75866455961367    1.93396287151111
C         3.18539166496206    1.43062545707155    0.56942707197163
C         2.33570331230264    2.59762339473117    0.57209948395063
C         1.57223187846925    2.58356754369350    1.79222706225720
C         1.94053020182054    1.41232771943406    2.53026423329494
C         2.93782964626127    0.70361563977495    1.78899911921490
C        -0.37007627139310    3.44520964966309    0.57076713989611
C        -1.74150082171923    2.99738845413428    0.56758126169194
C        -1.98338803929639    2.27351012437578    1.78408320286102
C        -0.73726460761680    2.25820607013159    2.54197782340292
C         0.24209475073134    2.99027523693127    1.79075661838316
C        -3.37474069593940    0.72510094052971    0.57025060541384
C        -3.36462902503074   -0.71272936778904    0.56176931080222
C        -2.75164923800595   -1.15174062109461    1.77753201583168
C        -2.62195026875339   -0.00605435689216    2.74865665452378
C        -2.79439279723503    1.16965019782529    1.80193449154479
C        -1.72429789376270   -2.98050992833278    0.54943796891440
C        -0.35779346904007   -3.41195474023021    0.55800935686524
C         0.23820745418459   -2.94755134972124    1.79790866439472
C        -0.69693131733997   -2.25443581364466    2.51055922167131
C        -1.93673652089991   -2.24562922631049    1.76462884597397
C        -0.24201310773236   -3.00358419301246   -1.84103563311781
C         0.75064560231259   -2.27539098143095   -2.58864320932498
C         1.97614368099288   -2.27055959219524   -1.82535433275824
C         1.75168105837126   -2.98777099036959   -0.60305791053352
C         0.36460182100776   -3.44556018951540   -0.61523972981685
C         2.79760743988686   -1.14829813945358   -1.83674199106618
C         2.41701851288483    0.01673398779095   -2.59565756958633
C         2.79542800885694    1.18336387541907   -1.83719275874835
C         3.40764358194380    0.73624176747426   -0.61147993095557
C         3.40116842536504   -0.70663085947859   -0.61244138080622
C         1.97445288510951    2.30599559632521   -1.83484690023049
C         0.74780024344616    2.30333175248438   -2.59320580625607
C        -0.24669143790998    3.01991502103349   -1.83868024853741
C         0.36363822825926    3.46151099922672   -0.60771166885718
C         1.73923239979692    3.02534510603729   -0.60860402809427
C        -1.56908691040422    2.59107490783120   -1.84562911168538
C        -1.94496457506681    1.42483836843627   -2.60417425497673
C        -2.93848198748057    0.69995658844558   -1.84757879164618
C        -3.16776590352481    1.42005173085053   -0.61959532983211
C        -2.33059010431248    2.58571708438709   -0.62249019151309
C        -2.94060356648896   -0.68725488023411   -1.85444024141000
C        -1.94617373566752   -1.41053429217989   -2.61264211161755
C        -1.57102356400732   -2.58005339567405   -1.85653153242768
C        -2.32776834950693   -2.57586383484075   -0.63545230021000
C        -3.16571281616747   -1.40811641820011   -0.62768611858802
C        -0.98538293206747   -0.71295390479107   -3.33167561851343
C        -0.98558104357991    0.73090491368892   -3.32994110715727
C         0.38448960658045    1.17682343020735   -3.32459392917349
C         1.23348691477641    0.01385601660671   -3.32272414808265
C         0.38690532472888   -1.15518244455728   -3.32306304720798
Cl       -1.76234791110353    0.47735440867300    5.31526309350812
Cl       -0.36229994047520   -2.21368478870626    5.13188508887641
Cl        2.47478821489170   -4.11279377359863    2.85932557213473
Cl       -4.10961543966333   -0.10810054390250    3.78556872425503
64
 energy: -146.696766999851 gnorm: 0.004836072758 xtb: 6.4.1 (a3dbbd7)
C        -1.31939348700077    0.01894809779885    3.62567570776333
C        -0.38785374788115   -1.27062509230161    3.58588688297375
C         0.99602174820464   -0.72844608358654    3.27676705466670
C         0.96859080001723    0.69248189616261    3.22487220703740
C        -0.38103498555841    1.12967430043382    3.22930837429472
C         2.34816922643087   -2.58040487370330    0.56850874277075
C         3.15775558803406   -1.40820139430999    0.56733469962178
C         2.91305804379453   -0.68625804527176    1.79161535326460
C         1.95274909383450   -1.40543785705473    2.56712770214552
C         1.70860525875155   -2.75846575129101    1.93436453015879
C         3.18511838303651    1.43040544750159    0.56897863695778
C         2.33568400783071    2.59725149755983    0.57164694744210
C         1.57269601682251    2.58340101634975    1.79228308387381
C         1.94292653096394    1.41356966947591    2.53105423451997
C         2.93903053270842    0.70388662216641    1.78926345887822
C        -0.36947136602577    3.44536960197099    0.57123144954887
C        -1.74135398648601    2.99861044389852    0.56814479265560
C        -1.98216716312703    2.27419075798750    1.78476512832207
C        -0.73736854242137    2.25919695583395    2.54241443951991
C         0.24274265310488    2.99055120852074    1.79105251724557
C        -3.37316198300923    0.72487343166534    0.56942243545694
C        -3.36362838012586   -0.71310799646272    0.56069443894232
C        -2.75087428684488   -1.15158732966408    1.77459737493228
C        -2.62317447974936   -0.00711170679717    2.74748509802865
C        -2.79025423654126    1.16824127461134    1.79825387065892
C        -1.72545325141739   -2.98203929352456    0.54939591225801
C        -0.35835230162388   -3.41248610750045    0.55903564392925
C         0.23681606355297   -2.94963526155179    1.79921231317771
C        -0.69948754475991   -2.25436760217987    2.51020325487986
C        -1.93727275121719   -2.24629398313789    1.76394336880357
C        -0.24243352546532   -3.00325631441604   -1.84028693728761
C         0.75000926593996   -2.27544335350969   -2.58789993437484
C         1.97552777574250   -2.27059634150019   -1.82463738494882
C         1.74961570879618   -2.98693656234119   -0.60219188949031
C         0.36413746526158   -3.44542756770408   -0.61449036181921
C         2.79698936710642   -1.14859017945677   -1.83546939024109
C         2.41635871898599    0.01605505254953   -2.59498409671064
C         2.79434535408121    1.18251445286552   -1.83654227228505
C         3.40695528952173    0.73621211570729   -0.61181209992299
C         3.40161341093755   -0.70670632804921   -0.61244432483499
C         1.97361177850557    2.30502306669658   -1.83420425551581
C         0.74692164664770    2.30202433089994   -2.59180265317059
C        -0.24709249159516    3.01899123993103   -1.83765599149582
C         0.36370887600235    3.46102673074465   -0.60744103151487
C         1.73891615228287    3.02438490778038   -0.60873755680049
C        -1.56925022766252    2.59089090827959   -1.84461517343225
C        -1.94462701085516    1.42481872602787   -2.60349733859480
C        -2.93781303588210    0.70028043245304   -1.84784207964894
C        -3.16824695258603    1.42076950443522   -0.61993550663544
C        -2.33094759599227    2.58592265401325   -0.62136162680576
C        -2.93993481738492   -0.68681705813142   -1.85534542458482
C        -1.94604732778895   -1.41017151745037   -2.61274532653730
C        -1.57115437594892   -2.57977931950339   -1.85643159274341
C        -2.32798652810858   -2.57565321363971   -0.63562645821650
C        -3.16584185819014   -1.40848657408646   -0.62875699312586
C        -0.98532326789480   -0.71281716302601   -3.33166599272726
C        -0.98560813139702    0.73060986587511   -3.32931821758607
C         0.38425023868825    1.17602676634960   -3.32323495071569
C         1.23322164666440    0.01335427503707   -3.32158787944308
C         0.38666251522069   -1.15537171761800   -3.32246375236543
Cl       -1.72066891873612    0.43069692508707    5.33494567129438
Cl       -0.37673821519296   -2.17866344802849    5.14518358535214
Cl        2.48295388521390   -4.10736410112076    2.85997234486132
Cl       -4.12745001852866   -0.10782183920049    3.76161389819710
64
 energy: -146.696796765938 gnorm: 0.002759745911 xtb: 6.4.1 (a3dbbd7)
C        -1.31967327396120    0.01701365897422    3.62339616889495
C        -0.38753747645681   -1.27058998166050    3.58609545719479
C         0.99549351330842   -0.72883820788649    3.27714575426926
C         0.96802928764404    0.69167766162785    3.22417532418975
C        -0.38148471669837    1.12900149399408    3.23017382562705
C         2.34794451563564   -2.57976600968561    0.56911347705586
C         3.15738128551020   -1.40757231090458    0.56716104745652
C         2.91066617269829   -0.68616008346318    1.79070189699903
C         1.95073681755169   -1.40558519924928    2.56730474022777
C         1.70778169410187   -2.75814342328371    1.93416809410194
C         3.18349854373526    1.42979240826740    0.56672872045706
C         2.33464279965441    2.59647301261969    0.56866069854151
C         1.57191383855356    2.58126360734411    1.78918216808305
C         1.94043181175379    1.41190233213261    2.52830922206373
C         2.93583724145088    0.70309574048841    1.78660093855635
C        -0.36934016720250    3.44349763676237    0.57040067862873
C        -1.74042338955358    2.99634349815356    0.56808792538835
C        -1.98257272379944    2.27358830522215    1.78518284736542
C        -0.73696530860848    2.25780169387198    2.54196204288712
C         0.24297855026735    2.98821936045418    1.78934390651038
C        -3.37141844554810    0.72457617160204    0.57049004433777
C        -3.36228336503610   -0.71261895548925    0.56163124318682
C        -2.75092401569916   -1.15093949612827    1.77583501642598
C        -2.62282231935257   -0.00651840318831    2.74806704174521
C        -2.79022957560411    1.16834537828439    1.79916341986735
C        -1.72457723429510   -2.97907932917794    0.54870882649878
C        -0.35861257984253   -3.41070034540613    0.55916111567610
C         0.23680245536217   -2.94878058098219    1.79981612136572
C        -0.69899252990106   -2.25369557706717    2.51112987133579
C        -1.93679571689553   -2.24443061633686    1.76396257118916
C        -0.24171764258773   -3.00140837920549   -1.83941391186821
C         0.75074321813740   -2.27431448010238   -2.58679681327405
C         1.97547397389241   -2.26931308707811   -1.82313007572877
C         1.75029717039468   -2.98644481838454   -0.60102327827471
C         0.36394068791313   -3.44316706294451   -0.61335602974480
C         2.79644922736433   -1.14776087024174   -1.83531790526316
C         2.41627165067878    0.01650825205610   -2.59536261968094
C         2.79424291567558    1.18318185597718   -1.83806255656635
C         3.40606236531565    0.73617552932939   -0.61334944227634
C         3.40075817829281   -0.70634932483990   -0.61276485404998
C         1.97360779322454    2.30514461106565   -1.83603006799243
C         0.74713040703761    2.30211567976966   -2.59327545603449
C        -0.24682578884439    3.01850864211582   -1.83878758490085
C         0.36338168812758    3.45968710382507   -0.60838992141602
C         1.73854708159246    3.02407880536524   -0.61095901361610
C        -1.56818878331942    2.58990723770209   -1.84483262181460
C        -1.94344052339003    1.42472805984424   -2.60426420331498
C        -2.93583528454501    0.70071303548141   -1.84716086003355
C        -3.16604328024251    1.41990852983634   -0.61873397205239
C        -2.32919282516967    2.58412602342833   -0.62106842871914
C        -2.93775797642181   -0.68574737714185   -1.85458501808917
C        -1.94446673212095   -1.40863740858084   -2.61282497776034
C        -1.56960266300213   -2.57753633050757   -1.85600193372701
C        -2.32619453005958   -2.57329595149492   -0.63565767860857
C        -3.16352867463587   -1.40703458069022   -0.62800333373422
C        -0.98420654532900   -0.71205232354736   -3.33183574517463
C        -0.98468865145864    0.73092699322034   -3.32998274366509
C         0.38492585998274    1.17621693439087   -3.32424928422850
C         1.23373412873733    0.01367652582861   -3.32203506982977
C         0.38751066976117   -1.15484690735179   -3.32173801406858
Cl       -1.73465495952874    0.41751275496959    5.33153051758800
Cl       -0.38265856188409   -2.17248085891510    5.14902352282840
Cl        2.47974118135135   -4.10771598939265    2.85995682604510
Cl       -4.11500421402582   -0.10830106412638    3.77784900377687
64
 energy: -146.696825789294 gnorm: 0.001504651215 xtb: 6.4.1 (a3dbbd7)
C        -1.32058664186446    0.01699513482852    3.62619808059435
C        -0.38735211255289   -1.27125973770260    3.58709164616799
C         0.99509488599531   -0.72920539207275    3.27706840778227
C         0.96741537585888    0.69118182898395    3.22429782828785
C        -0.38202225179195    1.12843678018611    3.23079161866247
C         2.34796444787431   -2.57975925558297    0.56898119053479
C         3.15731846951143   -1.40766165040830    0.56714734979849
C         2.91024964582631   -0.68635684526852    1.79064228393291
C         1.95023215566100   -1.40577128135682    2.56723772586992
C         1.70759954911034   -2.75818038255598    1.93401502794627
C         3.18311607794195    1.42952024613582    0.56671295671065
C         2.33426242125092    2.59609445903397    0.56860120813229
C         1.57144930101858    2.58052151629874    1.78909829049972
C         1.93981831358360    1.41129144306840    2.52827348376917
C         2.93520775650514    0.70274380293549    1.78652515622528
C        -0.36947814441871    3.44307882795802    0.57057936222676
C        -1.74052626154243    2.99609393292042    0.56829898370541
C        -1.98301088558068    2.27374661645334    1.78570973796637
C        -0.73732219516010    2.25707143391575    2.54204572379296
C         0.24272008528223    2.98748259109607    1.78939158915376
C        -3.37093538016076    0.72439539835115    0.57067823367429
C        -3.36187171654667   -0.71268094309076    0.56206543252383
C        -2.75072969890378   -1.15057359980911    1.77630696961175
C        -2.62356398455749   -0.00624842448275    2.74911926848714
C        -2.78976130226849    1.16798855542644    1.79890186130775
C        -1.72443124227049   -2.97858462118053    0.54896696469032
C        -0.35863511750995   -3.41047799298916    0.55941298800191
C         0.23692451964388   -2.94885645701658    1.80005812325817
C        -0.69881535296848   -2.25365762726056    2.51168110531521
C        -1.93651412530732   -2.24405893890073    1.76447234825947
C        -0.24171677787992   -3.00109444432393   -1.83921164700352
C         0.75073320208311   -2.27415181323680   -2.58666554248035
C         1.97545907078551   -2.26922070735776   -1.82304288658697
C         1.75025645503141   -2.98652331497103   -0.60098537977170
C         0.36383109508782   -3.44282092876254   -0.61309885477717
C         2.79638545489211   -1.14773279080331   -1.83521061762061
C         2.41622667657072    0.01654532492340   -2.59531580751836
C         2.79417792060449    1.18320814397096   -1.83801576922258
C         3.40592775559034    0.73612732087211   -0.61337330092243
C         3.40079170212490   -0.70641905183926   -0.61279145223386
C         1.97352889923729    2.30513479663454   -1.83599104026909
C         0.74708454069678    2.30213619782827   -2.59326432630362
C        -0.24688456031520    3.01843543921571   -1.83870036914050
C         0.36319807130207    3.45942851085135   -0.60821219905889
C         1.73835305105011    3.02385215733210   -0.61093618233010
C        -1.56812983210062    2.58978578997644   -1.84469524539889
C        -1.94334591474427    1.42472094307669   -2.60427095077020
C        -2.93568366251996    0.70075887076545   -1.84713042240665
C        -3.16585190678069    1.41978897321361   -0.61856040428726
C        -2.32911368425534    2.58379085494292   -0.62081242155893
C        -2.93754412684132   -0.68561855242900   -1.85442809862131
C        -1.94434473843079   -1.40839217395919   -2.61269250311057
C        -1.56945575900929   -2.57721807115470   -1.85576932144625
C        -2.32585273490851   -2.57279925730715   -0.63534497993411
C        -3.16318017628182   -1.40689661511030   -0.62769786541638
C        -0.98415303771862   -0.71191215747434   -3.33184163168002
C        -0.98461902152976    0.73097975672851   -3.33003577255459
C         0.38499244044544    1.17629882989440   -3.32429169192282
C         1.23376973518947    0.01373762361708   -3.32199725182221
C         0.38755119261466   -1.15476594228469   -3.32166879279675
Cl       -1.73166639213519    0.42904961516544    5.33232781645068
Cl       -0.37356734258563   -2.18090316629928    5.14584809197810
Cl        2.48020451438987   -4.10747688546670    2.85950840708162
Cl       -4.12288245163129   -0.10725949459295    3.76922412742470
64
 energy: -146.696828825292 gnorm: 0.001063937985 xtb: 6.4.1 (a3dbbd7)
C        -1.32048199573260    0.01751312859411    3.62608543585131
C        -0.38772513620129   -1.27099982141395    3.58562395397779
C         0.99462747258096   -0.72841312649700    3.27584220198833
C         0.96726575507639    0.69207304642226    3.22439503849741
C        -0.38174995666654    1.12978900573845    3.23155217628680
C         2.34775020878293   -2.57968937140965    0.56854574325071
C         3.15718591494852   -1.40792303496904    0.56721740442638
C         2.91098553584717   -0.68633458326713    1.79096662386488
C         1.95038995598623   -1.40545237797498    2.56678925649955
C         1.70736338245390   -2.75821100261847    1.93407665888621
C         3.18367233236302    1.42968259183377    0.56752671640163
C         2.33466145573831    2.59628756760241    0.56959832331570
C         1.57176233742657    2.58131486234613    1.79025411767549
C         1.94107843966918    1.41224853889543    2.52953653913172
C         2.93641085723957    0.70307551046553    1.78764571996300
C        -0.36934338388645    3.44392021898257    0.57081827889670
C        -1.74083677810181    2.99751724750820    0.56822742039554
C        -1.98282597517727    2.27489904232833    1.78585500756267
C        -0.73760770242286    2.25811714774095    2.54238582771886
C         0.24277941135788    2.98854324829815    1.79002710162056
C        -3.37112568158939    0.72431764206767    0.57020488599896
C        -3.36230373109512   -0.71329217475106    0.56181496584056
C        -2.75096193431766   -1.15148299242924    1.77555795251301
C        -2.62224929114205   -0.00659333502277    2.74790586169999
C        -2.78848393468025    1.16788711305152    1.79729520446718
C        -1.72500741047970   -2.98030593400326    0.54899648726637
C        -0.35866115679902   -3.41170047495543    0.55941113075753
C         0.23679930887558   -2.95033781541481    1.80002436418908
C        -0.69951142013769   -2.25463203572077    2.51127842571425
C        -1.93677241741908   -2.24544589219011    1.76432551316346
C        -0.24207595399213   -3.00166429337875   -1.83957391406787
C         0.75036976531986   -2.27455104459405   -2.58712548435790
C         1.97545481572389   -2.26978205755634   -1.82368653176925
C         1.74959189288588   -2.98673023135603   -0.60144956876369
C         0.36378377912626   -3.44370550184040   -0.61353873395352
C         2.79655513935301   -1.14816944132138   -1.83505162509478
C         2.41622523575675    0.01623134082538   -2.59513688332398
C         2.79418409650580    1.18279004462999   -1.83735037104439
C         3.40628189943532    0.73614627929167   -0.61285387484079
C         3.40132413307328   -0.70664986674018   -0.61271187504223
C         1.97353316288070    2.30497579677382   -1.83530051129912
C         0.74698117396997    2.30196002496990   -2.59267741433056
C        -0.24697603039990    3.01852294202436   -1.83825368185771
C         0.36341049783752    3.45994664547201   -0.60793285532038
C         1.73854213600688    3.02378386911035   -0.61022641166883
C        -1.56846322479104    2.59012553791484   -1.84455646597119
C        -1.94370821509584    1.42473136098063   -2.60397836431292
C        -2.93634871906635    0.70063423834747   -1.84759805377247
C        -3.16671254687222    1.42022288482710   -0.61911292899523
C        -2.32979639583076    2.58437844907042   -0.62075495328375
C        -2.93828842438428   -0.68596202490056   -1.85490739763974
C        -1.94497187729984   -1.40882840860596   -2.61272716076954
C        -1.57005977412345   -2.57802875873116   -1.85605742941812
C        -2.32651883168848   -2.57360032112036   -0.63544673494594
C        -3.16409819100455   -1.40767478575084   -0.62810838536726
C        -0.98459337171271   -0.71213180366475   -3.33195845864048