62
 energy: -137.518286438982 gnorm: 0.143412219780 xtb: 6.4.1 (a3dbbd7)
C        -1.29770965891222    0.00000000000000    3.53163224767276
C        -0.37107604425475   -1.17478800586359    3.31058196643012
C         0.97979757550459   -0.72157705231961    3.28110534952822
C         0.97979757550459    0.72157705231961    3.28110534952822
C        -0.37107604425475    1.17478800586360    3.31058196643013
C         2.33544184946295   -2.58264348698296    0.58346340581249
C         3.18207169571150   -1.41543014636129    0.58234433372313
C         2.94373959867916   -0.69404060100004    1.80708186552027
C         1.95046398470883   -1.41556779135961    2.56176558167067
C         1.57767488865866   -2.57871801508103    1.80912454278211
C         3.18207169571150    1.41543014636129    0.58234433372313
C         2.33544184946295    2.58264348698296    0.58346340581249
C         1.57767488865866    2.57871801508103    1.80912454278211
C         1.95046398470883    1.41556779135961    2.56176558167066
C         2.94373959867916    0.69404060100004    1.80708186552027
C        -0.36119281684147    3.44519252612879    0.58582996047390
C        -1.73469290191499    3.00153459982720    0.58916793337350
C        -1.97220713510261    2.29308475607878    1.81059639720294
C        -0.73400332666893    2.27691900303500    2.56853480078419
C         0.25309257506893    2.99789064535074    1.80898867763471
C        -3.39649784746455    0.71758744312072    0.57410478167568
C        -3.39649784746455   -0.71758744312072    0.57410478167568
C        -2.77168037603652   -1.14964415915414    1.80664876434809
C        -2.42168465399864    0.00000000000000    2.56054627302143
C        -2.77168037603652    1.14964415915414    1.80664876434809
C        -1.73469290191499   -3.00153459982719    0.58916793337351
C        -0.36119281684148   -3.44519252612879    0.58582996047390
C         0.25309257506893   -2.99789064535073    1.80898867763471
C        -0.73400332666892   -2.27691900303499    2.56853480078419
C        -1.97220713510261   -2.29308475607878    1.81059639720295
C        -0.24585893810850   -3.00970705822685   -1.82232538763502
C         0.74439012833927   -2.28841876480361   -2.57822875384061
C         1.97268106729833   -2.28861170675520   -1.82114897801170
C         1.74031203428013   -3.00832022201671   -0.59623578829480
C         0.36724813466371   -3.45114129717027   -0.59443426078026
C         2.79027372790168   -1.16551010025889   -1.82330670861298
C         2.41077011246349    0.00000000000000   -2.58030971859023
C         2.79027372790168    1.16551010025889   -1.82330670861298
C         3.40598095600767    0.72109250237888   -0.59875668403540
C         3.40598095600767   -0.72109250237888   -0.59875668403540
C         1.97268106729833    2.28861170675520   -1.82114897801170
C         0.74439012833927    2.28841876480360   -2.57822875384062
C        -0.24585893810850    3.00970705822685   -1.82232538763502
C         0.36724813466371    3.45114129717027   -0.59443426078026
C         1.74031203428013    3.00832022201671   -0.59623578829480
C        -1.56847069976934    2.58049680433801   -1.82122736601016
C        -1.94730857051169    1.41533687195356   -2.58360676406823
C        -2.94243160962768    0.69434475341889   -1.82977489504240
C        -3.17479380115303    1.41444285760430   -0.60326970185865
C        -2.32688654321742    2.58113588269429   -0.60086409487791
C        -2.94243160962768   -0.69434475341889   -1.82977489504240
C        -1.94730857051169   -1.41533687195356   -2.58360676406823
C        -1.56847069976934   -2.58049680433801   -1.82122736601016
C        -2.32688654321742   -2.58113588269429   -0.60086409487790
C        -3.17479380115303   -1.41444285760429   -0.60326970185865
C        -0.99138524268633   -0.72097607833148   -3.31029871234527
C        -0.99138524268633    0.72097607833148   -3.31029871234528
C         0.38054100031802    1.16548515734434   -3.30884687187952
C         1.22668597234242    0.00000000000000   -3.30783368151334
C         0.38054100031802   -1.16548515734434   -3.30884687187952
Cl       -1.93737486741132   -0.00000000000005    5.25509316806359
Cl        2.96927557151652   -3.47740034682502   -2.75371584607160
62
 energy: -137.543069332447 gnorm: 0.063845489715 xtb: 6.4.1 (a3dbbd7)
C        -1.29983136875297    0.00029643905198    3.53238385748401
C        -0.37422451364562   -1.17488651703802    3.30944071028214
C         0.97752715155715   -0.72308109281258    3.27983263470971
C         0.97698297584220    0.72055932103766    3.27965617831914
C        -0.37152444876921    1.17381477029831    3.31001500349941
C         2.32378409980096   -2.57488861346261    0.58797649429534
C         3.18289009252461   -1.40887054548902    0.58481086286063
C         2.94298199048619   -0.69391358931696    1.80479937691074
C         1.94800169730511   -1.41692270943039    2.56192188755924
C         1.57402382768122   -2.58000693438705    1.81497371664079
C         3.18245024470646    1.42430512324877    0.58560208698871
C         2.33620918389965    2.58942995163849    0.58574973208903
C         1.57724409421216    2.58157532552813    1.81060017862013
C         1.95067104331577    1.41636723639345    2.56236058325515
C         2.94136358539946    0.69756772734274    1.80874584333563
C        -0.35978810029258    3.44686128312272    0.58534829669529
C        -1.73317172883184    3.00231957565986    0.58978227919303
C        -1.96990506721445    2.29461045960872    1.81093614792789
C        -0.73494561096612    2.27761503836188    2.56766084947843
C         0.25386747818369    2.99901125398265    1.80847215199960
C        -3.39669813022389    0.71880820655270    0.57443072954221
C        -3.39910484136057   -0.71673847015916    0.57465546772252
C        -2.77499884636989   -1.14905832405168    1.80747847218090
C        -2.42265788213178    0.00131359971732    2.55866354110087
C        -2.77100594368457    1.14945248244541    1.80771176973744
C        -1.74040008407797   -3.00135029720380    0.59460212838453
C        -0.36587878957510   -3.44635669893509    0.59525023676586
C         0.24729369538630   -3.00137226641640    1.81413213961466
C        -0.73909699475547   -2.27691500639591    2.56960838763061
C        -1.97971972483139   -2.29503017125228    1.81314312485112
C        -0.24889481285070   -2.99859247879293   -1.81542092619361
C         0.72876740337829   -2.28282073434350   -2.57323021952476
C         2.03154376229396   -2.36046030717910   -1.87611593176904
C         1.73033151712778   -3.00554075917495   -0.58179660354814
C         0.36413001075711   -3.44152998759520   -0.58566833812825
C         2.80795978432627   -1.14552012438234   -1.82472789496265
C         2.40897902485281    0.00646738416302   -2.56779180346898
C         2.79412315596093    1.17913131592047   -1.82048347374180
C         3.40530458390877    0.73484315406154   -0.59520965585650
C         3.40437716242809   -0.70791843869693   -0.59849461349514
C         1.97434698105104    2.29596576156894   -1.81950966499706
C         0.74224216354956    2.29233389965597   -2.57645657722235
C        -0.24441109899711    3.01103644764150   -1.82283334967197
C         0.36803895148105    3.45392551905103   -0.59438054669783
C         1.74145041128590    3.01417871637541   -0.59455692074694
C        -1.57022663202924    2.58137228173183   -1.81946826231642
C        -1.95028742029140    1.41582488903893   -2.58185948955981
C        -2.94636011923775    0.69490083473997   -1.82901475987783
C        -3.17493812850575    1.41413591605008   -0.60218659167765
C        -2.32487502104440    2.58236225372213   -0.60113294049290
C        -2.94830330750242   -0.69377386313385   -1.82869102343479
C        -1.95527145679260   -1.41560888158806   -2.58305638272736
C        -1.57723633500292   -2.57887066934721   -1.81960222558571
C        -2.32952136101377   -2.57904806211922   -0.59865961366420
C        -3.17972768728581   -1.41309189206227   -0.60236843432855
C        -0.99954784178295   -0.71951351382315   -3.30885743743359
C        -0.99583566190480    0.72157479486681   -3.30869658688653
C         0.37816049050077    1.16502990159803   -3.30611325758791
C         1.22186331780065    0.00390664655572   -3.30296220989666
C         0.37120402203143   -1.16029070843934   -3.29845609851298
Cl       -1.93722389515265   -0.00091391127800    5.25568841199175
Cl        3.04790815433384   -3.57541228925018   -2.82919221774176
62
 energy: -137.549526310120 gnorm: 0.014525025015 xtb: 6.4.1 (a3dbbd7)
C        -1.30160706734751    0.00135865540008    3.53311705524014
C        -0.37709024947572   -1.17496350382047    3.31088828435009
C         0.97505548970366   -0.72264165497451    3.27913049000594
C         0.97360122413467    0.72154429555063    3.27941246414130
C        -0.37213446978933    1.17448524363453    3.31026145412373
C         2.31788274316875   -2.57312253441634    0.58372019882935
C         3.18262333666275   -1.40553995026958    0.58730811621430
C         2.94183387472060   -0.69325500447956    1.80155000560435
C         1.94453755609013   -1.41563986467979    2.56054533064184
C         1.56959901339329   -2.57464435888142    1.81144657525686
C         3.18338567389809    1.43058538307498    0.58710192436829
C         2.33757270950891    2.59626546925586    0.58802012069813
C         1.57619726372256    2.58584102410808    1.81227487796102
C         1.94982793537308    1.41774476205817    2.56222483371681
C         2.93745397747764    0.70144512618372    1.80956282625878
C        -0.36010462332524    3.45019842873485    0.58638739609860
C        -1.73321331173708    3.00417193396802    0.59185869145810
C        -1.96820970870658    2.29589676457823    1.81222638522668
C        -0.73676527164890    2.27987694160963    2.56831999466849
C         0.25381852407652    3.00161780314269    1.80939406110866
C        -3.40017176567183    0.72069213044706    0.57658052011947
C        -3.40266560212565   -0.71546284349172    0.57668541208117
C        -2.77917576800855   -1.14815187910186    1.80917775947161
C        -2.42420573656682    0.00351586663589    2.55747381647504
C        -2.77279967528299    1.15013740777786    1.81054890437905
C        -1.74380885868953   -3.00013798643444    0.59793366324568
C        -0.36665158315759   -3.44273160610127    0.59853357359647
C         0.24243054394097   -2.99927733855513    1.81445520593491
C        -0.74313002512510   -2.27715497075372    2.57299039821069
C        -1.98481492366308   -2.29485261093003    1.81445944270931
C        -0.24381735696653   -2.98533766511319   -1.81217706572303
C         0.72708743262008   -2.28588890621653   -2.57524847161372
C         2.08219558615859   -2.42730954519000   -1.92653148226474
C         1.73093274696592   -3.00859482064927   -0.58026790732955
C         0.36854478537259   -3.42967735276639   -0.58215899134966
C         2.80428425412130   -1.13688877722187   -1.82183372859488
C         2.40461605547114    0.00213558866147   -2.55727937702408
C         2.79107630646948    1.18295135453772   -1.81517752667016
C         3.40650759490386    0.74045939515315   -0.59310061321345
C         3.38914845900640   -0.70456399607640   -0.60003786583090
C         1.97330288236405    2.29896240793045   -1.81521475663489
C         0.73951500251185    2.29576665839635   -2.57345800976349
C        -0.24376528943394    3.01211865695462   -1.82171143383370
C         0.36772121089038    3.45823956904901   -0.59266550493532
C         1.74219157755711    3.02126358619251   -0.59229992365475
C        -1.57272629504740    2.58311460257314   -1.81603060477190
C        -1.95184957828062    1.41663445939082   -2.57817158054151
C        -2.94966382044836    0.69593614856408   -1.82648039803154
C        -3.17660340114336    1.41402468023641   -0.59938702624549
C        -2.32359260506417    2.58368706374482   -0.59964803536696
C        -2.95466172465304   -0.69306249891755   -1.82746988324061
C        -1.95907675336721   -1.41450925958347   -2.57955414704404
C        -1.57890358229076   -2.57446637294727   -1.81658616535501
C        -2.32988005291422   -2.57594235443341   -0.59686569526610
C        -3.18406929284222   -1.41145628593207   -0.60053368644510
C        -1.00026605114056   -0.71884852008030   -3.30084099012252
C        -0.99671479946063    0.72179925412972   -3.30259283780885
C         0.37875675129799    1.16285867838582   -3.30154770700854
C         1.21978492716993    0.00425183100031   -3.30270123820300
C         0.37089821537561   -1.16227646550172   -3.29166828357032
Cl       -1.94066465260276    0.00446849897410    5.25315524352024
Cl        3.11082944434085   -3.64505108934058   -2.88806485834052
62
 energy: -137.549859062295 gnorm: 0.008729377397 xtb: 6.4.1 (a3dbbd7)
C        -1.30286217755968    0.00264711852666    3.53429715969841
C        -0.37830339650539   -1.17378608918705    3.31113985164535
C         0.97400655054697   -0.72163723021976    3.27818837168954
C         0.97237768169400    0.72249725909781    3.27992414941312
C        -0.37257635549186    1.17548187442305    3.31088319764164
C         2.32025260938768   -2.57563060504604    0.58023834898183
C         3.18627780954971   -1.40685680828589    0.58809175709749
C         2.94172055466752   -0.69293198134916    1.79994663071518
C         1.94274058095954   -1.41412487693493    2.55807241996188
C         1.56822739433041   -2.57146084046502    1.80690064009178
C         3.18048155634449    1.43036719019478    0.58734834286086
C         2.33740514104818    2.59803970188140    0.58899275813374
C         1.57582321260339    2.58768276498852    1.81348922260831
C         1.94929154390996    1.41826361332886    2.56255307562273
C         2.93616543623824    0.70232768847839    1.81042098595409
C        -0.36070573226391    3.45199822267799    0.58729944288643
C        -1.73390363423064    3.00557578378127    0.59309317764322
C        -1.96810737939324    2.29674518514394    1.81311682724342
C        -0.73757982495404    2.28142669542918    2.56925202239246
C         0.25360260012498    3.00332035624888    1.81054764053689
C        -3.40214854131259    0.72185622233342    0.57792231578128
C        -3.40522698647304   -0.71461304814491    0.57809019087260
C        -2.78140987242872   -1.14751152650273    1.81034954979891
C        -2.42524316887292    0.00487373975501    2.55779178426582
C        -2.77416275550903    1.15123586623457    1.81210160216798
C        -1.74385936983193   -2.99823884972522    0.59835509045361
C        -0.36589070286467   -3.43965007707744    0.59706273177480
C         0.24151838116655   -2.99670478351632    1.81293901258296
C        -0.74410504946474   -2.27615510670357    2.57384786325607
C        -1.98605744144823   -2.29362297214340    1.81488182902303
C        -0.24027345405354   -2.98266731765620   -1.81280981639984
C         0.73256029308112   -2.29204142328505   -2.58082822260022
C         2.09311438259935   -2.44374690362389   -1.93782554079143
C         1.73716039113949   -3.01543690792416   -0.58481619877801
C         0.37198464569074   -3.42757619907858   -0.58294138689733
C         2.80093555036972   -1.14016390121757   -1.82109781940847
C         2.40357099328221   -0.00251759563753   -2.55662685261420
C         2.78736408344998    1.18091632101026   -1.81375212263628
C         3.40180512718751    0.73798987244098   -0.59230000042036
C         3.38816546677792   -0.70853991937928   -0.60183453757640
C         1.97192278912507    2.29843081760628   -1.81367676003374
C         0.73793395064975    2.29634464089981   -2.57204274996318
C        -0.24439349786522    3.01251145925380   -1.82075685940223
C         0.36708792976235    3.46002782440078   -0.59172914697751
C         1.74183350401099    3.02301549278576   -0.59148489500307
C        -1.57413764130929    2.58415158616454   -1.81456219954994
C        -1.95236720505197    1.41707736722550   -2.57638334240158
C        -2.95081791961821    0.69676095028339   -1.82487430510453
C        -3.17786842827200    1.41467944798605   -0.59793232910883
C        -2.32400847535496    2.58468501812658   -0.59846633338133
C        -2.95618209390409   -0.69227721302225   -1.82631976746245
C        -1.95825044877369   -1.41340018328977   -2.57678244507731
C        -1.57662524952212   -2.57208964213912   -1.81431909786997
C        -2.32913383966746   -2.57358989450797   -0.59586841090464
C        -3.18574743466321   -1.41047409251370   -0.59934457659007
C        -0.99763896412572   -0.71901211447454   -3.29577377573572
C        -0.99638320494151    0.72159902420181   -3.29916302035929
C         0.37899330325656    1.16213272931619   -3.29962353030410
C         1.21977830950478    0.00408955796909   -3.30492952603900
C         0.37388466429337   -1.16517568562204   -3.29278068341830
Cl       -1.94486848005190    0.00748854937595    5.25193061666441
Cl        3.12326149151845   -3.65200649972242   -2.89798312673366
62
 energy: -137.549974706519 gnorm: 0.004636744888 xtb: 6.4.1 (a3dbbd7)
C        -1.30338343538806    0.00318497897258    3.53531617096865
C        -0.37871470785849   -1.17320895963902    3.31147047671891
C         0.97373699555634   -0.72117499570392    3.27786339506900
C         0.97206426189379    0.72290837415485    3.28051012539527
C        -0.37246055792102    1.17586349693747    3.31140274021719
C         2.32166941621408   -2.57689385211674    0.57846514763298
C         3.18893982101209   -1.40773016707753    0.58941965746407
C         2.94225276510360   -0.69290111358819    1.79960978903444
C         1.94171966696014   -1.41319648283093    2.55643332371532
C         1.56729018124496   -2.56963364808432    1.80411024432325
C         3.17930649458647    1.42988952305797    0.58741055066921
C         2.33745805194285    2.59829204974331    0.58919764139679
C         1.57598618427001    2.58829232310433    1.81403379320838
C         1.94940797485468    1.41825389982603    2.56284444590840
C         2.93583668071293    0.70258042003318    1.81112998716440
C        -0.36072944266556    3.45257528187804    0.58749223411010
C        -1.73398285658567    3.00585715760661    0.59347910637223
C        -1.96759126646217    2.29658494104548    1.81326419356060
C        -0.73773855844713    2.28193489195695    2.56964432171649
C         0.25384475236307    3.00381996256316    1.81098787284318
C        -3.40325690884326    0.72219335488611    0.57842894230635
C        -3.40679938851498   -0.71442975349635    0.57876464878700
C        -2.78269807286945   -1.14761500971541    1.81098260015743
C        -2.42539412172709    0.00529575286176    2.55771756415654
C        -2.77469896325899    1.15142412040277    1.81274610110216
C        -1.74379239452268   -2.99703494824145    0.59848660434425
C        -0.36557759356546   -3.43739465735406    0.59592159154478
C         0.24114511939700   -2.99521941506429    1.81224896251831
C        -0.74447456810734   -2.27565721515278    2.57463706388719
C        -1.98652546497424   -2.29308283188758    1.81532854766524
C        -0.23846862028638   -2.98058231090165   -1.81299672609817
C         0.73620669675975   -2.29545194920384   -2.58421430125634
C         2.09787044158059   -2.45144490992784   -1.94300014148009
C         1.74111013829352   -3.01914231225324   -0.58774720616282
C         0.37373172157110   -3.42581449563508   -0.58319508775063
C         2.79704404393501   -1.14262797923243   -1.81979469468147
C         2.40253160007357   -0.00569501498879   -2.55658056558197
C         2.78457851788841    1.17913143305356   -1.81264820580647
C         3.39866935180046    0.73614979422443   -0.59176765561773
C         3.38742355883256   -0.71142898776021   -0.60264169485953
C         1.97122603826064    2.29786573844530   -1.81314569434867
C         0.73707066403510    2.29670402847105   -2.57178865417912
C        -0.24467590254277    3.01257012696205   -1.82064301778040
C         0.36694654312887    3.46073135780969   -0.59157253544583
C         1.74175320880273    3.02337624850423   -0.59135128734089
C        -1.57486317412525    2.58459668690803   -1.81417018124161
C        -1.95257344333545    1.41722376809392   -2.57579745381118
C        -2.95131599071802    0.69711734867383   -1.82415891952591
C        -3.17861052901037    1.41482746685475   -0.59738327081083
C        -2.32407295844643    2.58489758080170   -0.59807647487753
C        -2.95713707206099   -0.69186206932048   -1.82591193135344
C        -1.95790431228696   -1.41279843662788   -2.57557097475847
C        -1.57514009301336   -2.57041943131359   -1.81270645940734
C        -2.32866845786716   -2.57210616346693   -0.59524094843449
C        -3.18680683076802   -1.41002529161556   -0.59895545446230
C        -0.99614826246477   -0.71935628085235   -3.29303288565300
C        -0.99598800125213    0.72128875600958   -3.29724047157749
C         0.37914477851325    1.16204201741263   -3.29929956164235
C         1.21955428903586    0.00451074544197   -3.30703733828010
C         0.37545287917644   -1.16653714940067   -3.29355637814856
Cl       -1.94757290661066    0.00920971348608    5.25073751528552
Cl        3.12720122119192   -3.64812785455532   -2.89941995695207
62
 energy: -137.550011984847 gnorm: 0.002440214910 xtb: 6.4.1 (a3dbbd7)
C        -1.30332645346681    0.00311858028711    3.53573649480909
C        -0.37859353938650   -1.17325885044706    3.31160449727172
C         0.97395424533854   -0.72127632227413    3.27800557184775
C         0.97225454273594    0.72283442984379    3.28070802561749
C        -0.37213701358709    1.17578955115257    3.31151875396230
C         2.32158478859820   -2.57687959734314    0.57831416629477
C         3.18960402980792   -1.40790612963684    0.59026873034619
C         2.94279595166272   -0.69313725383753    1.79997858161361
C         1.94160635012428   -1.41314914621944    2.55615549764644
C         1.56696099789785   -2.56939846937839    1.80358034395387
C         3.17956196387411    1.42965533157846    0.58738110251665
C         2.33764670718131    2.59788712340505    0.58897111588133
C         1.57627022587963    2.58808855639481    1.81394189002167
C         1.94975454674666    1.41799865034494    2.56285967024348
C         2.93606635255940    0.70243761679504    1.81141952540359
C        -0.36043376334248    3.45235074326732    0.58727896942037
C        -1.73370172498405    3.00557663909119    0.59333337285018
C        -1.96710916541845    2.29622264912323    1.81305533437506
C        -0.73752880338907    2.28177568702600    2.56953427453676
C         0.25419096336565    3.00357939870118    1.81084388199187
C        -3.40329634251445    0.72203502223587    0.57833425434015
C        -3.40705663427060   -0.71457303583998    0.57877470347995
C        -2.78287483335439   -1.14789546551477    1.81101382111947
C        -2.42508713859907    0.00522445862456    2.55744257914862
C        -2.77456631682003    1.15121586963621    1.81273106348287
C        -1.74377459163888   -2.99684996759412    0.59849086228215
C        -0.36568081076950   -3.43685505727275    0.59565570136521
C         0.24109425591120   -2.99510841452291    1.81235380482519
C        -0.74447192489109   -2.27570449338935    2.57498141715285
C        -1.98649979245395   -2.29310864259562    1.81554032522358
C        -0.23835741006723   -2.97970736067411   -1.81280352504317
C         0.73682515699015   -2.29570429719360   -2.58455409408044
C         2.09884430418453   -2.45291720413392   -1.94409586185950
C         1.74168069259126   -3.01929557349996   -0.58821403313892
C         0.37383083739845   -3.42496170079789   -0.58297254840556
C         2.79451284574906   -1.14307218885212   -1.81862044151866
C         2.40180811304923   -0.00656298780120   -2.55637858687675
C         2.78382330811909    1.17858017149505   -1.81225584640985
C         3.39801722321919    0.73573030287462   -0.59168192100224
C         3.38657447719545   -0.71213209624797   -0.60259609615747
C         1.97127930353369    2.29769287372230   -1.81335263687476
C         0.73694368326178    2.29679063244199   -2.57215752827176
C        -0.24456636205929    3.01241577717041   -1.82093045001441
C         0.36714136917052    3.46058754449643   -0.59178667346504
C         1.74191165070753    3.02305488741404   -0.59155894261667
C        -1.57487279268073    2.58451662166829   -1.81436967064207
C        -1.95257424219695    1.41716005047933   -2.57606234102877
C        -2.95126733432061    0.69703097693992   -1.82417096353214
C        -3.17858462079645    1.41463848775042   -0.59746994642552
C        -2.32383431366894    2.58469623696555   -0.59820930910410
C        -2.95747709143402   -0.69189594598552   -1.82603356460259
C        -1.95807766360557   -1.41281299059804   -2.57562975389293
C        -1.57493644020550   -2.57010508481390   -1.81229455821091
C        -2.32862092475482   -2.57184995818520   -0.59510936254436
C        -3.18706919955148   -1.41005203392101   -0.59909569868149
C        -0.99602987868151   -0.71963187794655   -3.29266969932477
C        -0.99589532366051    0.72109205258338   -3.29709611318442
C         0.37914353952081    1.16213826784504   -3.29984484178220
C         1.21925068377164    0.00488125994080   -3.30784196964212
C         0.37541004210776   -1.16657819882692   -3.29345800468172
Cl       -1.94817049063816    0.00946501619866    5.24991570757094
Cl        3.12653898744613   -3.64128146897463   -2.89696982766297
62
 energy: -137.550023525526 gnorm: 0.001253741222 xtb: 6.4.1 (a3dbbd7)
C        -1.30319001325424    0.00295520679430    3.53584451267542
C        -0.37842719142902   -1.17345263939185    3.31158618210402
C         0.97416229764133   -0.72149022629367    3.27818737304103
C         0.97244922342912    0.72266634816228    3.28063064036216
C        -0.37194338205346    1.17565815157055    3.31142845298723
C         2.32108323900633   -2.57663513151234    0.57869076799604
C         3.18928454920404   -1.40786045471847    0.59045032094533
C         2.94301916218130   -0.69339643508345    1.80032545691386
C         1.94183163692817   -1.41344172496589    2.55649111541288
C         1.56696998557529   -2.56978498635402    1.80400288686117
C         3.18008240438013    1.42958809917143    0.58733515269386
C         2.33780118584460    2.59755178406727    0.58874367443143
C         1.57641910242140    2.58776278162129    1.81367697930149
C         1.94996606505929    1.41779926548063    2.56272693500524
C         2.93632002214326    0.70222368156860    1.81140614220525
C        -0.36019619468301    3.45204076130726    0.58708013497030
C        -1.73347772727968    3.00534609914520    0.59314960785262
C        -1.96693827906040    2.29612595732491    1.81291205191796
C        -0.73734328973160    2.28155399575305    2.56932967339137
C         0.25437366477624    3.00328583296885    1.81059650826266
C        -3.40297123741131    0.72185883919571    0.57815051753499
C        -3.40675781256012   -0.71467558307878    0.57860462455505
C        -2.78261985125307   -1.14798630340466    1.81085207836210
C        -2.42487567851510    0.00513940776264    2.55730573213895
C        -2.77431214081364    1.15107453913962    1.81258419360470
C        -1.74381093755591   -2.99706967685000    0.59846249591282
C        -0.36587621356081   -3.43719856064084    0.59581664028138
C         0.24111476217642   -2.99547115134778    1.81262634818775
C        -0.74441513504777   -2.27586681813883    2.57497261833944
C        -1.98639788999469   -2.29323445537260    1.81555169857837
C        -0.23881174020296   -2.97981269097557   -1.81266022755379
C         0.73612100144475   -2.29499891089399   -2.58383802628360
C         2.09871592295910   -2.45237646744248   -1.94389101382804
C         1.74089363552720   -3.01846022109334   -0.58767689610324
C         0.37339477351235   -3.42497856183616   -0.58276860043769
C         2.79352853098291   -1.14258053812752   -1.81797162592164
C         2.40152705445241   -0.00625206265355   -2.55616723403531
C         2.78418768291450    1.17871850645020   -1.81234593592150
C         3.39852011897223    0.73595385727463   -0.59182190511440
C         3.38604988438787   -0.71178450732108   -0.60231224061524
C         1.97154875995520    2.29771845994441   -1.81369570487861
C         0.73711084939823    2.29669979042290   -2.57249934998169
C        -0.24436351232987    3.01225985637111   -1.82116099513466
C         0.36734800029037    3.46025517134045   -0.59197062733830
C         1.74208562844923    3.02273385076862   -0.59175637767942
C        -1.57464532192708    2.58431848885900   -1.81458232903843
C        -1.95249961134601    1.41704498637552   -2.57637611019191
C        -2.95108428635670    0.69684506446559   -1.82435035929939
C        -3.17830806915492    1.41446865760218   -0.59765908931849
C        -2.32361974352268    2.58451798371763   -0.59839515706119
C        -2.95746173430256   -0.69207208300441   -1.82622036808400
C        -1.95832318867003   -1.41303708664834   -2.57601518741453
C        -1.57527348592796   -2.57045752934796   -1.81252279013060
C        -2.32877125628642   -2.57212927617837   -0.59520631068550
C        -3.18695341007967   -1.41019694400806   -0.59927975186013
C        -0.99637770596289   -0.71976621802698   -3.29320090371927
C        -0.99598057197566    0.72102326802381   -3.29759945239021
C         0.37908994345118    1.16214673824511   -3.30035415043526
C         1.21909483228089    0.00493108595437   -3.30780145954852
C         0.37490043429999   -1.16635274230564   -3.29319541037068
Cl       -1.94768823127295    0.00917372969795    5.24964513403395
Cl        3.12512969196838   -3.63602060635544   -2.89443183056878
62
 energy: -137.550025578553 gnorm: 0.000382867218 xtb: 6.4.1 (a3dbbd7)
C        -1.30316187538691    0.00288921145954    3.53583426205399
C        -0.37839228653946   -1.17357061212722    3.31151064102208
C         0.97417335485857   -0.72160268818231    3.27820075335658
C         0.97248279560154    0.72256542431012    3.28043834184665
C        -0.37195771386024    1.17561005640063    3.31129335199074