63
 energy: -142.079980349988 gnorm: 0.135377569164 xtb: 6.4.1 (a3dbbd7)
C        -1.29585809770389    0.00401118895665    3.54517689253707
C        -0.36796043462932   -1.17243305037605    3.30515820978008
C         0.98298838983527   -0.72191219207564    3.27512267938171
C         0.98156472667820    0.71960753568128    3.26971969810914
C        -0.37066843460465    1.17924059903467    3.30150764336582
C         2.33648296603916   -2.58548060331365    0.57950289353032
C         3.18657767574002   -1.41946403927647    0.57781419519059
C         2.94957050639235   -0.69854930596759    1.80123308070154
C         1.95308396824160   -1.41752165468763    2.55613481575760
C         1.57961582989334   -2.57968580837377    1.80518673242103
C         3.18767024140451    1.40991878522763    0.57593180000620
C         2.33807592116844    2.57402574447607    0.57591940981122
C         1.57683795432701    2.56605672107525    1.79975339071644
C         1.95304946465436    1.40835201077487    2.55205927518980
C         2.95072023087345    0.68875745016373    1.80098024572921
C        -0.36516779407368    3.42666371337356    0.57921714423118
C        -1.72924376763824    3.01648005769000    0.58287705261872
C        -2.09463355992581    2.46231283092052    1.94730853815858
C        -0.73027134402217    2.28553619303067    2.58224921102021
C         0.24829448349984    2.97593693112150    1.80334175266563
C        -3.37466967425340    0.70300551354290    0.57574930054980
C        -3.39003092747716   -0.73268815647906    0.56838248265369
C        -2.76818811332164   -1.16356142379097    1.78871572221350
C        -2.38904763706855    0.02437925876362    2.53264263719760
C        -2.74834472563595    1.12995086275151    1.81420011519069
C        -1.73481952350512   -3.00995345714269    0.57938225060336
C        -0.36149853481650   -3.44686666227317    0.58178847315895
C         0.25217194581416   -2.99475012292755    1.80551621994623
C        -0.72930832442940   -2.27346636839910    2.56467955448571
C        -1.97147545426586   -2.28746259170963    1.79868366133100
C        -0.24419850626392   -3.01431906333444   -1.82647673840836
C         0.74940205407495   -2.29291975825760   -2.58286291053874
C         1.97453700933417   -2.29239152843074   -1.82543977586922
C         1.74139873400736   -3.01127177410490   -0.59946235558356
C         0.36858334367966   -3.45436466613801   -0.59762914044760
C         2.79442417392884   -1.17031401259636   -1.82833550603033
C         2.41574661888024   -0.00512369156855   -2.58546959716668
C         2.79806943075341    1.16104826420258   -1.83045397172065
C         3.41356646771945    0.71553904943849   -0.60565027142670
C         3.41126633561149   -0.72579612454708   -0.60436594395851
C         1.98256115248497    2.28538932455247   -1.82964816243281
C         0.75350030257848    2.28551308199782   -2.58573232036207
C        -0.23508280213456    3.00436687409655   -1.82344140492918
C         0.37359850932028    3.44286488622179   -0.60220138863872
C         1.74684322376492    3.00246743943424   -0.60372642363492
C        -1.55566653231806    2.56818250386052   -1.80941223575869
C        -1.93859434646944    1.40592010794080   -2.57168095880615
C        -2.93551210457882    0.68461262535792   -1.82146846772098
C        -3.16898901542976    1.39767486975662   -0.59605965548237
C        -2.30435127723071    2.57332623923171   -0.58497549467516
C        -2.94114405309208   -0.70773319324488   -1.83440725641731
C        -1.94505174577217   -1.42387954875747   -2.59102123506710
C        -1.56548890447542   -2.59170746585215   -1.83211639425372
C        -2.32839595515909   -2.59312664323360   -0.60918315818311
C        -3.17773883494341   -1.43218193772331   -0.61434027474195
C        -0.98775846759569   -0.72638522820754   -3.31322849837523
C        -0.98659864719709    0.71557045430270   -3.30737103326374
C         0.38544609985482    1.16109326139683   -3.31071431261235
C         1.23106807703669   -0.00470839638716   -3.31198800126459
C         0.38446650889097   -1.17000629330740   -3.31255499443923
Cl       -1.95494402230001   -0.00808767739961    5.23350834621500
Cl       -3.13453400437008    3.62205440029917    2.87428256883422
Cl        2.38988489400996   -3.89940569168377    2.74215176556357
63
 energy: -142.104035079478 gnorm: 0.057150652003 xtb: 6.4.1 (a3dbbd7)
C        -1.29687882312263    0.00562279442229    3.54438357269878
C        -0.37141968936242   -1.17066730925244    3.30493837135960
C         0.98073766282906   -0.71192269543181    3.26402074968491
C         0.98165544897022    0.72655059318746    3.26970474664628
C        -0.37172129696254    1.18167318871445    3.30041593314622
C         2.33734646122298   -2.57612781941970    0.56653808903373
C         3.17745214953496   -1.41342657070856    0.57109838911934
C         2.93942410950054   -0.69116097667344    1.79628317424366
C         1.95353532782645   -1.40173150405372    2.55457127800978
C         1.62905801015081   -2.65934533377498    1.86055936290575
C         3.18767817523089    1.41515372289150    0.57402732780018
C         2.33838188559832    2.57899337815122    0.57431690218595
C         1.57684561749824    2.57091433747611    1.79788619953505
C         1.95448541332837    1.41527366773203    2.55137991413697
C         2.95096174969325    0.69817983699220    1.80076401007778
C        -0.36615218508667    3.42828304183745    0.57823949408266
C        -1.72995174318143    3.01750897441688    0.58206706490448
C        -2.09543151429185    2.46364913645375    1.94660093256445
C        -0.73102683820258    2.28760207026884    2.58118701160836
C         0.24755752980907    2.97832020338413    1.80206724907553
C        -3.37619991930251    0.70514793655140    0.57497388512813
C        -3.39435031441990   -0.72984360174876    0.56705803916270
C        -2.77449135949759   -1.16091238687060    1.78809403414818
C        -2.39094752663719    0.02583285308954    2.53241969124143
C        -2.74916049206160    1.13127087065122    1.81350892430043
C        -1.74706539736568   -3.00843509273460    0.57671006784671
C        -0.37013153553928   -3.43657509916462    0.58069080281748
C         0.23122641644991   -3.00790502934156    1.80802179320907
C        -0.73617658761415   -2.26878381743511    2.55278580419989
C        -1.98239577394435   -2.28624324838212    1.79552291443373
C        -0.24467047704647   -3.01175147349625   -1.82568429623541
C         0.74971096607067   -2.29059284365137   -2.58417631247711
C         1.97637675699452   -2.28904516578327   -1.83186055414259
C         1.73811346018642   -2.99869530168684   -0.60427564613981
C         0.36500478692047   -3.45271171001359   -0.60058978053421
C         2.79806990894372   -1.16663957794403   -1.83383139125137
C         2.41666027111444   -0.00141749836251   -2.58819136081171
C         2.79891981369918    1.16488551625372   -1.83305337489755
C         3.41364772097228    0.72012713593644   -0.60850111589145
C         3.41201369169914   -0.72134538925637   -0.61144706436415
C         1.98199819463911    2.28857722914584   -1.83147833849330
C         0.75327738950508    2.28735115881986   -2.58699917958979
C        -0.23554590097408    3.00546352711676   -1.82460849204913
C         0.37282513658669    3.44439357400169   -0.60354732937364
C         1.74602252739549    3.00565996268098   -0.60556482141112
C        -1.55574083670616    2.56840859198981   -1.81048435895578
C        -1.93849249250721    1.40677032030480   -2.57277153022972
C        -2.93564392160560    0.68571845059179   -1.82228155530308
C        -3.16953038021848    1.39927201045521   -0.59696078510489
C        -2.30493189281832    2.57411709314407   -0.58580210141003
C        -2.94218326093914   -0.70602024954869   -1.83556809460205
C        -1.94612212667848   -1.42336187515395   -2.59190074229393
C        -1.56888334072599   -2.58984514128352   -1.83375509963512
C        -2.33602120452939   -2.59222181031274   -0.61163762972987
C        -3.18206359142704   -1.42979285591035   -0.61569239599288
C        -0.98776839462865   -0.72543247010242   -3.31510499418830
C        -0.98650092206584    0.71598789742199   -3.30822271185105
C         0.38553099817840    1.16240945974646   -3.31187949580439
C         1.23129080415494   -0.00251883220763   -3.31329906234058
C         0.38428006963239   -1.16808256586601   -3.31372045947882
Cl       -1.95485356220080   -0.00771304770490    5.23430889547678
Cl       -3.13517026665631    3.62261987209095    2.87422666209439
Cl        2.46336678777502   -4.00912946553726    2.81797866436015
63
 energy: -142.109959589883 gnorm: 0.012672694228 xtb: 6.4.1 (a3dbbd7)
C        -1.29724641097872    0.00483019392097    3.54103577339810
C        -0.37170954585711   -1.17290733110015    3.30881348509159
C         0.98259232166961   -0.71445104307254    3.25710249468192
C         0.97865505307736    0.72406371410220    3.26084444156986
C        -0.37383774789723    1.18154498510796    3.29563787555309
C         2.34112624384518   -2.57978180017593    0.56608833870076
C         3.16437611425269   -1.41473057851606    0.56852523362386
C         2.92481747675558   -0.69249642630585    1.79406801943946
C         1.95702879825751   -1.40343797772970    2.55812381095174
C         1.67546069923446   -2.72846145119367    1.90882933412638
C         3.18442397595675    1.41766572174319    0.57231666650627
C         2.33689649775520    2.58291013739969    0.57193376099616
C         1.57551406476460    2.57528212344199    1.79564476208269
C         1.95166273686986    1.41680875932275    2.54616200446446
C         2.94575554125275    0.70016550518106    1.79837407713037
C        -0.36788329333065    3.43119236140739    0.57621798517421
C        -1.73172138940259    3.02061219309796    0.57991718033388
C        -2.09712739995444    2.46676445834376    1.94447828610635
C        -0.73275138827594    2.28933386026438    2.57869954271970
C         0.24586738803243    2.98150327204886    1.79990808558335
C        -3.37888529168105    0.70858106687744    0.57308530489702
C        -3.39847454540619   -0.72627437261465    0.56543869949038
C        -2.77528696370235   -1.15664028641713    1.78563160139141
C        -2.39322310290655    0.02915897244011    2.53111227985038
C        -2.75099324957089    1.13437893784551    1.81173586365735
C        -1.74626595439357   -3.00213590821791    0.57465827284653
C        -0.36596053082651   -3.42714060519933    0.58419396245524
C         0.22886044580106   -3.00775734517475    1.80639995857961
C        -0.72997140246713   -2.26628546206631    2.54403963548134
C        -1.98000725533638   -2.28010331282743    1.79135456850838
C        -0.24471380380249   -3.00833717524808   -1.82176001361441
C         0.74841287509430   -2.28653736294520   -2.58264108956827
C         1.97241060353889   -2.28308860508533   -1.82791359165098
C         1.73875167468643   -2.99499962912569   -0.60001138116950
C         0.36491714752076   -3.45517704316252   -0.60189794254369
C         2.79602173174354   -1.16196230193538   -1.83429290027099
C         2.41646510248620    0.00245833403946   -2.59128882850570
C         2.79776036947516    1.16874573044723   -1.83517396910845
C         3.41055615700803    0.72283192117173   -0.61034779518019
C         3.40687299906108   -0.71929338580382   -0.61326867430066
C         1.98039354206914    2.29278984010602   -1.83408643906567
C         0.75193119743086    2.29082117360274   -2.58924729099546
C        -0.23715126778752    3.00875330248460   -1.82700129291204
C         0.37124454813919    3.44770373601509   -0.60595968432579
C         1.74428501804450    3.00989303502197   -0.60821721003398
C        -1.55697287786956    2.57084730332809   -1.81266163231868
C        -1.93988228029371    1.40973334775254   -2.57476006142186
C        -2.93719184044138    0.68856921220870   -1.82409771102530
C        -3.17115299683525    1.40256244286296   -0.59875850495730
C        -2.30660912957418    2.57695377445150   -0.58779813586344
C        -2.94425633069196   -0.70269093277747   -1.83724453766251
C        -1.94724279281264   -1.42101122985377   -2.59245332427435
C        -1.57126795165305   -2.58655984470384   -1.83517588005190
C        -2.33773278082485   -2.58805111722513   -0.61268231501814
C        -3.18560487656026   -1.42663686919558   -0.61735916991265
C        -0.98894555876078   -0.72262196675160   -3.31687287805548
C        -0.98785163047932    0.71829990762485   -3.30964478817045
C         0.38436766642104    1.16504403065714   -3.31343812003434
C         1.23048258680655    0.00065589787680   -3.31539454247811
C         0.38297175082544   -1.16524645022978   -3.31422930944767
Cl       -1.95449090090382   -0.00528485290067    5.23261523385855
Cl       -3.13663199444364    3.62442414350726    2.87343913786906
Cl        2.51399383163625   -4.09344008104151    2.87371321347418
63
 energy: -142.110268451457 gnorm: 0.007697067167 xtb: 6.4.1 (a3dbbd7)
C        -1.29729919205926    0.00455918283056    3.53986296559161
C        -0.37148514228225   -1.17414449499484    3.31218683296849
C         0.98473151997996   -0.71898680815195    3.25875457305605
C         0.97737771204045    0.72042770011910    3.25569565821994
C        -0.37418362978108    1.18008127352851    3.29187375707211
C         2.34554534101161   -2.58772433631846    0.57026420106776
C         3.16075661408429   -1.41750174380542    0.56915225594349
C         2.92057912761764   -0.69548898519914    1.79485383879786
C         1.96121288036878   -1.41103760219587    2.56408567591265
C         1.68835708184983   -2.74527697447014    1.92050344238384
C         3.18148789021259    1.41756175192266    0.57150938177738
C         2.33554945809525    2.58409902113284    0.57084174935496
C         1.57422575419716    2.57628077290156    1.79442758392898
C         1.94944570545077    1.41563813223605    2.54303674288851
C         2.94224861663582    0.69828123751645    1.79637245638750
C        -0.36904029699899    3.43308215857731    0.57517621681042
C        -1.73290284580335    3.02236545265689    0.57893493989634
C        -2.09817310670977    2.46830228773898    1.94362065260734
C        -0.73344690981912    2.28929075117071    2.57698066728205
C         0.24474689230325    2.98255426188006    1.79850998780762
C        -3.38008766779132    0.70995676470394    0.57250335732360
C        -3.39895513759973   -0.72504695834543    0.56498786879128
C        -2.77387711040581   -1.15514194999471    1.78444718752189
C        -2.39334957234914    0.03034893682874    2.53018643617640
C        -2.75188581421598    1.13578215956956    1.81112037267225
C        -1.74221627965009   -2.99857568043277    0.57401189363196
C        -0.36121103440973   -3.42612011236430    0.58621870839533
C         0.23371567924279   -3.00634265601541    1.80601748251219
C        -0.72492971927244   -2.26677065395634    2.54347359058221
C        -1.97553480268122   -2.27675616698486    1.78964299109719
C        -0.24455896455970   -3.00748588968336   -1.82036858386269
C         0.74767453704974   -2.28419603701404   -2.58057277996694
C         1.97023474746087   -2.28075262800852   -1.82393729741174
C         1.74081800126030   -2.99807923870083   -0.59717238943519
C         0.36589537477772   -3.45811960055560   -0.60296952606709
C         2.79383240038617   -1.16025687147173   -1.83308940088974
C         2.41558367650035    0.00400621707676   -2.59203776390921
C         2.79650114597450    1.17029152015586   -1.83586649311054
C         3.40767244406884    0.72321121140076   -0.61064678003523
C         3.40313973144969   -0.71903106118841   -0.61188416184369
C         1.97949901653958    2.29491848536361   -1.83539465620409
C         0.75102880334316    2.29303279139454   -2.59062483637631
C        -0.23828805326454    3.01086640667933   -1.82827235460605
C         0.37021944595057    3.44991496172484   -0.60714755996003
C         1.74327705937664    3.01207360787140   -0.60939114762649
C        -1.55803639425891    2.57251067254453   -1.81374634375486
C        -1.94093523331316    1.41143145975770   -2.57578319729538
C        -2.93811778509625    0.68992639186191   -1.82491404845907
C        -3.17222467094522    1.40404942042039   -0.59942240015045
C        -2.30780140202261    2.57853640715799   -0.58874281143058
C        -2.94487172068348   -0.70131842293452   -1.83791383317518
C        -1.94728533426371   -1.41969716079032   -2.59277752727161
C        -1.57125556049968   -2.58505297260443   -1.83574202497345
C        -2.33620244498160   -2.58571727876705   -0.61267001150064
C        -3.18568004444525   -1.42535937848870   -0.61781294240129
C        -0.98954064750827   -0.72100726813141   -3.31763034389309
C        -0.98875149037520    0.71990391573709   -3.31052864828485
C         0.38351085926170    1.16687577614374   -3.31450633213370
C         1.22960649057254    0.00243462604327   -3.31595406300225
C         0.38232350255916   -1.16370083296611   -3.31371890046872
Cl       -1.95500007487181   -0.00050365074752    5.23197367178237
Cl       -3.13724635373970    3.62645696769732    2.87240339085456
Cl        2.51940860082738   -4.11151862195571    2.88206850505969
63
 energy: -142.110360351172 gnorm: 0.004580408565 xtb: 6.4.1 (a3dbbd7)
C        -1.29745471176484    0.00491776565803    3.53961791322326
C        -0.37194977798192   -1.17420670391345    3.31462960146443
C         0.98562008254642   -0.72125786091700    3.26010074665508
C         0.97693922642596    0.71844269917973    3.25302329795777
C        -0.37400778622420    1.17920950689429    3.28987182107291
C         2.34748947371805   -2.59199522705040    0.57263627330733
C         3.15849651364501   -1.41857887413895    0.56926521871231
C         2.91795965873143   -0.69676843358681    1.79512603290289
C         1.96312753542576   -1.41542536329382    2.56745561242158
C         1.69375810506534   -2.75183252461813    1.92500262246297
C         3.17994729418184    1.41744396684931    0.57108707174157
C         2.33503805141649    2.58475850942028    0.57060057717313
C         1.57366617485571    2.57687730867679    1.79406624495928
C         1.94836271168747    1.41510879154658    2.54162836442107
C         2.94015540856945    0.69717195703276    1.79497586956016
C        -0.36953768163880    3.43390256899106    0.57499231753494
C        -1.73331707898936    3.02274856561506    0.57888206709910
C        -2.09866972539963    2.46872325457863    1.94376500541913
C        -0.73363685522555    2.28935598725485    2.57672387045220
C         0.24426734182721    2.98296707036791    1.79808040780882
C        -3.38068451128690    0.71020178038272    0.57265561471853
C        -3.39895460104176   -0.72490787606031    0.56497168088120
C        -2.77317365180280   -1.15472034067831    1.78406501390223
C        -2.39343137886480    0.03056250591616    2.52997118695190
C        -2.75265690284525    1.13624820918612    1.81137638313145
C        -1.73954671723791   -2.99644670746666    0.57355441271085
C        -0.35809448787963   -3.42553478916662    0.58700600326914
C         0.23712539612128   -3.00374128270276    1.80488509197773
C        -0.72193371699437   -2.26656754913090    2.54332832798199
C        -1.97264690769561   -2.27475411801986    1.78848848418891
C        -0.24441920720830   -3.00767891285221   -1.82025192487343
C         0.74744308786009   -2.28309443734932   -2.57945386995279
C         1.96937110052724   -2.27958138671770   -1.82189786913494
C         1.74177810533448   -2.99972558856911   -0.59607338007734
C         0.36639258853357   -3.46019145846973   -0.60443172421306
C         2.79286425921695   -1.15952251668242   -1.83265542875884
C         2.41528962630438    0.00470520536608   -2.59256196963796
C         2.79607791091641    1.17093276086086   -1.83634460424112
C         3.40614138620202    0.72338619748830   -0.61077344227413
C         3.40092811333586   -0.71866520182679   -0.61098663627997
C         1.97932430914786    2.29585584557489   -1.83595470470047
C         0.75076946103250    2.29386783625619   -2.59112539040530
C        -0.23866718270782    3.01151676527121   -1.82855848810345
C         0.36988669671205    3.45078051326245   -0.60740487055190
C         1.74302117386356    3.01310496293973   -0.60973975344362
C        -1.55831058028591    2.57278372417136   -1.81386307855110
C        -1.94121764458105    1.41178370479759   -2.57597133118617
C        -2.93834123087615    0.69004478025665   -1.82500606716397
C        -3.17252342024626    1.40421394488252   -0.59935286597169
C        -2.30813068365522    2.57869972960955   -0.58876889077007
C        -2.94497404540620   -0.70117216507789   -1.83812879488366
C        -1.94709595640561   -1.41947353243255   -2.59304996515013
C        -1.57105851552120   -2.58474317429165   -1.83631485638626
C        -2.33511361300936   -2.58490206548651   -0.61271650947643
C        -3.18531889531836   -1.42515908676113   -0.61785809355012
C        -0.98967511933143   -0.72056691481834   -3.31804316243431
C        -0.98902182817524    0.72037682686022   -3.31087100988283
C         0.38322078329559    1.16757440065350   -3.31500289463521
C         1.22925032863276    0.00313343875693   -3.31616400279565
C         0.38221513427228   -1.16324526279498   -3.31357619083397
Cl       -1.95558071289303    0.00377665786187    5.23209821673343
Cl       -3.13710400355902    3.62783773603245    2.87195684955638
Cl        2.51615376643921   -4.11621547647122    2.88147344462191
63
 energy: -142.110399116294 gnorm: 0.002581323181 xtb: 6.4.1 (a3dbbd7)
C        -1.29746027558356    0.00516891979128    3.53983609438118
C        -0.37244900794827   -1.17392712833570    3.31594604507411
C         0.98578506103314   -0.72176081111062    3.26047614223521
C         0.97703572298312    0.71778873333123    3.25230602798801
C        -0.37371778267132    1.17877708682846    3.28922050909336
C         2.34762335284381   -2.59286379386598    0.57321951752621
C         3.15736776491676   -1.41849180594474    0.56904048586749
C         2.91672886316614   -0.69682173132829    1.79503658450312
C         1.96340288502887   -1.41663689111253    2.56830799238740
C         1.69539092314879   -2.75389200497671    1.92632237505898
C         3.17956701954007    1.41743762466202    0.57101067640905
C         2.33500962524903    2.58500868825689    0.57078798553603
C         1.57359636275754    2.57715439655501    1.79420228267247
C         1.94817900743279    1.41510230494899    2.54146503369735
C         2.93952264845870    0.69690031954674    1.79442677614719
C        -0.36964084931657    3.43392720911851    0.57516442464686
C        -1.73333269058798    3.02244037447655    0.57909962245116
C        -2.09878562097695    2.46858010142088    1.94414814394022
C        -0.73362154024725    2.28936487783849    2.57708368427282
C         0.24417664865490    2.98297640930570    1.79816998962098
C        -3.38082873130525    0.70997037646811    0.57302548525287
C        -3.39882024260381   -0.72517865155779    0.56515112520519
C        -2.77303364567709   -1.15482716525715    1.78418712990602
C        -2.39342063219029    0.03034045363004    2.53017865659808
C        -2.75301940791534    1.13619071304034    1.81187120867105
C        -1.73854514359508   -2.99568725165244    0.57337040509917
C        -0.35673858759106   -3.42487520767714    0.58706189419914
C         0.23859394427734   -3.00118344170170    1.80355507486188
C        -0.72072317043940   -2.26593650703904    2.54298528532328
C        -1.97151735884286   -2.27403241198999    1.78794587471306
C        -0.24424741928054   -3.00820584536906   -1.82059733608879
C         0.74756237496494   -2.28292220912496   -2.57920314182543
C         1.96936577981060   -2.27920242185838   -1.82135074359452
C         1.74196274758418   -2.99987829590477   -0.59600176563664
C         0.36655560853445   -3.46112174742957   -0.60548465470642
C         2.79282308201244   -1.15935003353228   -1.83272586084958
C         2.41541401913702    0.00488939389192   -2.59284325203413
C         2.79615301547353    1.17105286368887   -1.83656666270267
C         3.40577846434746    0.72348594132952   -0.61079890919859
C         3.40027915993777   -0.71833921564698   -0.61069228808689
C         1.97942296262834    2.29600550088130   -1.83599813726591
C         0.75079886723740    2.29383520862642   -2.59104838559868
C        -0.23868437165542    3.01134454984816   -1.82838217292249
C         0.36988336572530    3.45073646596210   -0.60723932618548
C         1.74307285640623    3.01329821465874   -0.60964444615248
C        -1.55822602102877    2.57239692046753   -1.81360816828318
C        -1.94112358282706    1.41147057008478   -2.57576062216068
C        -2.93822141606829    0.68964150225440   -1.82476274915063
C        -3.17242446142745    1.40381048253062   -0.59905119393508
C        -2.30806144330690    2.57824793243800   -0.58849838435975
C        -2.94485762949236   -0.70152240829224   -1.83803733157498
C        -1.94689073246500   -1.41977626762818   -2.59313084256420
C        -1.57088483982512   -2.58500438999954   -1.83667329205990
C        -2.33470421800086   -2.58501716183711   -0.61275030003084
C        -3.18498758295297   -1.42542555222438   -0.61768950308469
C        -0.98957924926756   -0.72074914631347   -3.31813974340902
C        -0.98897473199605    0.72021234272165   -3.31083778908953
C         0.38323267902821    1.16754157265419   -3.31502211654837
C         1.22925735232701    0.00317423122154   -3.31613439304518
C         0.38237698131659   -1.16339833390934   -3.31366544825939
Cl       -1.95592567384008    0.00670586261265    5.23256554310204
Cl       -3.13679151843471    3.62838913737379    2.87181998888726
Cl        2.51015210718947   -4.11499880273825    2.87781077173159
63
 energy: -142.110412754372 gnorm: 0.001455121997 xtb: 6.4.1 (a3dbbd7)
C        -1.29732350565019    0.00514885444328    3.54011689922413
C        -0.37259636611543   -1.17375823970729    3.31623905509300
C         0.98573525589340   -0.72136297875961    3.26030531822057
C         0.97731777637262    0.71797637677585    3.25271073498267
C        -0.37354521530535    1.17874525662005    3.28943385431122
C         2.34715800883361   -2.59196843842477    0.57279522483341
C         3.15738962608613   -1.41806265633146    0.56885557421513
C         2.91682508333716   -0.69641894983534    1.79493418019382
C         1.96308566308215   -1.41594828637776    2.56783623411465
C         1.69525837047281   -2.75401734433306    1.92633731890009
C         3.17986355950624    1.41751485781582    0.57109447049031
C         2.33515549651609    2.58498358705378    0.57097115127318
C         1.57376310512468    2.57716401936765    1.79441400288752
C         1.94847575651818    1.41530523081529    2.54183320197089
C         2.93990942411297    0.69713283173311    1.79455787313041
C        -0.36955995246786    3.43364901523398    0.57534266700601
C        -1.73322121037735    3.02206864869351    0.57925631828388
C        -2.09870239252247    2.46830694852117    1.94435639608129
C        -0.73354756913960    2.28932996044137    2.57742313568187
C         0.24428711954655    2.98285358388422    1.79837731967697
C        -3.38073852415304    0.70968891653747    0.57324833975924
C        -3.39875532552251   -0.72545087426715    0.56529402158174
C        -2.77316292045528   -1.15506306848834    1.78443766122324
C        -2.39334726005470    0.03008287251229    2.53045131198572
C        -2.75297626942672    1.13594602586164    1.81215171374526
C        -1.73878178019886   -2.99594917778238    0.57341967966973
C        -0.35679968944451   -3.42446414584171    0.58682431049895
C         0.23848872978207   -2.99987629043675    1.80278613213011
C        -0.72083333757608   -2.26538990467527    2.54265883543853
C        -1.97172559586845   -2.27426733299383    1.78797245690136
C        -0.24409486334977   -3.00855842818528   -1.82087116848401
C         0.74777592296495   -2.28320951087022   -2.57945671505030
C         1.96968623887587   -2.27930673446412   -1.82163331513898
C         1.74188886178417   -2.99941952230176   -0.59629511382986
C         0.36658202390697   -3.46113171055221   -0.60572950811061
C         2.79316105316088   -1.15943922378730   -1.83292662775639
C         2.41562836306852    0.00482002616050   -2.59287184742257
C         2.79634147705044    1.17096778839978   -1.83656887917594
C         3.40608571646606    0.72353869432635   -0.61079397828544
C         3.40066910540342   -0.71821586465628   -0.61081229483973
C         1.97950324077447    2.29582530115017   -1.83584970014868
C         0.75086313019388    2.29354848262491   -2.59082783288153
C        -0.23862153118847    3.01101889598536   -1.82817825602926
C         0.36995412607127    3.45041200765573   -0.60705477119741
C         1.74315275446890    3.01310247219411   -0.60948643401669
C        -1.55812688034480    2.57203430393501   -1.81340785631639
C        -1.94099689874086    1.41112170749397   -2.57555168479550
C        -2.93807843051924    0.68928987296853   -1.82454422791456
C        -3.17227683958608    1.40343925790767   -0.59885909547782
C        -2.30795047082992    2.57786465548869   -0.58830466150456
C        -2.94473445243764   -0.70184480888989   -1.83787289723395
C        -1.94678846202240   -1.42010667079130   -2.59306620756424
C        -1.57079876369249   -2.58532747612924   -1.83674083699360
C        -2.33478212316724   -2.58542942260183   -0.61275849569867
C        -3.18489666619193   -1.42572807451402   -0.61754404338985
C        -0.98946434741167   -0.72103910096831   -3.31807314791980
C        -0.98887139266815    0.71992022537008   -3.31068828968987
C         0.38331702722975    1.16728266609091   -3.31485625733492
C         1.22939254135942    0.00298640323363   -3.31604082814752
C         0.38253983122802   -1.16366177530659   -3.31378115961736
Cl       -1.95601938018486    0.00761803084640    5.23295492956954
Cl       -3.13665918214739    3.62823809473077    2.87185832804628