66
 energy: -155.816867131225 gnorm: 0.062984070235 xtb: 6.4.1 (a3dbbd7)
C        -1.32147271090896   -0.02804398146316    3.56378869596258
C        -0.41317434862985   -1.20868604747204    3.35790125469242
C         1.01327789568508   -0.78560654287766    3.57771416332747
C         0.90016676174443    0.66683519145860    3.16085261002475
C        -0.37277877981766    1.07965949585700    3.15275447286208
C         2.27731606801597   -2.53384798317707    0.56781726204656
C         3.09237629920986   -1.37088389830557    0.57155966030014
C         2.86583587122462   -0.66546621663524    1.81044568470238
C         2.10526840038161   -1.55046794339232    2.76940248472848
C         1.55149171752537   -2.56281336155514    1.80392228423191
C         3.10400255489316    1.38474225555260    0.56514229266912
C         2.26852776525151    2.54129836103357    0.56808357675754
C         1.53313045567840    2.57163381125818    1.79809535632088
C         2.05080208466610    1.50724835336579    2.72699101532035
C         2.89256270870128    0.68189769632821    1.80204442415577
C        -0.35491982068220    3.39301279020181    0.55710897124060
C        -1.71064620412228    2.94781045914703    0.54566240204322
C        -1.96502126795602    2.26036809081853    1.78282981353731
C        -0.80453360146396    2.43583659490120    2.71467395611098
C         0.24839481260246    2.98924883725134    1.79268102840049
C        -3.32180579884243    0.71207739258325    0.54478859192369
C        -3.34675726730681   -0.70810972288009    0.54307812138519
C        -2.78851364605977   -1.15684216619945    1.78459377140180
C        -2.64826245904860   -0.00870152518193    2.74726122464836
C        -2.73679239387354    1.15495490893398    1.78790497385234
C        -1.71434957164359   -2.94561102008977    0.55294992944120
C        -0.35726181610978   -3.38625838029914    0.55916922107499
C         0.25693245728169   -2.95851336424977    1.78128075552109
C        -0.74181462607225   -2.23068772235819    2.56129848116503
C        -1.97146302322966   -2.23657397371760    1.77152955984445
C        -0.24091098534040   -2.98938334239542   -1.86836135515947
C         0.74396288599152   -2.28564178070584   -2.63808645998299
C         1.95219499983667   -2.27702963742462   -1.85286524916807
C         1.70921027294902   -2.96573846443314   -0.61973562506914
C         0.35431778148644   -3.40715424391500   -0.62790699264480
C         2.76016772058358   -1.15630483121615   -1.85013520912929
C         2.39721267589832   -0.00542094066958   -2.63417851139544
C         2.76293992428295    1.15173208303659   -1.86011381117871
C         3.33662404694703    0.71749872801993   -0.61971214128279
C         3.33444899915267   -0.70885226909859   -0.61406824314182
C         1.95108253188193    2.26949682708857   -1.86296629570336
C         0.74422752512835    2.27215264443962   -2.64348147453834
C        -0.23984196749057    2.98049853094432   -1.87171830500238
C         0.35363479924825    3.39544733030397   -0.62980071861949
C         1.70580245336690    2.95695172606497   -0.62426903786325
C        -1.55351057923671    2.55340627689336   -1.87778225437383
C        -1.93170769367672    1.40063252442134   -2.65278153001184
C        -2.90700219391564    0.68440759248826   -1.87375406543383
C        -3.11725795390289    1.38620347971558   -0.64067593705564
C        -2.28112223277595    2.54117387656084   -0.64248137335688
C        -2.91160390795451   -0.69701546760438   -1.87383672842723
C        -1.93347368667259   -1.41645011849850   -2.65034353244913
C        -1.55608311095545   -2.56260334894638   -1.87458127651988
C        -2.29260097024039   -2.54723703335564   -0.63978711522766
C        -3.12923365143028   -1.39373931701599   -0.64102035552143
C        -0.98411137661077   -0.72882545899415   -3.38634029907198
C        -0.98359977628619    0.71242529191035   -3.38714414691111
C         0.38546268860626    1.15767954705669   -3.38195077044001
C         1.23139458336493   -0.00701368969867   -3.37739192459805
C         0.38551841283161   -1.17351849383307   -3.38003236156985
Cl       -1.65413293679328    0.20645631372403    5.32844440949504
Cl       -4.11104785698588    0.02653759806246    3.80516813590702
Cl        3.30592502016672   -2.36886823288956    3.84099000901980
Cl        2.96682940734245    2.14632082199642    4.14043548898975
Cl       -1.17656386358600    3.49767100961118    4.12184770067655
Cl        1.40716282934374   -0.78745177443714    5.34572313952754
66
 energy: -155.823391481291 gnorm: 0.026916505404 xtb: 6.4.1 (a3dbbd7)
C        -1.32159521812245   -0.01429315288744    3.55211045882372
C        -0.40979927607094   -1.19980259021933    3.33272106101461
C         1.02243011953511   -0.77527350690114    3.56320315841206
C         0.90544220921174    0.68269624868033    3.17094745922239
C        -0.36716274354570    1.09556653292298    3.16415750281350
C         2.29060847038524   -2.55407259131617    0.56994338934687
C         3.11556891381022   -1.38442410797528    0.57362487188213
C         2.88750878950082   -0.67410458453836    1.80255789424759
C         2.11112802021779   -1.55469140707706    2.75721472351866
C         1.55663519631349   -2.57673519401244    1.79673075994447
C         3.12149882182309    1.39217868146379    0.56752153266644
C         2.28353921890420    2.55692435277396    0.56606320540135
C         1.54373538878179    2.58929440867729    1.79151410226821
C         2.05733698914564    1.51530702224254    2.72099417006001
C         2.90716292258727    0.68359950289913    1.79681793045240
C        -0.35926574767804    3.41488302304570    0.55440749568916
C        -1.72170985507716    2.96464917458440    0.54660879671938
C        -1.97515748353756    2.26930288639443    1.77587565994198
C        -0.80569594202542    2.44538103649342    2.70843014084175
C         0.24862288322411    3.00977575492183    1.78567863874572
C        -3.34885099435782    0.71496123721624    0.54552558838860
C        -3.36872817378841   -0.71622467720398    0.54477594858610
C        -2.79788335557851   -1.16293471779192    1.77689491283228
C        -2.65360217207858   -0.00783340275053    2.73615937541137
C        -2.75766742271331    1.15929262127348    1.77837562155967
C        -1.72609668633731   -2.96868148584377    0.55385672568647
C        -0.36148790159925   -3.41176985974692    0.55998159258030
C         0.25292483984398   -2.97622689424353    1.78042881955854
C        -0.74499396002245   -2.24215917072145    2.55546734225140
C        -1.97721548120797   -2.25200549066544    1.77031517710496
C        -0.24455835783577   -3.00851421916785   -1.86277132151367
C         0.74686558706012   -2.29373496189678   -2.62295746190695
C         1.96470630588779   -2.28857078812552   -1.85008835635015
C         1.71969259697226   -2.99135230212008   -0.62008664867712
C         0.35885533916479   -3.43588529088324   -0.62689235125901
C         2.77755961256086   -1.16479264914431   -1.84789640088579
C         2.40846827636243   -0.00474790667552   -2.61978699167339
C         2.77928521822177    1.15991787655837   -1.85583608998728
C         3.36320694743310    0.71808712086039   -0.61849438936564
C         3.36173143675596   -0.71370671036428   -0.61360812778012
C         1.96480775891970    2.28217816769744   -1.86033028924047
C         0.74794807420169    2.28334636149874   -2.63087833112717
C        -0.24356249888603    2.99907448102139   -1.86985753155880
C         0.35891645894167    3.42599084642395   -0.63384814332816
C         1.71839289466298    2.98480732139513   -0.62791680312308
C        -1.56200509300364    2.56968637993839   -1.87475822332019
C        -1.94027615171231    1.40757771434493   -2.63909737547364
C        -2.92644852556525    0.68766690557780   -1.87286101129765
C        -3.14349842326339    1.39875817552475   -0.64193477854659
C        -2.30349665098178    2.55797487005856   -0.64309153184182
C        -2.92897668774542   -0.69920554322188   -1.87175583972508
C        -1.94061108698129   -1.42113140938977   -2.63515968321936
C        -1.56452392157751   -2.58002023947255   -1.86882429922846
C        -2.31359455241583   -2.56787428158234   -0.63879923344755
C        -3.15334965776561   -1.40843068991015   -0.64174638105853
C        -0.98470799006229   -0.72838849542009   -3.36734309087914
C        -0.98452717359458    0.71443353429051   -3.36951966908478
C         0.38654828511610    1.16064958180491   -3.36523625781907
C         1.23368463586419   -0.00598588258013   -3.35960527570321
C         0.38625926129374   -1.17356255030316   -3.36115460849333
Cl       -1.62108098255568    0.19062943500197    5.32655638824255
Cl       -4.12476227419152    0.00748901603847    3.78331397526414
Cl        3.30609015795513   -2.39903766012071    3.81536787338204
Cl        2.96643000925774    2.15861245036737    4.13692283211679
Cl       -1.17091400719849    3.50504960846745    4.11878752921517
Cl        1.36904814081006   -0.78161377014329    5.34091566518356
66
 energy: -155.823613356383 gnorm: 0.013417181038 xtb: 6.4.1 (a3dbbd7)
C        -1.32175050698993   -0.00739623347021    3.53910234211459
C        -0.40896749468355   -1.19785743126819    3.31614665031145
C         1.02719650461346   -0.77034638201916    3.54894654899720
C         0.90866633436947    0.69166387478171    3.17609852540710
C        -0.36381613622371    1.10479663696276    3.17040218939823
C         2.29745838759340   -2.56418714323939    0.57195405001948
C         3.12982677611569   -1.39011833940903    0.57530498625096
C         2.90010852345934   -0.67633950274836    1.79475649088416
C         2.10933897180292   -1.55055478651075    2.74537434886584
C         1.55740352662275   -2.58147536412291    1.78951123786863
C         3.13085540045268    1.39767787255502    0.56858403526543
C         2.29207580532389    2.56753117763327    0.56344208622059
C         1.55005363104530    2.59997032603348    1.78424971224116
C         2.05944602863046    1.52132340782551    2.71670278956203
C         2.91364133919946    0.68735664336712    1.79121751527143
C        -0.36053568795694    3.42876027034714    0.55155898696324
C        -1.72661402430496    2.97498579968780    0.54700884946337
C        -1.97775204986449    2.27565923607561    1.76952158079357
C        -0.80403148771211    2.45102819545618    2.70406354616456
C         0.24916209073009    3.02212900860277    1.77828408353260
C        -3.36370695915083    0.71875065779830    0.54651623929980
C        -3.37962657205809   -0.72032979468511    0.54667065587970
C        -2.80004711100763   -1.16562707262594    1.76977861682029
C        -2.64923848098070   -0.00516724205054    2.72472351161199
C        -2.76813776621946    1.16419826860700    1.76973992075453
C        -1.73366582422455   -2.98318206821401    0.55526630153863
C        -0.36391168946896   -3.42796400380067    0.56132269575997
C         0.24949004389387   -2.98701325123523    1.78008201248001
C        -0.74808526136203   -2.25247978810909    2.55353794949418
C        -1.98037361152866   -2.26252078734263    1.77007361943409
C        -0.24676790237129   -3.01860359747939   -1.85676313329202
C         0.74828810959653   -2.29758820711708   -2.61108150048708
C         1.97112730451169   -2.29386112415047   -1.84675067174349
C         1.72648241451981   -3.00748613025928   -0.61940142348137
C         0.36294684690717   -3.45411875661283   -0.62490913777928
C         2.78687133327841   -1.16915278030172   -1.84566437768335
C         2.41398241027886   -0.00439235670511   -2.60947301351910
C         2.78747514145655    1.16459088828831   -1.85256655358011
C         3.38052843715956    0.71846844976235   -0.61794131949685
C         3.37968694048739   -0.71506638111723   -0.61339502722632
C         1.97206428533718    2.28886369619417   -1.85831581367113
C         0.74961716954595    2.28858852323744   -2.62214355332712
C        -0.24559196402578    3.00900764899601   -1.86822545098703
C         0.36356261761126    3.44725365313993   -0.63747169503041
C         1.72655823018879    3.00465253844138   -0.63137543221581
C        -1.56598236731260    2.57837028327312   -1.87201515179386
C        -1.94449962995913    1.41100349730929   -2.62891343545807
C        -2.93679538627082    0.68956218375252   -1.87119865294500
C        -3.15962928050910    1.40854809874097   -0.64255296449957
C        -2.31800900830488    2.56901256571665   -0.64339712393749
C        -2.93755323865638   -0.69984799499768   -1.86866557904604
C        -1.94405648207977   -1.42328552715521   -2.62310860525811
C        -1.56862311719871   -2.58935512647073   -1.86265069769256
C        -2.32774261078392   -2.58031675786521   -0.63682141334269
C        -3.16864403255216   -1.41774811823812   -0.64119480936263
C        -0.98454041264746   -0.72803323644566   -3.35213813929648
C        -0.98459152427895    0.71438870510054   -3.35580438348020
C         0.38655910740563    1.16074242758464   -3.35229154071171
C         1.23381190263154   -0.00604082027450   -3.34595255258048
C         0.38622615226051   -1.17318580304402   -3.34607726216349
Cl       -1.69082033405946    0.17691862335363    5.30199971867163
Cl       -4.10064121410633   -0.00468252916707    3.79934169243673
Cl        3.27601892856195   -2.39824134836539    3.83229896371120
Cl        2.97066978389586    2.17351528756348    4.12821899218222
Cl       -1.16810848761225    3.51783790829354    4.11019438648079
Cl        1.42049050862750   -0.83563642182010    5.31489640539865
66
 energy: -155.824518856614 gnorm: 0.004775897953 xtb: 6.4.1 (a3dbbd7)
C        -1.32029830678573   -0.00790072619276    3.54113566328687
C        -0.40820836226051   -1.19576963467018    3.30922544800982
C         1.02581579594162   -0.76993711682796    3.55149333299044
C         0.90788007599700    0.68898682349970    3.17004224866444
C        -0.36447645238893    1.10220207453302    3.16442629491886
C         2.29578592836205   -2.56193752980706    0.57241607879936
C         3.12880768502875   -1.38829668654690    0.57586012971354
C         2.89849878157927   -0.67577192068803    1.79418519453619
C         2.11011126582583   -1.54981629008799    2.74781027085853
C         1.55590260688309   -2.57725373117448    1.78815397835804
C         3.12970065270806    1.39726077000280    0.56914993313267
C         2.29142990746936    2.56722701020794    0.56334009982825
C         1.54959509616304    2.59894409693062    1.78277947928015
C         2.05799769901495    1.52075171663064    2.71604587396117
C         2.91231612299103    0.68778058289623    1.79080191967258
C        -0.35999803169831    3.42817644846287    0.55157762057345
C        -1.72575189795453    2.97402634135527    0.54770273938274
C        -1.97635153311558    2.27532753716287    1.76924868914590
C        -0.80300940744501    2.44974739039497    2.70340829995274
C         0.24919538749693    3.02106856956853    1.77690493970509
C        -3.36163714216213    0.71952629646418    0.54721910685748
C        -3.37682975469297   -0.71965482523124    0.54731666653756
C        -2.79664934782593   -1.16353586196427    1.76874244893531
C        -2.64952509144910   -0.00417213854139    2.72688025946667
C        -2.76643453133054    1.16385930161503    1.76927586582145
C        -1.73357053189828   -2.98266041521762    0.55632689671000
C        -0.36355111401891   -3.42754212363345    0.56236413739601
C         0.24942654498743   -2.98649466990699    1.78071875024741
C        -0.74815342516158   -2.25288796233190    2.55346950399962
C        -1.98015338534722   -2.26247586031497    1.77090695875218
C        -0.24672030180507   -3.01705969870676   -1.85499623432263
C         0.74791802593899   -2.29662315666019   -2.60959977469472
C         1.96994102405735   -2.29248882488967   -1.84566440591738
C         1.72617852944038   -3.00705436479814   -0.61866651090048
C         0.36355949208852   -3.45369387537954   -0.62369642307678
C         2.78550946262038   -1.16849211323040   -1.84491942532065
C         2.41276078442969   -0.00440354119776   -2.60839425050152
C         2.78589503250209    1.16410324030830   -1.85160809037561
C         3.38059888077969    0.71807993519589   -0.61748121104634
C         3.37959381342445   -0.71408119614578   -0.61304837557840
C         1.97097158942617    2.28773615676918   -1.85737304066109
C         0.74908782446458    2.28719449341405   -2.62103848839418
C        -0.24543328699137    3.00751852037492   -1.86720807967933
C         0.36418689915224    3.44779282703351   -0.63723727957764
C         1.72643916385374    3.00538442219666   -0.63119048508576
C        -1.56505458619131    2.57707803512409   -1.87087732587761
C        -1.94359504816822    1.41029046343545   -2.62761877862870
C        -2.93531192708293    0.68928786817887   -1.87022608943896
C        -3.15895075101421    1.40930164963912   -0.64199418543404
C        -2.31827698874669    2.56880013257479   -0.64273516937418
C        -2.93575635472421   -0.69944671441675   -1.86739137110349
C        -1.94319925466756   -1.42270839897191   -2.62150033100025
C        -1.56766096925021   -2.58808583802536   -1.86082558646467
C        -2.32785291700981   -2.57966484382723   -0.63556058381686
C        -3.16808246103493   -1.41769457564126   -0.64031815002882
C        -0.98416467236692   -0.72788362546475   -3.35011618113218
C        -0.98422222905332    0.71362120567354   -3.35400762386369
C         0.38612962384084    1.15967079826524   -3.35045992028506
C         1.23295139307026   -0.00639227263552   -3.34426113700173
C         0.38592809770680   -1.17281967224198   -3.34409817949831
Cl       -1.63528875312170    0.16393537228899    5.31597779699556
Cl       -4.12017251696584   -0.01016347695161    3.77634898197071
Cl        3.28812052659349   -2.41536518662703    3.80968212512187
Cl        2.97145097815827    2.17588942838510    4.12543055970359
Cl       -1.16823730828978    3.52000355271297    4.10727711815976
Cl        1.36772728167232   -0.81239004630292    5.32909909909616
66
 energy: -155.824569290636 gnorm: 0.002417675167 xtb: 6.4.1 (a3dbbd7)
C        -1.32004454877941   -0.00867985398163    3.54125409770649
C        -0.40813806082253   -1.19562324494484    3.31054707889337
C         1.02520296907733   -0.77032429296733    3.55186851779212
C         0.90807354709690    0.68921780058878    3.17206881295044
C        -0.36468512271442    1.10253349827417    3.16628818185032
C         2.29397155918325   -2.56003644675017    0.57204232095593
C         3.12620883247137   -1.38700133759395    0.57586212318025
C         2.89672111642364   -0.67531333847793    1.79536386951957
C         2.10901351200349   -1.54963675707648    2.74864265476910
C         1.55508707533674   -2.57636301315955    1.78836019283565
C         3.12777512347647    1.39605966936023    0.56926409320709
C         2.28962971887849    2.56516556878372    0.56393404847854
C         1.54853827575664    2.59721440596693    1.78390522369679
C         2.05779245976282    1.52023712341664    2.71709665539994
C         2.91111329451915    0.68752217567821    1.79178897851969
C        -0.35964962727373    3.42546795703736    0.55219533150930
C        -1.72479211482688    2.97190942662640    0.54783905832194
C        -1.97554199537278    2.27448777078395    1.77021903916075
C        -0.80315477820060    2.44932869776404    2.70440818272016
C         0.24911996365171    3.01914018199361    1.77807875256061
C        -3.35873957442002    0.71900929659152    0.54727311554957
C        -3.37436118372738   -0.71921217499049    0.54699569268135
C        -2.79569057981554   -1.16341467229602    1.76901845762842
C        -2.64830767974745   -0.00466572566406    2.72753741589672
C        -2.76473854696755    1.16328642208207    1.77044248446209
C        -1.73236308460602   -2.98026939303474    0.55614866149010
C        -0.36312259288229   -3.42490741691149    0.56219842664164
C         0.24973500746169   -2.98574658670518    1.78110100110251
C        -0.74774756772707   -2.25165531006353    2.55433370400547
C        -1.97998517639740   -2.26168945221183    1.77125776041618
C        -0.24642168822365   -3.01483933933215   -1.85587765283946
C         0.74758220214779   -2.29561824985508   -2.61157833605836
C         1.96846809575182   -2.29125570425832   -1.84628507219141
C         1.72486382499696   -3.00457989875529   -0.61892772928586
C         0.36307636029007   -3.45048338450001   -0.62393132971500
C         2.78350477615512   -1.16773333161147   -1.84531432037362
C         2.41137437133151   -0.00453863406344   -2.60987795426727
C         2.78397179226018    1.16310309625836   -1.85191585105191
C         3.37772403679996    0.71756592753171   -0.61738999542612
C         3.37654136753996   -0.71364571847518   -0.61300184057220
C         1.96939532029300    2.28607926677910   -1.85743629974153
C         0.74859820284169    2.28568959558479   -2.62221338481394
C        -0.24512896109760    3.00522187908530   -1.86722659282266
C         0.36361772016844    3.44415301285167   -0.63647213113380
C         1.72485102548071    3.00210399005439   -0.63043957703552
C        -1.56408046479856    2.57511708685238   -1.87112372555100
C        -1.94254999287785    1.40937294492303   -2.62909978079328
C        -2.93318128817825    0.68872921586937   -1.87054302733815
C        -3.15611260418921    1.40781089180146   -0.64184649794655
C        -2.31616119690481    2.56663180243023   -0.64255076645061
C        -2.93376523096615   -0.69928446462886   -1.86794835170319
C        -1.94230729870691   -1.42210145834455   -2.62347973296539
C        -1.56658678796804   -2.58612667770589   -1.86171458721947
C        -2.32554979063172   -2.57734083962964   -0.63579106228292
C        -3.16552504172746   -1.41642926625357   -0.64053285359494
C        -0.98407884079436   -0.72784688287500   -3.35280633474165
C        -0.98408976883054    0.71341181417199   -3.35637052834025
C         0.38603610271975    1.15934468819629   -3.35256634378275
C         1.23273053745247   -0.00649130907956   -3.34659111089225
C         0.38592778243458   -1.17274902471129   -3.34676195433655
Cl       -1.64047685909808    0.16489811311327    5.31434812201698
Cl       -4.11602816627980   -0.00769291291269    3.78099431240877
Cl        3.28766636859376   -2.41181345394375    3.81244167344847
Cl        2.97248826306283    2.17554098841867    4.12560323727695
Cl       -1.16924857387844    3.52061221545824    4.10731889938416
Cl        1.37078751566147   -0.81290281051930    5.32820636929134
66
 energy: -155.824575223988 gnorm: 0.000995876265 xtb: 6.4.1 (a3dbbd7)
C        -1.31988627513690   -0.00859686117604    3.54091514720891
C        -0.40805228764564   -1.19521597662343    3.30905994256593
C         1.02509263020269   -0.77016242837381    3.55101491918142
C         0.90828057081677    0.68967055757147    3.17241390077818
C        -0.36463823559405    1.10300181842601    3.16675628098282
C         2.29363919339520   -2.55979940131621    0.57220960482845
C         3.12625160374981   -1.38674178087649    0.57609547154966
C         2.89690338477223   -0.67522603802272    1.79523780458518
C         2.10843504872062   -1.54905353068695    2.74831067595579
C         1.55466962769516   -2.57608064287833    1.78791414254585
C         3.12770481258285    1.39605842150421    0.56939805670974
C         2.28955833072608    2.56522860945379    0.56389937105731
C         1.54859838997713    2.59738651406690    1.78367325454690
C         2.05769880103365    1.52043611561749    2.71700892928197
C         2.91107146115131    0.68781120960285    1.79170363098403
C        -0.35958854860702    3.42549766258075    0.55220926130110
C        -1.72474569563960    2.97183930048341    0.54800585588909
C        -1.97530753100893    2.27461158788724    1.77016220619592
C        -0.80298231259272    2.44941186085307    2.70439409407238
C         0.24914063268066    3.01933957232830    1.77790772534681
C        -3.35855239272614    0.71920724480415    0.54746342088040
C        -3.37393990756263   -0.71920909820755    0.54712617361367
C        -2.79525482213620   -1.16333514870179    1.76862271976943
C        -2.64786919244834   -0.00452119607390    2.72745489319086
C        -2.76470228645809    1.16332053749451    1.77027598027047
C        -1.73252445618202   -2.98044134357042    0.55638534037050
C        -0.36318177332364   -3.42514242177422    0.56243587978796
C         0.24952906685179   -2.98652685343329    1.78150685873023
C        -0.74805170485522   -2.25237558143300    2.55490499150188
C        -1.98038953996506   -2.26237086931556    1.77166754128893
C        -0.24646602523201   -3.01465761182766   -1.85561768125799
C         0.74759824326991   -2.29549812213435   -2.61138143200646
C         1.96837695878870   -2.29110773263488   -1.84620960429330
C         1.72479768276092   -3.00471747416800   -0.61881706516238
C         0.36323172518391   -3.45050277356861   -0.62364234839304
C         2.78340808465261   -1.16773186573096   -1.84529365087975
C         2.41122601688286   -0.00453672334877   -2.60967564703889
C         2.78379545970705    1.16312639767732   -1.85182344107814
C         3.37791925743352    0.71740534394004   -0.61730115228278
C         3.37669760165832   -0.71344945164897   -0.61290964461993
C         1.96929038217584    2.28594521060330   -1.85738833967372
C         0.74846801736813    2.28548852790744   -2.62208148332917
C        -0.24520657988343    3.00509773838363   -1.86716434435876
C         0.36377466065255    3.44438662759497   -0.63646355038421
C         1.72480007402003    3.00240351273013   -0.63045472218523
C        -1.56399758083636    2.57504945140393   -1.87102373727520
C        -1.94252152899917    1.40931019319947   -2.62891697868019
C        -2.93313225217392    0.68868069484345   -1.87053822561033
C        -3.15614331643828    1.40806724746748   -0.64176392518225
C        -2.31645132880270    2.56662813822532   -0.64243596779998
C        -2.93355047034287   -0.69920901239700   -1.86790834472454
C        -1.94213597250612   -1.42198046228581   -2.62327365134699
C        -1.56639286054559   -2.58600342801777   -1.86145216889341
C        -2.32569132293191   -2.57725167855874   -0.63553531567112
C        -3.16554047503026   -1.41656339301697   -0.64046142624162
C        -0.98394198423451   -0.72779784167487   -3.35274481057868
C        -0.98419065184671    0.71333907528127   -3.35641354450640
C         0.38591949881323    1.15923867561635   -3.35254104197734
C         1.23265862934157   -0.00651950393547   -3.34658092412106
C         0.38600952222513   -1.17271462167613   -3.34673178007604
Cl       -1.63935446793591    0.16264438810879    5.31430540402247
Cl       -4.11643368429941   -0.00791366556458    3.78008473309566
Cl        3.28544212804761   -2.41079625634372    3.81447352504268
Cl        2.97330731504676    2.17657191420681    4.12479328724798
Cl       -1.16949341249826    3.52190653292813    4.10654615831367
Cl        1.37184939568430   -0.81640574575136    5.32684058939584
66
 energy: -155.824573091682 gnorm: 0.001306917225 xtb: 6.4.1 (a3dbbd7)
C        -1.31966052954061   -0.00854772483491    3.53982275461818
C        -0.40776305565037   -1.19468601687225    3.30699524492861
C         1.02512153721620   -0.76998081788169    3.55074010407166
C         0.90857874342081    0.69012485849836    3.17283720207339
C        -0.36448196196396    1.10362476361137    3.16719741101050
C         2.29334363634113   -2.55952705097689    0.57238190665360
C         3.12644604741286   -1.38645355576763    0.57632641249302
C         2.89708027158681   -0.67524885945830    1.79499536963950
C         2.10834116409761   -1.54866414358529    2.74826776859497
C         1.55434821560169   -2.57562907175882    1.78733908363622
C         3.12777735124268    1.39607536046615    0.56962032167340
C         2.28966748779458    2.56541568425412    0.56387746774648
C         1.54879940093763    2.59765441910640    1.78338515035136
C         2.05761049155231    1.52061749461586    2.71691697716149
C         2.91106002658335    0.68811070645782    1.79161479011859
C        -0.35945892351081    3.42576504825176    0.55217876987673
C        -1.72470067674722    2.97197246665811    0.54816095860113
C        -1.97501923355005    2.27492118318030    1.76998999535146
C        -0.80269999459928    2.44954983782812    2.70424201564830
C         0.24924961162736    3.01973638880985    1.77764709762885
C        -3.35852113938783    0.71948928633119    0.54773812693506
C        -3.37356304043485   -0.71927856662780    0.54743766188216
C        -2.79475375666767   -1.16342798045664    1.76820390073200
C        -2.64695871156260   -0.00427718139357    2.72700606067754
C        -2.76477145559835    1.16351856596548    1.76998021120997
C        -1.73267572600540   -2.98085790904164    0.55680175069099
C        -0.36314016748196   -3.42558283703632    0.56284052960746
C         0.24947189029612   -2.98767557108685    1.78214607041060
C        -0.74829549556133   -2.25360701073912    2.55587540652748
C        -1.98082642352922   -2.26344769305875    1.77231432767880
C        -0.24657712745398   -3.01455766598793   -1.85522704204569
C         0.74756702019819   -2.29540941720106   -2.61107436182493
C         1.96833343753950   -2.29098339114520   -1.84618505004111
C         1.72477359627715   -3.00495989698346   -0.61870495583909
C         0.36350142521125   -3.45063251763897   -0.62321429871061
C         2.78341702992881   -1.16777955978894   -1.84533013766798
C         2.41115923828666   -0.00453179352497   -2.60940042629722
C         2.78376174201932    1.16322404386516   -1.85172738345446
C         3.37833263416955    0.71721578933763   -0.61717597323479
C         3.37704707926442   -0.71320218596695   -0.61284019329678
C         1.96936717281590    2.28589500755129   -1.85734201215355
C         0.74845941043957    2.28535634567456   -2.62188598453883
C        -0.24522887894824    3.00509471060533   -1.86711713308310
C         0.36410341027152    3.44485838170517   -0.63647916469858