66
 energy: -155.824577167157 gnorm: 0.000076870812 xtb: 6.4.1 (a3dbbd7)
C        -1.31978422591674   -0.00864348370851    3.54058069337551
C        -0.40791767448194   -1.19494462533384    3.30803356472862
C         1.02505328868692   -0.77011964483329    3.55095110931735
C         0.90840119221332    0.68990381725454    3.17262628042483
C        -0.36457222059591    1.10329797876832    3.16700498107240
C         2.29350134185172   -2.55966428743469    0.57230764988946
C         3.12629457919787   -1.38660743473660    0.57617952809245
C         2.89686978433084   -0.67519617523284    1.79513643694386
C         2.10838092734353   -1.54884997412056    2.74827970505105
C         1.55453223402314   -2.57594066305827    1.78774358538647
C         3.12777515341443    1.39610725184008    0.56947053780934
C         2.28964221757605    2.56535880715348    0.56389450123456
C         1.54867776581394    2.59752318993114    1.78360176456881
C         2.05764013699226    1.52050158011339    2.71692738781972
C         2.91105268035519    0.68797462545076    1.79168579863170
C        -0.35954268820960    3.42567045287099    0.55220556060474
C        -1.72473866288367    2.97194049548514    0.54805882253269
C        -1.97516880669379    2.27475296822413    1.77012310773850
C        -0.80287254269654    2.44944502440073    2.70430616550276
C         0.24918762944392    3.01952639438167    1.77786542740795
C        -3.35848839132910    0.71929194518505    0.54755815621118
C        -3.37377340589949   -0.71924491604979    0.54728718691237
C        -2.79508742494946   -1.16342210111977    1.76853356087622
C        -2.64749132198400   -0.00441009052194    2.72728555200544
C        -2.76461500211237    1.16334326447974    1.77015151494301
C        -1.73256540771648   -2.98057944753712    0.55660343993963
C        -0.36316462682260   -3.42528409669494    0.56265051041445
C         0.24953276108370   -2.98714075618852    1.78188067426366
C        -0.74822872201810   -2.25311334005174    2.55561393040995
C        -1.98066388472186   -2.26289783464947    1.77203311215860
C        -0.24652982672540   -3.01458411636300   -1.85548377383055
C         0.74757042415367   -2.29547230078680   -2.61133377575692
C         1.96834753732159   -2.29105401931835   -1.84624964393642
C         1.72471009035393   -3.00471887007354   -0.61874878075264
C         0.36332205404880   -3.45042084901371   -0.62341021116485
C         2.78339459206474   -1.16775183519754   -1.84534162257185
C         2.41120680294660   -0.00455601167138   -2.60963405594151
C         2.78378308913556    1.16316894515143   -1.85184377633691
C         3.37800119034994    0.71733131399368   -0.61724982760628
C         3.37674681562683   -0.71332378912166   -0.61287128735670
C         1.96933973922250    2.28593197345579   -1.85742561169835
C         0.74849012959345    2.28545053596054   -2.62207685005956
C        -0.24520583699150    3.00509586390059   -1.86719588354798
C         0.36389886024311    3.44447064201395   -0.63644084324017
C         1.72478704352910    3.00252702733561   -0.63043582997634
C        -1.56391521750778    2.57506051199370   -1.87102744029045
C        -1.94243865937587    1.40926931321471   -2.62884781340696
C        -2.93310106163829    0.68864784000513   -1.87057061489001
C        -3.15608390804670    1.40817834922943   -0.64170365366394
C        -2.31653333758653    2.56660395202049   -0.64237803015283
C        -2.93354085020751   -0.69919478110493   -1.86788949414542
C        -1.94220646957124   -1.42198226251913   -2.62320585345339
C        -1.56633599078853   -2.58598691393498   -1.86131126897231
C        -2.32571320282668   -2.57717141846267   -0.63528251102787
C        -3.16549012300904   -1.41665442343794   -0.64033759868361
C        -0.98409602262314   -0.72781385874569   -3.35286263036997
C        -0.98411938960274    0.71330804278611   -3.35648944144535
C         0.38598725053926    1.15924688898888   -3.35264003627629
C         1.23267371565721   -0.00658341228169   -3.34669907170751
C         0.38596398449539   -1.17273953998176   -3.34682436901033
Cl       -1.64042225110880    0.16092713112792    5.31377526447147
Cl       -4.11577665480796   -0.00748725183178    3.78068531684818
Cl        3.28628936731670   -2.41124630742105    3.81334579612375
Cl        2.97379450999054    2.17697799026131    4.12462439809560
Cl       -1.16973821396758    3.52258472711052    4.10633471863629
Cl        1.36990646815046   -0.81666386550586    5.32709768329184
