62
 energy: -137.578032873737 gnorm: 0.000111975774 xtb: 6.4.1 (a3dbbd7)
C        -1.29594792584180    0.00460620706483    3.54525965360425
C        -0.36819489979349   -1.17184917629193    3.30529745489809
C         0.98280849402773   -0.72147304108350    3.27528055606384
C         0.98142510743967    0.72002649712690    3.26979375148132
C        -0.37085700788536    1.17980588219308    3.30171980109377
C         2.33616805868872   -2.58527298550419    0.57973822318117
C         3.18635926686321   -1.41933083278548    0.57799673227788
C         2.94941212521820   -0.69836427707181    1.80139411035873
C         1.95284668930573   -1.41719632960599    2.55631658474196
C         1.57931932175333   -2.57938039231480    1.80542162986587
C         3.18760776835815    1.41003179516243    0.57601461726522
C         2.33806799268906    2.57416955167778    0.57598445514039
C         1.57679664162167    2.56630742945465    1.79981892973092
C         1.95294461738710    1.40863617236758    2.55211423021110
C         2.95061117172619    0.68893861394352    1.80108604304692
C        -0.36512830024169    3.42708762200472    0.57937889706037
C        -1.72928771972200    3.01721305351501    0.58307912438306
C        -2.09479379283559    2.46317885512215    1.94761502782003
C        -0.73037169867694    2.28631129886568    2.58266322738856
C         0.24829759980218    2.97638742557013    1.80351401126344
C        -3.37485708588664    0.70372063262507    0.57600603012683
C        -3.39018703841139   -0.73201198574235    0.56863474421460
C        -2.76837973894463   -1.16289834314588    1.78900393648002
C        -2.38930582120378    0.02506137679904    2.53299743171010
C        -2.74853749275220    1.13070120133858    1.81448269374833
C        -1.73514446783834   -3.00945414652603    0.57966851694456
C        -0.36185928055131   -3.44647874450343    0.58208055589281
C         0.25185213372064   -2.99433841350196    1.80576871324157
C        -0.72958053218231   -2.27294784530676    2.56494285422772
C        -1.97172746383341   -2.28682591356220    1.79889813660203
C        -0.24455617615058   -3.01404434762034   -1.82622554104116
C         0.74910783251252   -2.29274084975240   -2.58264849857807
C         1.97424490736744   -2.29226459886232   -1.82522346594051
C         1.74105968894556   -3.01108417542501   -0.59920961274152
C         0.36820820769765   -3.45406351316097   -0.59735174305090
C         2.79422135346431   -1.17024527291673   -1.82816641334511
C         2.41563091680951   -0.00505820019429   -2.58535148833008
C         2.79804003658923    1.16111852953789   -1.83036675516778
C         3.41350249970280    0.71560484361542   -0.60554166324250
C         3.41111202226607   -0.72573667532190   -0.60421166733051
C         1.98258976038573    2.28550487164676   -1.82955537389324
C         0.75350490382550    2.28568020661415   -2.58560038930797
C        -0.23501500875017    3.00458045607383   -1.82326101448791
C         0.37366410609382    3.44307772923869   -0.60208355231479
C         1.74689655303117    3.00261999377841   -0.60365557352123
C        -1.55562052791934    2.56850200722652   -1.80918506336766
C        -1.93860573363228    1.40625946158266   -2.57142334154919
C        -2.93555814235630    0.68507317030377   -1.82117997923357
C        -3.16907723142371    1.39828884818254   -0.59582991930688
C        -2.30442287414787    2.57393783611657   -0.58476697806274
C        -2.94131596747053   -0.70724362611220   -1.83413556436433
C        -1.94528280956927   -1.42348689372239   -2.59077948496898
C        -1.56582572630175   -2.59133850810036   -1.83186523437764
C        -2.32871007529314   -2.59266733469465   -0.60891721845894
C        -3.17789677445683   -1.43159007158024   -0.61405089020367
C        -0.98795122747167   -0.72610057595528   -3.31302289047534
C        -0.98667451889040    0.71583913380923   -3.30712181552792
C         0.38538486518474    1.16127443903854   -3.31057500631808
C         1.23093513864242   -0.00458401509033   -3.31184811057804
C         0.38424916618356   -1.16982078836426   -3.31236347505533
Cl       -1.95481289283646   -0.00773869970540    5.23413945130637
Cl       -3.13473846344104    3.62317306956124    2.87447212878573
