63
 energy: -142.117728533157 gnorm: 0.000226227461 xtb: 6.4.1 (a3dbbd7)
C        -1.31589457237438    0.00287597235955    3.58024210472518
C        -0.39141870362659   -1.16198540240691    3.28464737253646
C         0.96104937396399   -0.71195047763855    3.26434087558254
C         0.96102634760170    0.72116119893785    3.27138315671346
C        -0.39318792345015    1.17084405826609    3.29209174102918
C         2.33289492251202   -2.59515438698847    0.58565877904302
C         3.39405371947863   -1.51660968747126    0.63345816287766
C         2.94723135702937   -0.69113983608606    1.82092695697764
C         1.93709413602704   -1.39716362314037    2.53638951483719
C         1.56602650676873   -2.56286744392082    1.78545198362353
C         3.18183194166770    1.42265529077122    0.58174871915411
C         2.33105020035110    2.57554870966415    0.57892680906165
C         1.56669612317592    2.57107717271079    1.80092321651323
C         1.93420530642307    1.40850341508849    2.55139770349815
C         2.93242881454860    0.68506314588215    1.80582030208007
C        -0.36916882797578    3.44001834857475    0.57807916714183
C        -1.73689529672526    2.99494945133512    0.57355309953378
C        -1.98354724035717    2.27753270578697    1.79393322311169
C        -0.74482491038163    2.27661208075512    2.56520249621783
C         0.24173708376371    2.99179405685534    1.80334160286266
C        -3.37209395791577    0.72193499191319    0.57341341977870
C        -3.37264724941413   -0.71615761825013    0.57413866320046
C        -2.79090454467612   -1.16312336106168    1.79753106138567
C        -2.64324381092673    0.00364488474397    2.75393999898772
C        -2.78830009875838    1.16892995879239    1.79531592753180
C        -1.74376869565206   -2.99299602940817    0.57777466166493
C        -0.37357560177059   -3.43408154423879    0.58320621429286
C         0.23684107838618   -2.98788606504736    1.80122473179757
C        -0.74679625871843   -2.27161821573220    2.56453777843243
C        -1.98814848896167   -2.27339206341254    1.79712391001616
C        -0.24282408252227   -2.99797028930716   -1.82496889502321
C         0.75335936691838   -2.28175841242683   -2.58053808024170
C         1.97463690861230   -2.28795790154674   -1.83054670105324
C         1.73556977221992   -2.99751347965824   -0.58857965532466
C         0.36411276989743   -3.43630306331081   -0.59379440046708
C         2.78302109929142   -1.15116706150775   -1.80950697636289
C         2.40416521890538    0.01039332148806   -2.58544781062350
C         2.78088736445241    1.17092446071886   -1.83057242073666
C         3.38799816095061    0.70847864394969   -0.60006815672777
C         3.40792326760648   -0.70941829822969   -0.61426971209411
C         1.96931868285932    2.29483134566697   -1.82988019713125
C         0.74477297212069    2.29608246224595   -2.59279298176172
C        -0.24699284770744    3.01231301919521   -1.83446222451950
C         0.36561480457910    3.44997684342477   -0.60179593342051
C         1.73501459393796    3.01360729173986   -0.60390340168776
C        -1.56702042770648    2.58502416311717   -1.84065713508803
C        -1.94390455673741    1.41861066260948   -2.60183220226389
C        -2.93479717312662    0.69622279198204   -1.84351333455014
C        -3.16251944329316    1.41678566930332   -0.61615804199593
C        -2.32667813532538    2.57879374909276   -0.61630481195684
C        -2.93322374519725   -0.69059586803997   -1.84348327581360
C        -1.94404574090997   -1.41270363709555   -2.59949288607304
C        -1.56494631333983   -2.57673010837617   -1.83572524092835
C        -2.32782574087299   -2.57394308160934   -0.61347001546808
C        -3.16370590283716   -1.41189332481098   -0.61408548159912
C        -0.98353409596312   -0.71814374660234   -3.32689218688133
C        -0.98724932863659    0.72553663248827   -3.32967646123698
C         0.38257628924408    1.17331015240081   -3.32652233405100
C         1.22895006388745    0.00714296355616   -3.32148299873900
C         0.38341052078050   -1.16029096766353   -3.32344397017843
Cl       -1.62019964332571   -0.00896489658105    5.36560286191575
Cl       -4.10981841393137    0.00668681001729    3.81743161074004
Cl        5.04720260363595   -2.24977080075871    0.94353534886265
