63
 energy: -142.117788825964 gnorm: 0.000090631547 xtb: 6.4.1 (a3dbbd7)
C        -1.31300997443543    0.00866294358956    3.57509289682479
C        -0.38034711834722   -1.27060861515430    3.58528024903001
C         0.99730436889790   -0.72442286278222    3.27397070208769
C         0.97552470522893    0.69978127975056    3.24223952983542
C        -0.36921979427102    1.15129707071964    3.28022919847830
C         2.34595464059519   -2.58021182335195    0.56710314420906
C         3.15504806274336   -1.40779184632665    0.56407858796032
C         2.90964171006534   -0.68601177780842    1.78696360232953
C         1.94839372479443   -1.40330012437149    2.56277427131833
C         1.70596336685187   -2.75729435341888    1.93213956953127
C         3.18142005860639    1.42943307458549    0.56511049336129
C         2.33578642750210    2.59716932899698    0.56963345557507
C         1.57688648684897    2.58467938341630    1.79467111059122
C         1.94675159190042    1.41497009300407    2.53540690529304
C         2.93352640326880    0.70352293891138    1.78578473831807
C        -0.36507574817640    3.45163365146970    0.57983865909741
C        -1.73877653563029    3.00543283779396    0.58475439623255
C        -1.97138499481480    2.29266620335984    1.80501501705682
C        -0.73092720658104    2.26556437197161    2.55466972360154
C         0.25091267637126    2.99530311071725    1.79751275150630
C        -3.39211923203638    0.71782002506263    0.57157878643094
C        -3.39386103975730   -0.71618760843158    0.56651974060171
C        -2.75550389604414   -1.14583731162113    1.79527197956053
C        -2.39438334761842   -0.00739489572489    2.54808151700965
C        -2.76199883509797    1.14472721807081    1.80257080537180
C        -1.72973216563397   -2.99404221826257    0.56376557144204
C        -0.35868771208650   -3.42392851261116    0.56706078354358
C         0.23885055084071   -2.96283441999777    1.80113768185816
C        -0.70462900407556   -2.26504877712822    2.51849426892438
C        -1.93993931853149   -2.27364438416964    1.78578311179510
C        -0.24828061759314   -3.00402044447422   -1.83211408462965
C         0.74097312273740   -2.27434345804534   -2.58261393129087
C         1.96839122521214   -2.26965818792920   -1.82384847494284
C         1.74535388090267   -2.98788595060414   -0.60089058292136
C         0.36112221900026   -3.44758276821068   -0.60967928664555
C         2.78995842753733   -1.14771600076785   -1.83711383782785
C         2.40878165059740    0.01647104962761   -2.59559670216712
C         2.78842155926482    1.18271979190897   -1.83881855930097
C         3.40256874012185    0.73594424095044   -0.61558966799556
C         3.39750917927266   -0.70673868378959   -0.61619038862202
C         1.96794317686586    2.30529475101904   -1.83416344326538
C         0.73863680307275    2.30202123734625   -2.58653466655587
C        -0.25205260893086    3.02014669637418   -1.82869470531993
C         0.36249562864471    3.46239347689570   -0.60182467020246
C         1.73715388565233    3.02449738591268   -0.60831437226650
C        -1.57419422719660    2.58727490151522   -1.82565690114714
C        -1.95303868074509    1.42393002898876   -2.58819849692258
C        -2.94813683970331    0.70060952890898   -1.83401084792708
C        -3.17835022804668    1.41799683790051   -0.60587250852731
C        -2.33165940147340    2.58590427283313   -0.60394088953010
C        -2.94905699020984   -0.68781983434462   -1.83878849859951
C        -1.95351924963583   -1.40908075898010   -2.59558859213084
C        -1.57657171270330   -2.57726440774399   -1.83938003461133
C        -2.33127821422576   -2.57910619827553   -0.61927921794198
C        -3.17966137208393   -1.40972585287639   -0.61398341542819
C        -0.99710784141804   -0.71184112291299   -3.31875384376507
C        -0.99735692057376    0.73007522654192   -3.31546979339937
C         0.37412665801874    1.17605754247943   -3.31558088415740
C         1.22123548934011    0.01394655328453   -3.31679385221921
C         0.37566008715346   -1.15439116274214   -3.31474467753745
Cl       -2.10278959499156    0.30475097729673    5.18606515207824
Cl       -0.36320865993058   -2.11785390474575    5.17674343232713
Cl        2.49164466195582   -4.09963276978330    2.86268269030386
