63
 energy: -142.084531617859 gnorm: 0.138142718273 xtb: 6.4.1 (a3dbbd7)
C        -1.29585809763920    0.00401118881931    3.54517689231029
C        -0.36796043466059   -1.17243305044266    3.30515820987539
C         0.98298838984909   -0.72191219210780    3.27512267957929
C         0.98156472691728    0.71960753564614    3.26971969840148
C        -0.37066843430553    1.17924059866277    3.30150764324135
C         2.33648296598357   -2.58548060321166    0.57950289371033
C         3.18657767566203   -1.41946403917212    0.57781419536533
C         2.94957050634668   -0.69854930588343    1.80123308089156
C         1.95308396825138   -1.41752165469557    2.55613481597303
C         1.57961582984989   -2.57968580834158    1.80518673258983
C         3.18767024138397    1.40991878537575    0.57593180017933
C         2.33807592119235    2.57402574463448    0.57591940987423
C         1.57683795447400    2.56605672116665    1.79975339077111
C         1.95304946478205    1.40835201085528    2.55205927541471
C         2.95072023090319    0.68875745027160    1.80098024590342
C        -0.36516779392141    3.42666371311492    0.57921714402649
C        -1.72924376731069    3.01648005687427    0.58287705229366
C        -2.09463355901587    2.46231282969886    1.94730853737491
C        -0.73027134368917    2.28553619224850    2.58224921046650
C         0.24829448370074    2.97593693088527    1.80334175247540
C        -3.37466967439567    0.70300551329579    0.57574930039426
C        -3.39003092771629   -0.73268815670587    0.56838248256510
C        -2.76818811346571   -1.16356142396752    1.78871572205038
C        -2.38904763717889    0.02437925858140    2.53264263708558
C        -2.74834472581071    1.12995086235998    1.81420011509538
C        -1.73481952354600   -3.00995345707075    0.57938225067925
C        -0.36149853487188   -3.44686666226009    0.58178847329193
C         0.25217194576597   -2.99475012297255    1.80551622011247
C        -0.72930832450935   -2.27346636848304    2.56467955460776
C        -1.97147545437730   -2.28746259180062    1.79868366143107
C        -0.24419850633136   -3.01431906314620   -1.82647673825261
C         0.74940205395547   -2.29291975806330   -2.58286291039202
C         1.97453700920709   -2.29239152825096   -1.82543977569151
C         1.74139873391846   -3.01127177396538   -0.59946235539016
C         0.36858334361035   -3.45436466601281   -0.59762914030018
C         2.79442417375665   -1.17031401238235   -1.82833550582627
C         2.41574661868216   -0.00512369138436   -2.58546959698227
C         2.79806943058290    1.16104826437995   -1.83045397159780
C         3.41356646756867    0.71553904959985   -0.60565027126811
C         3.41126633543504   -0.72579612437446   -0.60436594375932
C         1.98256115237360    2.28538932475628   -1.82964816243890
C         0.75350030248264    2.28551308222168   -2.58573232043658
C        -0.23508280223273    3.00436687434747   -1.82344140510130
C         0.37359850933878    3.44286488634390   -0.60220138875814
C         1.74684322375821    3.00246743965493   -0.60372642363152
C        -1.55566653240424    2.56818250404503   -1.80941223602174
C        -1.93859434660526    1.40592010808590   -2.57168095899201
C        -2.93551210472019    0.68461262540438   -1.82146846795257
C        -3.16898901543324    1.39767486955451   -0.59605965569985
C        -2.30435127708354    2.57332623889815   -0.58497549494069
C        -2.94114405324375   -0.70773319319533   -1.83440725651199
C        -1.94505174587464   -1.42387954866205   -2.59102123509086
C        -1.56548890453788   -2.59170746569988   -1.83211639417485
C        -2.32839595521473   -2.59312664308342   -0.60918315809929
C        -3.17773883520354   -1.43218193780650   -0.61434027481289
C        -0.98775846768414   -0.72638522805960   -3.31322849835342
C        -0.98659864734294    0.71557045446948   -3.30737103344774
C         0.38544609972999    1.16109326157285   -3.31071431262535
C         1.23106807690940   -0.00470839623161   -3.31198800118088
C         0.38446650877846   -1.17000629315169   -3.31255499434049
Cl       -1.95494402211016   -0.00808767691631    5.23350834623694
Cl       -3.13453400293270    3.62205440046694    2.87428256889563
Cl       -4.80404626719119   -2.16310187861627   -0.92575667898642
63
 energy: -142.108859653358 gnorm: 0.060729340113 xtb: 6.4.1 (a3dbbd7)
C        -1.29184353925432    0.00758621952496    3.55282052604198
C        -0.36607727348314   -1.16952145891736    3.30825165657655
C         0.98325902484126   -0.72063942042882    3.27693445654858
C         0.98300226541014    0.72116074942628    3.27158572410086
C        -0.36822838039055    1.18283560208143    3.30596100221206
C         2.33840645808189   -2.58508172865260    0.57849626235635
C         3.18728325013859   -1.41947378542490    0.57748188293514
C         2.94894808715699   -0.69833383603727    1.80140121298643
C         1.95401708237893   -1.41713110207388    2.55658305783862
C         1.58052238487074   -2.57867227181412    1.80431524413123
C         3.18760671980829    1.41007716562069    0.57621679515998
C         2.33819253946246    2.57376470614211    0.57620972423327
C         1.57765459276889    2.56676478390337    1.80069990904629
C         1.95380635778103    1.40928295767347    2.55285703412516
C         2.95064926115240    0.68912508838185    1.80086710644120
C        -0.36492885984431    3.42794278819159    0.58106797393304
C        -1.72730253500851    3.01915310179409    0.58624904104698
C        -2.09185650434796    2.46957239828511    1.95273777629121
C        -0.72787278234606    2.28938378873332    2.58671278768950
C         0.24965611839134    2.97770842587434    1.80515087678157
C        -3.36051294981495    0.70268135739509    0.58413428320531
C        -3.40172334825479   -0.72295788501856    0.58918814832162
C        -2.75840041119796   -1.15028085202074    1.78825016606546
C        -2.38293274611583    0.03389987545400    2.54145292746032
C        -2.74145161277792    1.13713603585753    1.82452474158963
C        -1.72182413738865   -3.00369454483722    0.57590805686632
C        -0.35493079296971   -3.45053395578212    0.58066941984625
C         0.25407461868471   -2.99415407541597    1.80397260679964
C        -0.72913013106922   -2.27123087649637    2.56349646060965
C        -1.96584187597215   -2.28299176584760    1.80053953587235
C        -0.23551506707836   -3.01698511974063   -1.82686627977759
C         0.75453202479005   -2.29302874186957   -2.58462821960867
C         1.97925614967915   -2.29290871728771   -1.82727581396228
C         1.74591686269709   -3.01221609160795   -0.60135647820330
C         0.37537326189756   -3.45863362651074   -0.60084052420165
C         2.79747292450959   -1.16990518667339   -1.82899101012018
C         2.41873650552620   -0.00451997753211   -2.58626318870082
C         2.79980722374845    1.16112675353410   -1.83063503888831
C         3.41473930395779    0.71564454930500   -0.60605947061292
C         3.41284830591714   -0.72524853610581   -0.60484972462934
C         1.98326597334837    2.28539919026224   -1.82999081607598
C         0.75561120893863    2.28534053674792   -2.58636859620992
C        -0.23362683180794    3.00366261076844   -1.82317835683394
C         0.37442999482078    3.44349179102026   -0.60191112289355
C         1.74634518144853    3.00225171043915   -0.60328076595662
C        -1.55334437586608    2.56745819530903   -1.81007578279444
C        -1.93416953470896    1.40886184107699   -2.57707424914983
C        -2.92067162378857    0.68522356839991   -1.82124304134986
C        -3.16279928279323    1.40030121742088   -0.59296909237331
C        -2.30298092636683    2.57175872679888   -0.58362250331262
C        -2.92784833117513   -0.70022076877110   -1.84054719442308
C        -1.93629805636946   -1.41670958178896   -2.58573938582876
C        -1.55636727296401   -2.58572534434935   -1.82607545826150
C        -2.31204180191139   -2.59506165519869   -0.60921636960299
C        -3.27625312154561   -1.47658697621066   -0.63338867209349
C        -0.98129176526887   -0.72220562456781   -3.31806267375623
C        -0.98165846209639    0.71702658013608   -3.31427840956911
C         0.38946805512864    1.16168322488966   -3.31361148616896
C         1.23543001438595   -0.00411122310076   -3.31455412865843
C         0.38933277962725   -1.16929619532100   -3.31484612186168
Cl       -1.95204405955473   -0.00778110373008    5.23984932564107
Cl       -3.13372115456294    3.62869103316749    2.87667571323019
Cl       -4.93225447066471   -2.23151008430688   -0.96691002799877
63
 energy: -142.114923106959 gnorm: 0.014592033136 xtb: 6.4.1 (a3dbbd7)
C        -1.28850560191594    0.01057018311037    3.55460971575251
C        -0.36328955952531   -1.16602849859522    3.31003917848242
C         0.98463068771240   -0.71837884717743    3.27792015413573
C         0.98635420607952    0.72387956736993    3.27382533183837
C        -0.36432509278401    1.18681594208279    3.31038139747864
C         2.34153925066164   -2.58393785711277    0.57798399658638
C         3.18898823130389   -1.41832328952577    0.57740713462305
C         2.95005502901922   -0.69679893562096    1.80192306165418
C         1.95640290660029   -1.41518829100047    2.55680039029493
C         1.58192388835994   -2.57628680132023    1.80370820345940
C         3.18957955146385    1.41119233219992    0.57695483380464
C         2.34073218964102    2.57463918035630    0.57717610231646
C         1.58077017688759    2.56865026041077    1.80222596589771
C         1.95687816447079    1.41133469396281    2.55426876454544
C         2.95296138719359    0.69075143571646    1.80134883798564
C        -0.36309029934470    3.42869566663624    0.58307943856265
C        -1.72396385016451    3.02090439298208    0.58928097096084
C        -2.08831128122407    2.47174077551226    1.95523226339356
C        -0.72404801420285    2.29369986296921    2.59107027726688
C         0.25306299149157    2.98026191295969    1.80757649570865
C        -3.35297378105488    0.69471145383655    0.58291017427212
C        -3.40040648073148   -0.72065738027389    0.59205071265571
C        -2.75492042416150   -1.14562675964813    1.77880551164997
C        -2.37527141035437    0.03579626044626    2.53848875200375
C        -2.73324283936515    1.13733260461351    1.82268464926937
C        -1.72096988576187   -2.99886488018579    0.57072623154133
C        -0.35352056208169   -3.44311322029306    0.57828370940672
C         0.25545391176962   -2.99000918058183    1.80196822440503
C        -0.73038877580487   -2.26661975772225    2.56027130615961
C        -1.96525430374329   -2.28282464014251    1.80268902042735
C        -0.23199951265138   -3.01418834130659   -1.82405267634373
C         0.75764712722502   -2.29145654639391   -2.58369298226435
C         1.98380872227650   -2.29204552683803   -1.82808616189487
C         1.75086174962412   -3.01256254735645   -0.60243176176949
C         0.37927265810495   -3.45568782035322   -0.60246947141051
C         2.80194039251170   -1.16878218413778   -1.82926295357987
C         2.42314914986522   -0.00321377628980   -2.58666217580634
C         2.80319884106854    1.16194394346033   -1.83028950250333
C         3.41779480012558    0.71677589303100   -0.60582947039269
C         3.41602585202475   -0.72378016244130   -0.60492610312785
C         1.98525355306223    2.28569256214727   -1.82950474639478
C         0.75894371657401    2.28586602861972   -2.58647360009064
C        -0.23123308749923    3.00297058007769   -1.82176283393448
C         0.37723946542188    3.44406830572632   -0.60080201962780
C         1.74779957541072    3.00266953711629   -0.60203364175117
C        -1.54983758791149    2.56503463528241   -1.80778220749374
C        -1.92911891168588    1.40511476889027   -2.57217220802604
C        -2.91643539070261    0.67967231353771   -1.81964638212991
C        -3.16287835751275    1.40237774340533   -0.59201969071051
C        -2.30126043905889    2.56710249937118   -0.58076539525456
C        -2.92915882477442   -0.69982293391546   -1.84304842014284
C        -1.93468959989862   -1.40911499323722   -2.57472905329378
C        -1.55480308696048   -2.57804622009354   -1.81513698333782
C        -2.31230543359163   -2.59790521520302   -0.60963856685509
C        -3.36156408328147   -1.51678441417637   -0.65256710891512
C        -0.97783858815140   -0.71919032927338   -3.31538028964008
C        -0.97657563228931    0.71637121823056   -3.31353655754868
C         0.39389026798103    1.16296129453043   -3.31573939273760
C         1.23995555599872   -0.00314690008006   -3.31543690840603
C         0.39243435626527   -1.16767435493904   -3.31393952253818
Cl       -1.94698651753369   -0.00779146196045    5.24155454141875
Cl       -3.12992348813008    3.63234758164265    2.87613965648979
Cl       -5.02755713975180   -2.27944890286385   -0.99301478442003
63
 energy: -142.115238962412 gnorm: 0.008679642260 xtb: 6.4.1 (a3dbbd7)
C        -1.28744975595898    0.01090837461971    3.55355344971742
C        -0.36187847797472   -1.16524107024620    3.31012119646078
C         0.98561461064779   -0.71758042388528    3.27775615783026
C         0.98800216042973    0.72487212201714    3.27460443554866
C        -0.36275053408115    1.18761734859805    3.31080478013791
C         2.34288498719766   -2.58272116261452    0.57781009520464
C         3.19054809081179   -1.41750191887000    0.57747082319748
C         2.95135436146425   -0.69584853017896    1.80218157079453
C         1.95782563583303   -1.41413149232527    2.55667815846246
C         1.58234897780849   -2.57463675113306    1.80311595103757
C         3.19118256787471    1.41198797018261    0.57738073703699
C         2.34254310507005    2.57547022801110    0.57777824018877
C         1.58255194266101    2.56979506504626    1.80299421821299
C         1.95868741618401    1.41240154365728    2.55508092587555
C         2.95471403612908    0.69177500756610    1.80182337142355
C        -0.36187290993994    3.42874933319912    0.58342140896217
C        -1.72245612122371    3.02136908630237    0.58960490284743
C        -2.08700105753236    2.47123382156191    1.95477295648971
C        -0.72247768748440    2.29452136239373    2.59151474294452
C         0.25468264394921    2.98134631576438    1.80831838731473
C        -3.35357079951366    0.69129250303093    0.58019986945148
C        -3.39805988188313   -0.72236395874299    0.58822322795343
C        -2.75613319098963   -1.14710424633186    1.77481985577367
C        -2.37286264023936    0.03482226236939    2.53534996831485
C        -2.73072666001302    1.13602242553772    1.81976942029303
C        -1.72490759693507   -2.99976232064168    0.56941263721540
C        -0.35477072986999   -3.43818125753097    0.57686874179660
C         0.25551216784445   -2.98699799270175    1.80048108273561
C        -0.73080092597348   -2.26507578461427    2.55938205988258
C        -1.96601557516878   -2.28463403268786    1.80426809528691
C        -0.23248080783366   -3.01109014651812   -1.82244203476516
C         0.75824309934244   -2.28990822707910   -2.58218268951010
C         1.98553481688467   -2.29122300255353   -1.82798787297924
C         1.75243241533527   -3.01186910994393   -0.60247217188492
C         0.37956165980770   -3.45277005231448   -0.60253679708357
C         2.80429860775561   -1.16821313504778   -1.82933726731204
C         2.42544746473877   -0.00246047042627   -2.58685619515505
C         2.80540716591442    1.16265917206141   -1.83021239211067
C         3.41978766541106    0.71759460422048   -0.60555724870251
C         3.41821723919836   -0.72300445161270   -0.60488885218390
C         1.98692447794782    2.28614486670533   -1.82919795403550
C         0.76066249562021    2.28590112642830   -2.58587187799606
C        -0.23000767824284    3.00212569756895   -1.82072321841787
C         0.37894029030707    3.44423376215673   -0.60033885275346
C         1.74924390419264    3.00314059702425   -0.60146108965116
C        -1.54810045477813    2.56285852386148   -1.80587795995850
C        -1.92770260918239    1.40184515976341   -2.56823610645421
C        -2.91984745925914    0.67715711715036   -1.81989343043914
C        -3.16474152927060    1.40397427771059   -0.59263630562573
C        -2.30072860054546    2.56571594649333   -0.57972257829089
C        -2.93759532206108   -0.70278749815437   -1.84493129578671
C        -1.93683400540590   -1.40765980805423   -2.57139342759026
C        -1.55695141752138   -2.57657896143782   -1.81181428496480
C        -2.32031773730550   -2.60218537272664   -0.61067699686597
C        -3.38107476504961   -1.52695466460221   -0.65846635735688
C        -0.97737682915717   -0.71898978053172   -3.31187442695928
C        -0.97506793263039    0.71552751381695   -3.31114216531588
C         0.39554775645693    1.16336855471037   -3.31558600342313
C         1.24176698497897   -0.00259456529733   -3.31515985957412
C         0.39319284332197   -1.16662652575813   -3.31210038083176
Cl       -1.94681060980881   -0.00654958981008    5.23983186337833
Cl       -3.12880616694474    3.63053817533796    2.87641794296565
Cl       -5.04358260875141   -2.28507910032006   -0.99368174865156
63
 energy: -142.115351647058 gnorm: 0.004752098813 xtb: 6.4.1 (a3dbbd7)
C        -1.28708791833539    0.01063619415686    3.55291203087916
C        -0.36112351166164   -1.16530463947844    3.31044900587067
C         0.98597252372969   -0.71746901752903    3.27761087579405
C         0.98853533809686    0.72511330653630    3.27487650160504
C        -0.36226678948380    1.18768133870308    3.31063426376964
C         2.34347002537228   -2.58214539533384    0.57771182186888
C         3.19134453333407   -1.41728181145236    0.57744318895179
C         2.95191568187125   -0.69557898787424    1.80225697182074
C         1.95847070297676   -1.41381003261242    2.55658815789931
C         1.58245735683634   -2.57402800392080    1.80282346656850
C         3.19163965884402    1.41214244325305    0.57739102793755
C         2.34320019866750    2.57574199076905    0.57791072218696
C         1.58313019588201    2.57017399415870    1.80320639222551
C         1.95928601188298    1.41271583977036    2.55533252381487
C         2.95535905208196    0.69208314116207    1.80193132604219
C        -0.36148140951768    3.42875435458625    0.58335514157841
C        -1.72193286520494    3.02201179798453    0.58949446807356
C        -2.08665025466662    2.47095407044480    1.95417124793315
C        -0.72199014048434    2.29457940991730    2.59136733917115
C         0.25516866781122    2.98174345230144    1.80850063504921
C        -3.35389413933062    0.68945090514158    0.57804317886444
C        -3.39428183014445   -0.72334329933645    0.58482248728008
C        -2.75658807159509   -1.14850039680926    1.77236242170461
C        -2.37143329439623    0.03426531704465    2.53337863168828
C        -2.72919906557854    1.13513986171527    1.81802046658894
C        -1.72704639252418   -3.00043227597364    0.56905526453448
C        -0.35559092802917   -3.43547690948503    0.57599909234146
C         0.25544799487256   -2.98537334444440    1.79961864773337
C        -0.73095260495413   -2.26482103519876    2.55950351264965
C        -1.96608813799410   -2.28629254867474    1.80599677958272
C        -0.23274183214437   -3.00887909154148   -1.82140615406402
C         0.75850468365070   -2.28895582821837   -2.58123324878566
C         1.98647518418804   -2.29107860200270   -1.82794100618931
C         1.75331884641754   -3.01168756768254   -0.60245597634404
C         0.37967357412401   -3.45134243726781   -0.60242498591805
C         2.80548379140011   -1.16817022516004   -1.82958107630791
C         2.42655627640530   -0.00218002275020   -2.58725462731836
C         2.80638890551635    1.16292603554630   -1.83040877069069
C         3.42055015097120    0.71782111356185   -0.60558749341579
C         3.41923159575417   -0.72283834905669   -0.60501891045994
C         1.98771212529723    2.28638836103867   -1.82924108367375
C         0.76143981382114    2.28588271748924   -2.58558371441086
C        -0.22957220142719    3.00172827997616   -1.82036038712696
C         0.37965722615667    3.44432669277741   -0.60028001160502
C         1.74982140199962    3.00335889168582   -0.60135236537437
C        -1.54722555750072    2.56159481907259   -1.80485693299226
C        -1.92701350022317    1.39991687570100   -2.56608754137882
C        -2.92187385171766    0.67614867105840   -1.82002214718090
C        -3.16600391202946    1.40593991716133   -0.59325133700914
C        -2.30078916948968    2.56568360027910   -0.57940433334021
C        -2.94276816921492   -0.70444790667552   -1.84564196229947
C        -1.93769980065651   -1.40654154838501   -2.56926973560449
C        -1.55780927586716   -2.57549414539885   -1.80967332997453
C        -2.32528528551578   -2.60448753431873   -0.61097714189141
C        -3.38958060583551   -1.53161570924702   -0.66138182878633
C        -0.97694481258640   -0.71890599182503   -3.30945223513146
C        -0.97439221084984    0.71522587765055   -3.30990161241521
C         0.39638664057950    1.16369887865880   -3.31566506978179
C         1.24262834826651   -0.00220341556117   -3.31527568673792
C         0.39356414712318   -1.16600598084005   -3.31093658993027
Cl       -1.94869931925342   -0.00522037963486    5.23797866013017
Cl       -3.12936399629087    3.62773802540544    2.87726449632487
Cl       -5.04551928683768   -2.28300928084390   -0.98953202021881
63
 energy: -142.115393632259 gnorm: 0.002470089758 xtb: 6.4.1 (a3dbbd7)
C        -1.28722055264071    0.01035312786173    3.55290249116983
C        -0.36107903391693   -1.16561441352639    3.31079216667342
C         0.98579057137728   -0.71764087379514    3.27755380200548
C         0.98832662457953    0.72498703775753    3.27480379261218
C        -0.36244031009538    1.18755612109667    3.31052908614340
C         2.34342685464052   -2.58213702578620    0.57765495926180
C         3.19133650493799   -1.41740514761016    0.57739342813897
C         2.95180026238550   -0.69570535467869    1.80223188702042
C         1.95840277882892   -1.41392549065670    2.55655257800812
C         1.58234001846977   -2.57418988220347    1.80280202806060
C         3.19138617205466    1.41197738728031    0.57726473224701
C         2.34301719488872    2.57562320585039    0.57781010919614
C         1.58291804745747    2.57003383454464    1.80310703127718
C         1.95907095798680    1.41258487609549    2.55522751674128
C         2.95517858830545    0.69195591684034    1.80183583815661
C        -0.36169678443858    3.42868184406249    0.58323362077953
C        -1.72212225357210    3.02241933747228    0.58937086049104
C        -2.08688819749581    2.47098299110649    1.95396668110895
C        -0.72216427859843    2.29445517807654    2.59126261494973
C         0.25495510383958    2.98163094827482    1.80841724733363
C        -3.35345896056207    0.68893122603583    0.57708432983032
C        -3.39117194467655   -0.72342921837535    0.58313147802371
C        -2.75616698352268   -1.14896648150136    1.77136534412655
C        -2.37099538783060    0.03425642269120    2.53281661180951
C        -2.72867240789175    1.13485386638989    1.81763842781296
C        -1.72716770118891   -3.00047769608607    0.56905446277116
C        -0.35578578722556   -3.43504913263116    0.57569904129066
C         0.25535319750279   -2.98524635593635    1.79945403240860
C        -0.73103381451151   -2.26527111466067    2.55994863703615
C        -1.96579760857446   -2.28707381653990    1.80692205224339
C        -0.23269194963267   -3.00826871897323   -1.82121782541942
C         0.75853765353575   -2.28879471811625   -2.58107596946866
C         1.98666242586441   -2.29130652524855   -1.82797564404912
C         1.75355431257478   -3.01189742684587   -0.60250298263553
C         0.37975273929019   -3.45134178720662   -0.60239242649382
C         2.80557859416281   -1.16833835567493   -1.82974257543828
C         2.42661097203365   -0.00222451353293   -2.58749637847511
C         2.80632903961844    1.16285224158588   -1.83055498174581
C         3.42043065504521    0.71771771742398   -0.60568707916018
C         3.41918843908436   -0.72296454185082   -0.60513059541657
C         1.98766560177927    2.28638050722569   -1.82936616175732
C         0.76142116106253    2.28581251649231   -2.58558979617304
C        -0.22973692683276    3.00170824471729   -1.82047458962116
C         0.37955858874670    3.44429983048012   -0.60037416625304
C         1.74967436956926    3.00332684637872   -0.60143881704216
C        -1.54720811368763    2.56137358334125   -1.80479391713583
C        -1.92691596925582    1.39944397534233   -2.56580083009540
C        -2.92199789121968    0.67610929503512   -1.82002713943885
C        -3.16633907336864    1.40709194029140   -0.59358131818832
C        -2.30117301814441    2.56616646020153   -0.57956468476442
C        -2.94357598879558   -0.70463178299461   -1.84545238699238
C        -1.93745490833649   -1.40596104121834   -2.56853928283045
C        -1.55755332671649   -2.57494808918397   -1.80892055757935
C        -2.32611326654347   -2.60461441178135   -0.61082613953867
C        -3.39158743369228   -1.53269295753046   -0.66203819361316
C        -0.97669438342393   -0.71891355130826   -3.30886198854833
C        -0.97433384949822    0.71528676574705   -3.30990835601035
C         0.39651256424229    1.16382349653536   -3.31592992397531
C         1.24270207386090   -0.00208294634478   -3.31553776111617
C         0.39361811253819   -1.16590821568015   -3.31073907071167
Cl       -1.95046401776812   -0.00472630151648    5.23706897907659
Cl       -3.13041898305451    3.62604845241431    2.87775988630806
Cl       -5.04107856096138   -2.27833284547924   -0.98456278231948
63
 energy: -142.115405336335 gnorm: 0.001304227054 xtb: 6.4.1 (a3dbbd7)
C        -1.28745786366865    0.01023263058410    3.55315720044582
C        -0.36132855448182   -1.16581876014892    3.31091280186109
C         0.98550475463092   -0.71779802726208    3.27754668570838
C         0.98797724031538    0.72482117569997    3.27465477740486
C        -0.36273614032043    1.18745656972608    3.31055988983406
C         2.34321481308639   -2.58230928136844    0.57763191236754
C         3.19105592758947   -1.41753309121962    0.57738093462605
C         2.95150881558126   -0.69585611339780    1.80220514255869
C         1.95813149492534   -1.41410334416544    2.55655533490040
C         1.58222413233063   -2.57449296428269    1.80286777810390
C         3.19108106735731    1.41185332019539    0.57722607517303
C         2.34266512466071    2.57546535377846    0.57773448588265
C         1.58256022175089    2.56981420217963    1.80299261215504
C         1.95870131402808    1.41240211238689    2.55509079644981
C         2.95482845808913    0.69179112306240    1.80176536984089
C        -0.36200574045908    3.42859957896695    0.58317442257657
C        -1.72245415993382    3.02247326098041    0.58931843983517
C        -2.08721259556322    2.47113231306974    1.95404411840453
C        -0.72246836887103    2.29438078133332    2.59127269621328
C         0.25462544622332    2.98140237850740    1.80830521669710
C        -3.35288759049491    0.68915229573706    0.57710340533530
C        -3.39000937450388   -0.72312248349656    0.58302719719711
C        -2.75558622050679   -1.14877971310197    1.77140791384996
C        -2.37115052873439    0.03442871246507    2.53306725039350
C        -2.72880026025150    1.13494210636345    1.81794292678576
C        -1.72656383044863   -3.00035021082788    0.56907228093481
C        -0.35564157407411   -3.43565695050962    0.57574899786824
C         0.25532322470605   -2.98577395528645    1.79963661606623
C        -0.73107506376670   -2.26573562105090    2.56018498195506
C        -1.96559800954981   -2.28710734300439    1.80693487709611
C        -0.23256882152382   -3.00865624363723   -1.82148039648895
C         0.75848817619325   -2.28901405851278   -2.58130904074974
C         1.98649190268015   -2.29146536676305   -1.82801738510671
C         1.75343273271641   -3.01209129866521   -0.60256898288767
C         0.37978952097791   -3.45180878476180   -0.60244763167419
C         2.80526381237416   -1.16841686356917   -1.82972826586686
C         2.42630183667507   -0.00231996984086   -2.58747094794827
C         2.80598443747685    1.16273400703491   -1.83054029312148
C         3.42013007969297    0.71761228773668   -0.60570059195315
C         3.41883593380786   -0.72306047095158   -0.60513021569610
C         1.98737386875447    2.28629246725583   -1.82940511515492
C         0.76117281078200    2.28575840492878   -2.58569094970401
C        -0.22998260487413    3.00181053321334   -1.82067393908878
C         0.37924983942321    3.44424333883524   -0.60045117493042
C         1.74936771656432    3.00322814354215   -0.60149979003488
C        -1.54750773532147    2.56167975128788   -1.80515611923108
C        -1.92706437663495    1.39973689785260   -2.56633928586602
C        -2.92142778557659    0.67634169212505   -1.82007979472374
C        -3.16618399458885    1.40719476764408   -0.59365940566516
C        -2.30146849574170    2.56648956354133   -0.57984452053781
C        -2.94237416265142   -0.70422650546224   -1.84518213889624
C        -1.93704458443705   -1.40597547824862   -2.56879620863642
C        -1.55713550592209   -2.57498684819605   -1.80916088046644
C        -2.32498034785982   -2.60399909109185   -0.61069173339445
C        -3.39111243406505   -1.53230931870946   -0.66168447272592
C        -0.97668099555619   -0.71896375487425   -3.30934557720889
C        -0.97448533977792    0.71540101404714   -3.31034413581310
C         0.39634402611822    1.16377759787110   -3.31609339299011
C         1.24249893072660   -0.00214007305437   -3.31564633714126
C         0.39354632137390   -1.16605795199095   -3.31101823436739
Cl       -1.95094954729226   -0.00499504378210    5.23709232804983
Cl       -3.13094954904882    3.62594631210025    2.87766591777590