156
 energy: -493.107039476634 gnorm: 8.873518210067 xtb: 6.4.1 (a3dbbd7)
C        -1.23626340000000    0.00000000000000    3.32997640000000
C        -0.38202640000000   -1.17575640000000    3.32997640000000
C         1.00015810000000   -0.72665740000000    3.32997640000000
C         1.00015810000000    0.72665740000000    3.32997640000000
C        -0.38202640000000    1.17575640000000    3.32997640000000
C         2.34433560000000   -2.60145750000000    0.59464210000000
C         3.19857260000000   -1.42570110000000    0.59464210000000
C         2.96246730000000   -0.69904370000000    1.83090550000000
C         1.96230920000000   -1.42570110000000    2.59495830000000
C         1.58028280000000   -2.60145750000000    1.83090550000000
C         3.19857260000000    1.42570110000000    0.59464210000000
C         2.34433560000000    2.60145750000000    0.59464210000000
C         1.58028280000000    2.60145750000000    1.83090550000000
C         1.96230920000000    1.42570110000000    2.59495830000000
C         2.96246730000000    0.69904370000000    1.83090550000000
C        -0.36750900000000    3.48258920000000    0.59464210000000
C        -1.74969350000000    3.03349030000000    0.59464210000000
C        -1.98579880000000    2.30683290000000    1.83090550000000
C        -0.74953540000000    2.30683290000000    2.59495830000000
C         0.25062270000000    3.03349030000000    1.83090550000000
C        -3.42570570000000    0.72665740000000    0.59464210000000
C        -3.42570570000000   -0.72665740000000    0.59464210000000
C        -2.80757400000000   -1.17575640000000    1.83090550000000
C        -2.42554760000000    0.00000000000000    2.59495830000000
C        -2.80757400000000    1.17575640000000    1.83090550000000
C        -1.74969350000000   -3.03349030000000    0.59464210000000
C        -0.36750900000000   -3.48258920000000    0.59464210000000
C         0.25062270000000   -3.03349030000000    1.83090550000000
C        -0.74953540000000   -2.30683290000000    2.59495830000000
C        -1.98579880000000   -2.30683290000000    1.83090550000000
C        -0.25062270000000   -3.03349030000000   -1.83090550000000
C         0.74953540000000   -2.30683290000000   -2.59495830000000
C         1.98579880000000   -2.30683290000000   -1.83090550000000
C         1.74969350000000   -3.03349030000000   -0.59464210000000
C         0.36750900000000   -3.48258920000000   -0.59464210000000
C         2.80757400000000   -1.17575640000000   -1.83090550000000
C         2.42554760000000    0.00000000000000   -2.59495830000000
C         2.80757400000000    1.17575640000000   -1.83090550000000
C         3.42570570000000    0.72665740000000   -0.59464210000000
C         3.42570570000000   -0.72665740000000   -0.59464210000000
C         1.98579880000000    2.30683290000000   -1.83090550000000
C         0.74953540000000    2.30683290000000   -2.59495830000000
C        -0.25062270000000    3.03349030000000   -1.83090550000000
C         0.36750900000000    3.48258920000000   -0.59464210000000
C         1.74969350000000    3.03349030000000   -0.59464210000000
C        -1.58028280000000    2.60145750000000   -1.83090550000000
C        -1.96230920000000    1.42570110000000   -2.59495830000000
C        -2.96246730000000    0.69904370000000   -1.83090550000000
C        -3.19857260000000    1.42570110000000   -0.59464210000000
C        -2.34433560000000    2.60145750000000   -0.59464210000000
C        -2.96246730000000   -0.69904370000000   -1.83090550000000
C        -1.96230920000000   -1.42570110000000   -2.59495830000000
C        -1.58028280000000   -2.60145750000000   -1.83090550000000
C        -2.34433560000000   -2.60145750000000   -0.59464210000000
C        -3.19857260000000   -1.42570110000000   -0.59464210000000
C        -1.00015810000000   -0.72665740000000   -3.32997640000000
C        -1.00015810000000    0.72665740000000   -3.32997640000000
C         0.38202640000000    1.17575640000000   -3.32997640000000
C         1.23626340000000    0.00000000000000   -3.32997640000000
C         0.38202640000000   -1.17575640000000   -3.32997640000000
C        -1.76086815247998    0.00000000000000    4.78849957557021
F        -0.76911826531252    0.00000000000000    5.67468926254662
F        -2.50968386795825   -1.06794314680471    5.04863888333743
F        -2.50968386795825    1.06794314680471    5.04863888333743
C        -0.54413818249354   -1.67468516033722    4.78849957845317
F        -0.23767107904745   -0.73147481112462    5.67468925997942
F        -1.79120914301982   -2.05683909935453    5.04863874564184
F         0.24013968171955   -2.71686350152345    5.04863903502921
C         1.42457227037960   -1.03501233722714    4.78849957248258
F         0.62223011468481   -0.45207589682711    5.67468926529602
F         1.40265511061956   -2.33913928186680    5.04863905501621
F         2.65809836182651   -0.61117154425495    5.04863869666890
C         1.42457227037960    1.03501233722714    4.78849957248258
F         0.62223011468481    0.45207589682711    5.67468926529602
F         2.65809836182651    0.61117154425495    5.04863869666891
F         1.40265511061956    2.33913928186680    5.04863905501621
C         3.37204091334889   -3.72927672645244    0.86730596148276
F         4.06564647311729   -3.51265957144658    1.98125763710227
F         4.25569947457670   -3.84739838595791   -0.11965645964809
F         2.78580317558591   -4.91533944031226    1.00324916143780
C         4.58877084110522   -2.05459160147071    0.86730597290559
F         4.59709252483521   -2.78118520641283    1.98125951001435
F         4.97417519512416   -2.85850196315549   -0.11965482382298
F         5.53562669678859   -1.13053295630600    1.00324569798425
C         2.28376457660886   -3.72927671755932    2.62817408867206
F         3.59030321655004   -3.51265997057976    2.75037870097715
F         2.14318168460923   -4.91533956626619    2.04303190988612
F         1.79618325340524   -3.84739782561575    3.85992562899767
C         3.37204091334889    3.72927672645244    0.86730596148276
F         4.06564647311729    3.51265957144658    1.98125763710227
F         4.25569947457670    3.84739838595791   -0.11965645964809
F         2.78580317558591    4.91533944031226    1.00324916143780
C         2.28376457660886    3.72927671755932    2.62817408867206
F         3.59030321655004    3.51265997057976    2.75037870097715
F         2.14318168460923    4.91533956626619    2.04303190988612
F         1.79618325340524    3.84739782561575    3.85992562899767
C         4.25247495652193    1.01957928511255    2.62817407757680
F         4.45020405360858    2.32910962270745    2.75037677428972
F         5.33704498641440    0.51936149478961    2.04303305824600
F         4.21414295278388    0.51936236815950    3.85992636334023
C        -2.84103082519036    3.32439911178427    2.62817407941587
F        -2.23127406184889    4.50005340761388    2.75037746012490
F        -4.01248672303644    3.55720929213524    2.04303264409738
F        -3.10404037880939    2.89718378306489    3.85992609894428
C         0.34440953624153    4.35941144868709    2.62817404748705
F        -0.83992598883967    4.95213069234126    2.75037577510431
F         1.15529636597892    5.23632261667420    2.04303359185445
F         0.80829780400759    4.16837989546168    3.85992670963205
C        -4.92005227074660   -1.03501232949151    0.86730592957069
F        -5.35386609588658   -0.45207588830481    1.98125865327758
F        -5.70437742108406   -0.61117153086585   -0.11965558739362
F        -5.14292645153878   -2.33913927311179    1.00324714649869
C         0.34440953624153   -4.35941144868709    2.62817404748705
F        -0.83992598883967   -4.95213069234126    2.75037577510431
F         1.15529636597892   -5.23632261667420    2.04303359185445
F         0.80829780400759   -4.16837989546168    3.85992670963205
C         3.49548004549360    0.00000000000000   -3.71645041414084
F         4.73163621497510    0.00000000000000   -3.22571838476757
F         3.39327517264965   -1.06794314680471   -4.50254938956302
F         3.39327517264965    1.06794314680471   -4.50254938956303
C         4.92005227074660    1.03501232949151   -0.86730592957069
F         5.35386609588658    0.45207588830481   -1.98125865327758
F         5.14292645153878    2.33913927311179   -1.00324714649869
F         5.70437742108406    0.61117153086585    0.11965558739362
C         1.08016271022039    3.32439912180418   -3.71645041587937
F         1.46215754230407    4.50005299330749   -3.22571838851551
F         2.06425285383526    2.89718320022386   -4.50255037491024
F         0.03290491502765    3.55721032900471   -4.50254840735999
C         0.53602450593361    4.99908416128281   -0.86730591619822
F         1.22448605650957    5.23152837615597   -1.98125850960180
F        -0.63540201352706    5.61404743764837   -1.00324736766175
F         1.18149064144157    5.61404773804446    0.11965571789346
C         2.50473491433418    4.35941144902977   -0.86730593917895
F         2.08438487052912    4.95213043104453   -1.98125838386969
F         3.81390519137296    4.16837996597314   -1.00324768478856
F         2.34400857369757    5.23632280881804    0.11965581818547
C        -2.28376457660886    3.72927671755932   -2.62817408867206
F        -3.59030321655004    3.51265997057978   -2.75037870097715
F        -1.79618325340526    3.84739782561576   -3.85992562899768
F        -2.14318168460923    4.91533956626621   -2.04303190988614
C        -2.82790274436383    2.05459160758554   -3.71645040671519
F        -3.82797483682855    2.78118494419178   -3.22571836876305
F        -2.11749631416700    2.85850222732984   -4.50254863174647
F        -3.37293748548841    1.13053297859378   -4.50255013394648
C        -2.82790274436383   -2.05459160758554   -3.71645040671519
F        -3.82797483682855   -2.78118494419178   -3.22571836876305
F        -3.37293748548841   -1.13053297859378   -4.50255013394648
F        -2.11749631416700   -2.85850222732984   -4.50254863174647
C        -3.37204091334889   -3.72927672645244   -0.86730596148276
F        -4.06564647311728   -3.51265957144662   -1.98125763710229
F        -2.78580317558593   -4.91533944031228   -1.00324916143777
F        -4.25569947457673   -3.84739838595791    0.11965645964807
C        -1.42457227037960    1.03501233722714   -4.78849957248258
F        -0.62223011468481    0.45207589682711   -5.67468926529602
F        -2.65809836182651    0.61117154425495   -5.04863869666891
F        -1.40265511061956    2.33913928186680   -5.04863905501621
156
 energy: -499.459681394101 gnorm: 6.864333769428 xtb: 6.4.1 (a3dbbd7)
C        -1.23691868527336    0.00119066566762    3.32544612283704
C        -0.38285179644462   -1.17805303160634    3.32143157690887
C         1.00138249586017   -0.72825156860972    3.32143021547133
C         0.99881343810068    0.72805737799651    3.32537153758926
C        -0.38144024261302    1.17481769652505    3.33282025546803
C         2.33723279648229   -2.59718028530588    0.58876507204743
C         3.19483201786744   -1.42087015423126    0.59291345707482
C         2.96502161183836   -0.70144243070106    1.83158987191733
C         1.96354163541882   -1.42798159658254    2.59311338726175
C         1.57653511889361   -2.59119401961490    1.82559595147309
C         3.19751366401720    1.42653387975941    0.59642191184533
C         2.34047957208102    2.58946550876318    0.59267619428447
C         1.57763092133773    2.59218836735720    1.82847334691803
C         1.96283186593143    1.42675340115823    2.59343465530002
C         2.96256995823791    0.69993141924567    1.83072914325816
C        -0.37052868217066    3.48349570538358    0.59601676463292
C        -1.74866505556619    3.03236024412290    0.59149209301964
C        -1.98782146870092    2.30951052167910    1.83117819536120
C        -0.74880648507714    2.30959828018537    2.59425075226757
C         0.24421050092255    3.02755948393909    1.82768758176445
C        -3.42545580487812    0.72963775522767    0.59587534349142
C        -3.42829714593383   -0.72688953073869    0.59622250352197
C        -2.80452321478483   -1.17573083813377    1.83255617105996
C        -2.42809038812740   -0.00067338414782    2.59046450792037
C        -2.80948796150528    1.17065148568287    1.82999932970284
C        -1.74693640985897   -3.03306142709596    0.59955964112510
C        -0.36955440825486   -3.48207981876967    0.59289178052042
C         0.24406330826782   -3.02811243553635    1.82667344130190
C        -0.75138929056779   -2.30782901062696    2.59277700404358
C        -1.98560050994150   -2.30745961721347    1.82842243034498
C        -0.24989290063510   -3.03200848982979   -1.83087457402884
C         0.75002322728922   -2.30757028328165   -2.59456953110968
C         1.98491726710973   -2.30612727882019   -1.83123975084085
C         1.74759257415277   -3.03401421063944   -0.59761425037371
C         0.36777084794589   -3.48239498756846   -0.59577302230569
C         2.80624675273526   -1.17790124794029   -1.82783880299720
C         2.42941824494660   -0.00022750644312   -2.59779780021899
C         2.80657876087456    1.17656648630022   -1.83044530688792
C         3.42693615145413    0.72640240557078   -0.59668491699193
C         3.42596083975869   -0.72788681286551   -0.59766321403105
C         1.98635151843990    2.30715180508168   -1.82979854013114
C         0.75020925650043    2.30740912923791   -2.59583351259196
C        -0.24944792284112    3.03429874059698   -1.83076497323235
C         0.36417616478611    3.47802949425943   -0.59405945042747
C         1.74466342735760    3.02384713427394   -0.59739771099465
C        -1.57848831896135    2.60087218945318   -1.82652144170637
C        -1.96276694241246    1.42272631436170   -2.58956885564153
C        -2.96323654760083    0.69921801015644   -1.83008054132994
C        -3.19808671463785    1.42616181968994   -0.59368543231345
C        -2.34569438930853    2.60132853663302   -0.59189436879793
C        -2.96297826808287   -0.69959659536211   -1.82594138977385
C        -1.96537036446988   -1.42823963152795   -2.59711901146521
C        -1.57640015640557   -2.60345418805333   -1.82999988294351
C        -2.34763388295945   -2.60317640626301   -0.59590274922947
C        -3.19590858186802   -1.42305182517230   -0.60073728570599
C        -0.99587048533439   -0.72578419220201   -3.33035460067528
C        -0.99372477992305    0.72136975337422   -3.32521486799882
C         0.38272408088321    1.17187063240157   -3.33065712643633
C         1.23089638276566   -0.00137678179419   -3.33024116820066
C         0.38269725993429   -1.17400466502025   -3.33039303264897
C        -1.78575773496086    0.00517133127491    4.76242869586358
F        -0.81065844830463    0.04471378440134    5.70369445469439
F        -2.56374981807194   -1.00412688774684    5.05075796420621
F        -2.51074597875775    1.07177023831479    5.05168919726095
C        -0.55405584452233   -1.70158191801368    4.75650112943663
F        -0.27024321768865   -0.78078288963412    5.71682919024697
F        -1.74811091803976   -2.12598190485497    5.05062672979443
F         0.16251849945241   -2.74915401828660    5.05413025195658
C         1.44946087519138   -1.05174913931055    4.75229643185922
F         0.66864422118681   -0.46925061066643    5.72001785585896
F         1.48426748266142   -2.31945171984795    5.05435162598131
F         2.66417870862647   -0.69310365481080    5.05083350635010
C         1.44892538082973    1.04464266746338    4.75849799784102
F         0.62552288864937    0.51383871993798    5.70661451103295
F         2.66517177844097    0.69537483610607    5.05310807560479
F         1.40005938187295    2.34316966424449    5.05526173529823
C         3.35468996958640   -3.72743981614795    0.84461748444915
F         4.08714755174848   -3.56011774554956    1.95985635247479
F         4.21262909551191   -3.91576193080038   -0.12354936636857
F         2.82922869224477   -4.92727716292462    0.92671143172017
C         4.58747024704621   -2.03941095178381    0.84536571375574
F         4.64982368549919   -2.73768462571112    1.99543232089152
F         5.02607739180109   -2.79486290691272   -0.12307651631159
F         5.53871817847864   -1.13447756958321    1.00462177485966
C         2.23613047442519   -3.72392629691028    2.60121055656600
F         3.60290093614177   -3.51439567036638    2.82700789547243
F         2.13869668033822   -4.92733682559892    2.10588297549091
F         1.83270867787181   -3.83663797618696    3.88908210125954
C         3.34776988837297    3.70706642127302    0.85757060524686
F         4.11165327732919    3.52512092327548    1.94687150120196
F         4.29469209743072    3.83848543466485   -0.10537088318108
F         2.85292285656440    4.93526719494222    0.98901124781222
C         2.26259727586833    3.71036870794337    2.60302589272184
F         3.58179993745221    3.52530284979518    2.80770950962160
F         2.15414476573620    4.93296633561113    2.10793603635844
F         1.82502236270665    3.83983038399010    3.89238026765404
C         4.25220068470230    1.01433756309413    2.62676434604298
F         4.47154290845374    2.30124637245566    2.76386266168502
F         5.33828652860762    0.52125703051984    2.04847210791251
F         4.21823629057099    0.51833123107937    3.86061387012756
C        -2.84315083807809    3.32249279377174    2.62748739318348
F        -2.26169757008419    4.49398137703300    2.75155961398456
F        -4.01450964068562    3.55767501913712    2.04270801827513
F        -3.10485587170627    2.89779853215254    3.86166901489552
C         0.33341853435471    4.34524163183000    2.61896425251531
F        -0.81257640901955    4.96608510597997    2.75211409130797
F         1.10493253931794    5.27410316178161    2.03765898548687
F         0.77764913065659    4.17755644299375    3.88358908074232
C        -4.91957780374013   -1.03513270852644    0.86752360092114
F        -5.35522843838454   -0.45167440880910    1.98246178149928
F        -5.70576745183185   -0.61079542537357   -0.12047568799744
F        -5.14556505480249   -2.33722781484344    1.00526755034092
C         0.33159162158646   -4.34726170986491    2.61796324743784
F        -0.84113102582891   -4.95456390289169    2.75187667585945
F         1.12477714133762   -5.27011482780142    2.03228493788073
F         0.77314506584072   -4.18236036226496    3.88551805837420
C         3.49405605997451   -0.00071132896602   -3.71732540960786
F         4.72082578034794   -0.01039181379941   -3.25378076560569
F         3.39318719785766   -1.06919479221139   -4.50432149614210
F         3.39397299773915    1.06871042817149   -4.50408206805808
C         4.91962793777445    1.03302606587505   -0.86715455685136
F         5.36988857266670    0.46166256083762   -1.95516667596993
F         5.14604337007787    2.34026538578697   -1.00489104894494
F         5.70759379271561    0.61453820534691    0.11692929200618
C         1.08095962201777    3.31888922975138   -3.71809109920831
F         1.45827305578743    4.48997956081180   -3.26132121113143
F         2.06473463673795    2.89812951376638   -4.50410289495713
F         0.03612891721968    3.56011999079774   -4.50575304414716
C         0.52816264005784    4.99174356973885   -0.85573865198366
F         1.17617414515749    5.26513254258445   -1.98217361405399
F        -0.63628009239659    5.61850483564601   -1.00309746582616
F         1.09501418338116    5.65108399690643    0.12497960902416
C         2.49071228950304    4.33382703395551   -0.83956935981251
F         2.14264700483720    4.95990885495281   -1.99501378153017
F         3.83320143820602    4.17531693654870   -1.04921984655653
F         2.39694083743850    5.25045926091665    0.07618954938545
C        -2.26796192963100    3.72540261136371   -2.62494731238257
F        -3.59605780113123    3.56338383155056   -2.71780687555175
F        -1.77148116451911    3.92483046082645   -3.81966600338567
F        -2.14742394865121    4.91929016101541   -2.04318680269087
C        -2.78137898388593    2.04470044887922   -3.70551990129755
F        -3.88244513840865    2.74967801719402   -3.24939099852004
F        -2.16050127592356    2.82487256225770   -4.53746569394390
F        -3.42374882812306    1.12572556144728   -4.50010626577252
C        -2.82644900850099   -2.05624324533027   -3.71553925437866
F        -3.82504955149196   -2.76619822640942   -3.25402398628303
F        -3.37578593773719   -1.13078624377157   -4.50495283656373
F        -2.11711966982244   -2.85913500474937   -4.50412778473758
C        -3.37173703392257   -3.72947241683532   -0.86592166874671
F        -4.07309471282709   -3.52963589498681   -1.95545195826092
F        -2.78536526769222   -4.91726136017930   -1.00329863628224
F        -4.25522665522501   -3.85135055652226    0.11964574771052
C        -1.41229751303777    1.02340272771380   -4.77963443981407
F        -0.62184338743520    0.45204843303936   -5.67701662376474
F        -2.64831975104991    0.58711869660463   -5.07633780439372
F        -1.37554631753714    2.33647812809170   -5.08009825285202
156
 energy: -505.389668986275 gnorm: 5.957811531984 xtb: 6.4.1 (a3dbbd7)
C        -1.23720141324421    0.00441068724845    3.32483288436862
C        -0.38361106281772   -1.18054027161739    3.31761196193968
C         1.00272496027777   -0.72991444485864    3.31722994643154
C         0.99624277138908    0.72972586053113    3.32281350952608
C        -0.38102763842037    1.17404487145593    3.33478960172901
C         2.33425704103578   -2.59679673859043    0.58358492639419
C         3.19479094233525   -1.41746663804963    0.59299808627569
C         2.96606583474247   -0.70420113892609    1.83189114639376
C         1.96480748062747   -1.42913970059359    2.59135957502139
C         1.57759665104881   -2.58860279836772    1.82774892208494
C         3.19553991555453    1.42859338409999    0.59806735087069
C         2.34078521132285    2.57967930381282    0.59323785003048
C         1.57767954711486    2.58742213935985    1.83023804781769
C         1.96330403169345    1.42849315306712    2.59243946638369
C         2.96460416396265    0.70152120585653    1.83174962651655
C        -0.37473730304195    3.48316326866066    0.59689559619680
C        -1.74665991684329    3.03024216146840    0.58730461654603
C        -1.99085427631997    2.31488938301249    1.83491918933753
C        -0.74794742223710    2.31059914066356    2.59344083281683
C         0.23748465368155    3.02559281860407    1.82669742088297
C        -3.42053079382460    0.73318680966448    0.59622533986534
C        -3.43664975336156   -0.72740372905701    0.59888512824213
C        -2.80099290474622   -1.17542755019241    1.83478589958636
C        -2.43195898019470   -0.00103519001761    2.58419360963898
C        -2.81098372888380    1.16398810704689    1.82674291269277
C        -1.74359889929673   -3.03224957113418    0.60539440932280
C        -0.37217388683965   -3.48086331883453    0.58959445280767
C         0.23611491437894   -3.02807632113407    1.82472599415370
C        -0.75405997913100   -2.31007715381265    2.59051481690706
C        -1.98531657095438   -2.30654892892899    1.82509027947143
C        -0.24970938126288   -3.03034475205218   -1.83027024248351
C         0.75109927002829   -2.30891622627978   -2.59367177564010
C         1.98333566486224   -2.30537615554925   -1.83185843701133
C         1.74548094621118   -3.03499926955250   -0.60119585100601
C         0.36759518987310   -3.48163977858080   -0.59602057652532
C         2.80500613134087   -1.17978576163170   -1.82358465501220
C         2.43472271345413   -0.00048944950264   -2.60205109584913
C         2.80425188429169    1.17740348525882   -1.82980275476425
C         3.43200808978292    0.72651365522998   -0.59966599103834
C         3.42280699060758   -0.72934182609998   -0.60230428828151
C         1.98728494997681    2.30502579151866   -1.82895845075806
C         0.75131906538248    2.31089689309401   -2.59806997955189
C        -0.24849426600855    3.03482297253634   -1.82999734034696
C         0.35970894382903    3.47572195006473   -0.59427460423173
C         1.74194379448687    3.02078027289458   -0.60205614076986
C        -1.57781257541004    2.60279191139926   -1.82274702917924
C        -1.96615563088252    1.42134242598352   -2.58696686800550
C        -2.96618601193655    0.69929354738254   -1.82871465309975
C        -3.19740046608996    1.42583558849604   -0.59246114890990
C        -2.34680694246866    2.60002689067354   -0.58798935348657
C        -2.96175077924656   -0.70018788496678   -1.81876127387787
C        -1.96983406183296   -1.43140478533142   -2.60081549167260
C        -1.57117018680679   -2.60345662329438   -1.82927486644994
C        -2.35196303267116   -2.60772215082826   -0.59860290933111
C        -3.19259737143932   -1.41986525055930   -0.60723021925865
C        -0.99060535071527   -0.72496742932974   -3.33233045835832
C        -0.98687517381780    0.71575105806287   -3.32299052520072
C         0.38411494778075    1.16631394672941   -3.33167306540336
C         1.22386033020172   -0.00249784299301   -3.33026754097620
C         0.38288236603791   -1.17171778027234   -3.32837977568603
C        -1.80580709070380    0.00151375264302    4.74203620364371
F        -0.85242469285078    0.10552912527463    5.72489010070153
F        -2.59524018182403   -0.96695156156032    5.05380569283693
F        -2.51010149412883    1.07294699174220    5.05360549379097
C        -0.55837062562247   -1.72365729695607    4.72626125691455
F        -0.36084128831670   -0.86427522758853    5.75169724043637
F        -1.72338475203709   -2.16562759741707    5.05314558811598
F         0.11832837589597   -2.76591667076644    5.05903736682249
C         1.46829497797430   -1.06782327576422    4.71908464321541
F         0.78848845831065   -0.48033876313471    5.76008107920916
F         1.53007947647688   -2.30690974583801    5.05921451568789
F         2.66804315903997   -0.73897523040894    5.05359294964035
C         1.46606483857523    1.05254295153361    4.73676195576309
F         0.62196730871453    0.58741923957301    5.73000949914113
F         2.66529225773415    0.74431547403437    5.05913234567318
F         1.39733894063867    2.34230760921103    5.06037991172253
C         3.33707901321472   -3.72720373804281    0.82651530303824
F         4.10174203892386   -3.62645807919220    1.90492991353779
F         4.18667947222226   -3.95629969509267   -0.12501418285568
F         2.85360623592742   -4.93482804256908    0.87911305118629
C         4.58452976936562   -2.02531900543904    0.82242072166099
F         4.70543034010806   -2.68376509224656    2.01977295723992
F         5.05849310946653   -2.75780426868454   -0.12509517518605
F         5.54031211149642   -1.14079247629968    1.00598267032487
C         2.18956538204265   -3.72351924075883    2.57718017968219
F         3.61652778928189   -3.50603926710621    2.92109800901925
F         2.15957643515731   -4.91895314790614    2.16040928403853
F         1.92171920076521   -3.81479759010177    3.89434002430709
C         3.30318474928320    3.69184472656123    0.84410591501992
F         4.15372886171379    3.54180044923792    1.92634512711370
F         4.35238489006384    3.82148740191874   -0.05542325529960
F         2.92771967405415    4.93853735241198    0.99807824611895
C         2.24092439133092    3.70265182150865    2.56090896869422
F         3.58006170582103    3.54121918533108    2.85332090719783
F         2.21504080615896    4.91511839354914    2.18216118149159
F         1.88797834568756    3.82693218701894    3.92360766203740
C         4.25233311247412    1.00934508851177    2.62533281855349
F         4.49252007640633    2.27091149279289    2.77725971454167
F         5.33933540179854    0.52359428989882    2.05471308759381
F         4.22268370843279    0.51684886348389    3.86078733567537
C        -2.84474952932082    3.32140270382713    2.62707304809877
F        -2.29052575703226    4.48784841206508    2.75248966444766
F        -4.01669900795653    3.55818466329309    2.04220970381093
F        -3.10561127449874    2.89838391419386    3.86324418033620
C         0.32419352291390    4.33378879844267    2.61240414550096
F        -0.78570005275758    4.97959072692739    2.75384951356948
F         1.00727977760918    5.32258952294735    2.02493040441639
F         0.71570000623131    4.19709171641568    3.90065679325624
C        -4.91987848462509   -1.03535808724233    0.86806190833647
F        -5.35660423179657   -0.45112033791237    1.98380824625051
F        -5.70714374822246   -0.61030707041267   -0.12133539900569
F        -5.14851747280760   -2.33475461123619    1.00764571497689
C         0.32311180187868   -4.32965512420247    2.61222331748863
F        -0.84358249834909   -4.95941266673846    2.75336930680153
F         1.08312297089175   -5.31030772033138    2.01302177561029
F         0.68758946840025   -4.21326080539696    3.90370079210866
C         3.49352663270591   -0.00136039337137   -3.71794925981580
F         4.71059079818674   -0.01992709919987   -3.28008830243626
F         3.39292170989275   -1.07053293877381   -4.50602957842059
F         3.39456893167031    1.06931177534411   -4.50556690886465
C         4.91962321990085    1.03097044046077   -0.86779453059579
F         5.38492318895827    0.47051190471353   -1.93088969529862
F         5.14936905149174    2.33969608263251   -1.00732785759462
F         5.71063878717347    0.61846565443571    0.11301422976033
C         1.08242304116779    3.31364827825937   -3.71980298375310
F         1.45307918984998    4.47840493261358   -3.29805503397159
F         2.06513157120178    2.89903898884809   -4.50569917928790
F         0.04053472671256    3.56333110434695   -4.50900184047614
C         0.52294296666092    4.98518029315171   -0.84442332310976
F         1.14532176011488    5.29267081147052   -1.97952780165712
F        -0.63493813248557    5.62241266738723   -1.00222424566677
F         1.04105967457058    5.67326373923126    0.12797336908535