62
 energy: -137.479105029443 gnorm: 0.197027184190 xtb: 6.4.1 (a3dbbd7)
C        -1.23626340000000    0.00000000000000    3.32997640000000
C        -0.38202640000000   -1.17575640000000    3.32997640000000
C         1.00015810000000   -0.72665740000000    3.32997640000000
C         1.00015810000000    0.72665740000000    3.32997640000000
C        -0.38202640000000    1.17575640000000    3.32997640000000
C         2.34433560000000   -2.60145750000000    0.59464210000000
C         3.19857260000000   -1.42570110000000    0.59464210000000
C         2.96246730000000   -0.69904370000000    1.83090550000000
C         1.96230920000000   -1.42570110000000    2.59495830000000
C         1.58028280000000   -2.60145750000000    1.83090550000000
C         3.19857260000000    1.42570110000000    0.59464210000000
C         2.34433560000000    2.60145750000000    0.59464210000000
C         1.58028280000000    2.60145750000000    1.83090550000000
C         1.96230920000000    1.42570110000000    2.59495830000000
C         2.96246730000000    0.69904370000000    1.83090550000000
C        -0.36750900000000    3.48258920000000    0.59464210000000
C        -1.74969350000000    3.03349030000000    0.59464210000000
C        -1.98579880000000    2.30683290000000    1.83090550000000
C        -0.74953540000000    2.30683290000000    2.59495830000000
C         0.25062270000000    3.03349030000000    1.83090550000000
C        -3.42570570000000    0.72665740000000    0.59464210000000
C        -3.42570570000000   -0.72665740000000    0.59464210000000
C        -2.80757400000000   -1.17575640000000    1.83090550000000
C        -2.42554760000000    0.00000000000000    2.59495830000000
C        -2.80757400000000    1.17575640000000    1.83090550000000
C        -1.74969350000000   -3.03349030000000    0.59464210000000
C        -0.36750900000000   -3.48258920000000    0.59464210000000
C         0.25062270000000   -3.03349030000000    1.83090550000000
C        -0.74953540000000   -2.30683290000000    2.59495830000000
C        -1.98579880000000   -2.30683290000000    1.83090550000000
C        -0.25062270000000   -3.03349030000000   -1.83090550000000
C         0.74953540000000   -2.30683290000000   -2.59495830000000
C         1.98579880000000   -2.30683290000000   -1.83090550000000
C         1.74969350000000   -3.03349030000000   -0.59464210000000
C         0.36750900000000   -3.48258920000000   -0.59464210000000
C         2.80757400000000   -1.17575640000000   -1.83090550000000
C         2.42554760000000    0.00000000000000   -2.59495830000000
C         2.80757400000000    1.17575640000000   -1.83090550000000
C         3.42570570000000    0.72665740000000   -0.59464210000000
C         3.42570570000000   -0.72665740000000   -0.59464210000000
C         1.98579880000000    2.30683290000000   -1.83090550000000
C         0.74953540000000    2.30683290000000   -2.59495830000000
C        -0.25062270000000    3.03349030000000   -1.83090550000000
C         0.36750900000000    3.48258920000000   -0.59464210000000
C         1.74969350000000    3.03349030000000   -0.59464210000000
C        -1.58028280000000    2.60145750000000   -1.83090550000000
C        -1.96230920000000    1.42570110000000   -2.59495830000000
C        -2.96246730000000    0.69904370000000   -1.83090550000000
C        -3.19857260000000    1.42570110000000   -0.59464210000000
C        -2.34433560000000    2.60145750000000   -0.59464210000000
C        -2.96246730000000   -0.69904370000000   -1.83090550000000
C        -1.96230920000000   -1.42570110000000   -2.59495830000000
C        -1.58028280000000   -2.60145750000000   -1.83090550000000
C        -2.34433560000000   -2.60145750000000   -0.59464210000000
C        -3.19857260000000   -1.42570110000000   -0.59464210000000
C        -1.00015810000000   -0.72665740000000   -3.32997640000000
C        -1.00015810000000    0.72665740000000   -3.32997640000000
C         0.38202640000000    1.17575640000000   -3.32997640000000
C         1.23626340000000    0.00000000000000   -3.32997640000000
C         0.38202640000000   -1.17575640000000   -3.32997640000000
Cl       -1.84886636902500    0.00000000000000    5.03315507598844
Cl        3.67495258473768    0.00000000000000   -3.90457167199672
62
 energy: -137.525305005172 gnorm: 0.107790505776 xtb: 6.4.1 (a3dbbd7)
C        -1.24995631907475    0.00000000000000    3.35569484119634
C        -0.36459702326852   -1.18335310160065    3.32866756650400
C         1.00071511731806   -0.72491416998079    3.31747680621575
C         1.00071511731806    0.72491416998079    3.31747680621575
C        -0.36459702326852    1.18335310160065    3.32866756650400
C         2.33913691121085   -2.59202644482239    0.59733431056786
C         3.18627761881832   -1.42262200824940    0.59760795815954
C         2.95352698694110   -0.69526474589170    1.82602572466925
C         1.95995823795897   -1.42225819223239    2.58573216257002
C         1.58123116707406   -2.59153668692874    1.82670486606210
C         3.18627761881832    1.42262200824940    0.59760795815954
C         2.33913691121085    2.59202644482239    0.59733431056786
C         1.58123116707406    2.59153668692874    1.82670486606210
C         1.95995823795897    1.42225819223239    2.58573216257002
C         2.95352698694110    0.69526474589170    1.82602572466925
C        -0.36201206710409    3.46226370296175    0.59450547233359
C        -1.74097656319773    3.01818663935860    0.59557706540642
C        -1.97274560060220    2.29628419148825    1.81510432785603
C        -0.73335400501991    2.29424059993240    2.58282703169484
C         0.25651265382881    3.02230734298144    1.82704705856001
C        -3.42149155194915    0.72332554340452    0.57764916000314
C        -3.42149155194915   -0.72332554340452    0.57764916000314
C        -2.79525158279880   -1.16720476864942    1.80307382191667
C        -2.43112209081495    0.00000000000000    2.54330235186122
C        -2.79525158279880    1.16720476864942    1.80307382191666
C        -1.74097656319773   -3.01818663935860    0.59557706540642
C        -0.36201206710409   -3.46226370296175    0.59450547233359
C         0.25651265382881   -3.02230734298144    1.82704705856001
C        -0.73335400501991   -2.29424059993240    2.58282703169485
C        -1.97274560060220   -2.29628419148825    1.81510432785603
C        -0.24913128779384   -3.01823278451334   -1.82349234856147
C         0.73667330502775   -2.29820735811833   -2.58207149125799
C         1.97000766459800   -2.29335025397036   -1.81017221555839
C         1.74440744692136   -3.02282670264942   -0.58740826248727
C         0.36692078939851   -3.46277163833452   -0.58858372963169
C         2.78645786725606   -1.17693920962447   -1.80376231493303
C         2.48284248958088   -0.00000000000000   -2.65156262669028
C         2.78645786725606    1.17693920962447   -1.80376231493303
C         3.40315217500771    0.72402240270688   -0.58620437489370
C         3.40315217500771   -0.72402240270688   -0.58620437489370
C         1.97000766459800    2.29335025397036   -1.81017221555839
C         0.73667330502775    2.29820735811833   -2.58207149125799
C        -0.24913128779384    3.01823278451334   -1.82349234856147
C         0.36692078939851    3.46277163833452   -0.58858372963169
C         1.74440744692136    3.02282670264943   -0.58740826248727
C        -1.58023101952838    2.59016723975862   -1.82028298126692
C        -1.96288140617243    1.42050661468241   -2.58252844690823
C        -2.95793562790424    0.69554453987623   -1.82632235425353
C        -3.19144846222966    1.42140516893756   -0.59919092896869
C        -2.33574015336951    2.58985337017220   -0.59595550539618
C        -2.95793562790424   -0.69554453987623   -1.82632235425353
C        -1.96288140617243   -1.42050661468240   -2.58252844690823
C        -1.58023101952838   -2.59016723975862   -1.82028298126692
C        -2.33574015336952   -2.58985337017220   -0.59595550539618
C        -3.19144846222966   -1.42140516893756   -0.59919092896869
C        -1.01025037160863   -0.72238668269763   -3.31119455765839
C        -1.01025037160863    0.72238668269763   -3.31119455765839
C         0.36704391209897    1.16614255652677   -3.31467085699413
C         1.20312692854147    0.00000000000000   -3.31972672266477
C         0.36704391209897   -1.16614255652677   -3.31467085699413
Cl       -1.88233015684564   -0.00000000000000    5.10002973287214
Cl        3.75557510250284   -0.00000000000000   -3.98614010008213
62
 energy: -137.545092519483 gnorm: 0.041034491334 xtb: 6.4.1 (a3dbbd7)
C        -1.28672901967397    0.00000000000000    3.47612283840865
C        -0.35356169527278   -1.17938503414231    3.28456826226152
C         0.99344828302098   -0.72157217392868    3.28844304007042
C         0.99344828302098    0.72157217392868    3.28844304007042
C        -0.35356169527278    1.17938503414232    3.28456826226152
C         2.33616599673434   -2.58299455841377    0.60057211659107
C         3.17557193164623   -1.42001647395994    0.59962409228167
C         2.94746376042678   -0.69210823808180    1.82228943558514
C         1.95744060583981   -1.42036616842179    2.57395739984920
C         1.58209789583822   -2.58404516661049    1.82201729695312
C         3.17557193164622    1.42001647395994    0.59962409228166
C         2.33616599673434    2.58299455841378    0.60057211659106
C         1.58209789583821    2.58404516661050    1.82201729695312
C         1.95744060583981    1.42036616842179    2.57395739984919
C         2.94746376042677    0.69210823808180    1.82228943558513
C        -0.35986088688092    3.44824336231456    0.58961212014285
C        -1.73644490320717    3.00325398957768    0.59437164405279
C        -1.96820269551439    2.29098090496629    1.79769109713706
C        -0.72256478651911    2.27942785302129    2.55478230249308
C         0.25862783673514    3.01241085527528    1.81640215320886
C        -3.41196578976033    0.71920459918222    0.56815599031759
C        -3.41196578976033   -0.71920459918222    0.56815599031759
C        -2.77729322928247   -1.15187818678163    1.79044282131532
C        -2.43360563902107    0.00000000000000    2.52998886169210
C        -2.77729322928247    1.15187818678163    1.79044282131532
C        -1.73644490320717   -3.00325398957769    0.59437164405280
C        -0.35986088688092   -3.44824336231456    0.58961212014286
C         0.25862783673515   -3.01241085527528    1.81640215320887
C        -0.72256478651911   -2.27942785302129    2.55478230249308
C        -1.96820269551441   -2.29098090496630    1.79769109713708
C        -0.24551673335601   -3.00300341321526   -1.81908810925272
C         0.72666459879777   -2.29152291391013   -2.56529588889983
C         1.96296394065073   -2.28023045682563   -1.79173054126372
C         1.73888157468394   -3.00914201134978   -0.58071918380804
C         0.36635968343134   -3.44717348358605   -0.58519127092602
C         2.77226154821267   -1.17783725090303   -1.78412471524996
C         2.55430598341292    0.00000000000000   -2.71945722785420
C         2.77226154821267    1.17783725090304   -1.78412471524997
C         3.37984907958022    0.72159834326496   -0.58312606706672
C         3.37984907958022   -0.72159834326496   -0.58312606706672
C         1.96296394065073    2.28023045682563   -1.79173054126372
C         0.72666459879776    2.29152291391012   -2.56529588889980
C        -0.24551673335602    3.00300341321525   -1.81908810925271
C         0.36635968343133    3.44717348358605   -0.58519127092602
C         1.73888157468394    3.00914201134978   -0.58071918380804
C        -1.58173823782417    2.57872542891451   -1.81262986876947
C        -1.96312889752251    1.41485776604904   -2.57714369954683
C        -2.95570402954925    0.69264621744151   -1.82658322613028
C        -3.18352634210485    1.41463141671647   -0.60280223809928
C        -2.32927554039718    2.57866615629058   -0.60309278984526
C        -2.95570402954927   -0.69264621744150   -1.82658322613029
C        -1.96312889752252   -1.41485776604903   -2.57714369954684
C        -1.58173823782417   -2.57872542891451   -1.81262986876948
C        -2.32927554039719   -2.57866615629058   -0.60309278984527
C        -3.18352634210486   -1.41463141671647   -0.60280223809928
C        -1.01663244522938   -0.71860233448529   -3.30198897869108
C        -1.01663244522938    0.71860233448530   -3.30198897869107
C         0.36081753389087    1.15084412564529   -3.28574271462679
C         1.17666765586382    0.00000000000000   -3.30463414641578
C         0.36081753389087   -1.15084412564529   -3.28574271462680
Cl       -1.92786363376690    0.00000000000000    5.25056069711934
Cl        3.83691475476102    0.00000000000000   -4.07133857912573
62
 energy: -137.547351333470 gnorm: 0.021365276924 xtb: 6.4.1 (a3dbbd7)
C        -1.29260502891956   -0.00000000000002    3.49749949996230
C        -0.36561435836289   -1.17760295652728    3.31036283877016
C         0.98590800524584   -0.72139429031277    3.29742673604570
C         0.98590800524584    0.72139429031277    3.29742673604570
C        -0.36561435836290    1.17760295652723    3.31036283877016
C         2.33689518580168   -2.57917437020853    0.59929701775549
C         3.17607652714940   -1.41596458029433    0.59488277364908
C         2.94679163260464   -0.69189431777693    1.82184669124655
C         1.95336007966940   -1.41637232540243    2.57690648346433
C         1.58148583761968   -2.57955255721497    1.82335490546777
C         3.17607652714941    1.41596458029434    0.59488277364908
C         2.33689518580166    2.57917437020850    0.59929701775550
C         1.58148583761968    2.57955255721493    1.82335490546775
C         1.95336007966940    1.41637232540244    2.57690648346434
C         2.94679163260465    0.69189431777695    1.82184669124656
C        -0.35983151346766    3.44045997285258    0.59045748339269
C        -1.73745270337830    2.99860316920845    0.59536917631088
C        -1.97049128453556    2.28886568799820    1.80266713485680
C        -0.72875568349464    2.27596925644566    2.56831955417625
C         0.25579164535943    3.00071221681464    1.81819251103818
C        -3.41007749819325    0.71920708668952    0.57107536481144
C        -3.41007749819318   -0.71920708668953    0.57107536481142
C        -2.77848326539002   -1.15033212177655    1.79882842562574
C        -2.42982368484025   -0.00000000000002    2.54553503706219
C        -2.77848326539008    1.15033212177655    1.79882842562576
C        -1.73745270337826   -2.99860316920837    0.59536917631082
C        -0.35983151346767   -3.44045997285259    0.59045748339268
C         0.25579164535943   -3.00071221681466    1.81819251103818
C        -0.72875568349463   -2.27596925644568    2.56831955417625
C        -1.97049128453545   -2.28886568799811    1.80266713485670
C        -0.24548515773036   -2.99856711032707   -1.82060849867897
C         0.72954157200727   -2.29013542896389   -2.57082223481432
C         1.96951532238381   -2.27644086357951   -1.80204392317144
C         1.73886580981256   -2.99927113631213   -0.58418174982291
C         0.36649069480084   -3.43996823227671   -0.58564729764465
C         2.78951187922275   -1.17568189728415   -1.80606225923860
C         2.56771973015322   -0.00000000000002   -2.73394369101015
C         2.78951187922275    1.17568189728410   -1.80606225923861
C         3.38444795007182    0.72117560467037   -0.59300671283606
C         3.38444795007182   -0.72117560467037   -0.59300671283605
C         1.96951532238381    2.27644086357948   -1.80204392317145
C         0.72954157200731    2.29013542896398   -2.57082223481447
C        -0.24548515773033    2.99856711032715   -1.82060849867904
C         0.36649069480086    3.43996823227669   -0.58564729764466
C         1.73886580981257    2.99927113631212   -0.58418174982292
C        -1.58324863393150    2.57814711041977   -1.81443857244467
C        -1.96505569795922    1.41444343287693   -2.57977040772496
C        -2.96332258933568    0.69361791139268   -1.83104372882428
C        -3.18730981180027    1.41462434629825   -0.60351093100431
C        -2.33131633892477    2.57801275205824   -0.60347879708726
C        -2.96332258933557   -0.69361791139269   -1.83104372882421
C        -1.96505569795916   -1.41444343287689   -2.57977040772487
C        -1.58324863393144   -2.57814711041970   -1.81443857244459
C        -2.33131633892467   -2.57801275205817   -0.60347879708725
C        -3.18730981180017   -1.41462434629821   -0.60351093100430
C        -1.01291523700259   -0.71870321746124   -3.30247841065046
C        -1.01291523700260    0.71870321746123   -3.30247841065054
C         0.36812057694753    1.14982759290714   -3.29209947702382
C         1.19358335466448   -0.00000000000002   -3.31289948332416
C         0.36812057694755   -1.14982759290714   -3.29209947702375
Cl       -1.93994741805858   -0.00000000000009    5.25771972608664
Cl        3.84027337233281   -0.00000000000008   -4.08491587607363
62
 energy: -137.548005567969 gnorm: 0.012150947911 xtb: 6.4.1 (a3dbbd7)
C        -1.29834523617241   -0.00000000000121    3.52017160069024
C        -0.37269506703470   -1.17540711206474    3.31907670766145
C         0.98108030458049   -0.72127940979012    3.29800115593410
C         0.98108030458017    0.72127940978939    3.29800115593395
C        -0.37269506703507    1.17540711206213    3.31907670766143
C         2.33744001094156   -2.57803924346301    0.59846503657379
C         3.17569164437391   -1.41437387329076    0.59241373026167
C         2.94490486731598   -0.69171811102817    1.82030531368653
C         1.95073331657190   -1.41471543163395    2.57676709641616
C         1.58095778494380   -2.57820371198974    1.82371818860843
C         3.17569164437439    1.41437387329036    0.59241373026158
C         2.33744001094092    2.57803924346095    0.59846503657407
C         1.58095778494379    2.57820371198770    1.82371818860774
C         1.95073331657207    1.41471543163357    2.57676709641666
C         2.94490486731696    0.69171811102838    1.82030531368713
C        -0.35993260837347    3.43659804393928    0.59034083575009
C        -1.73857079929981    2.99800750460087    0.59568047200678
C        -1.97266396039133    2.29047769020280    1.80420838222308
C        -0.73161190647396    2.27352654965283    2.57252731954957
C         0.25419347834158    2.99422659330060    1.81793728913783
C        -3.40549849199760    0.71896048264761    0.57252887467633
C        -3.40549849199406   -0.71896048264859    0.57252887467534
C        -2.77688630453811   -1.14942796713834    1.80392131850638
C        -2.42306802980944   -0.00000000000109    2.55259129444538
C        -2.77688630454155    1.14942796713798    1.80392131850742
C        -1.73857079929701   -2.99800750459671    0.59568047200373
C        -0.35993260837331   -3.43659804393973    0.59034083574917
C         0.25419347834185   -2.99422659330085    1.81793728913707
C        -0.73161190647297   -2.27352654965390    2.57252731954877
C        -1.97266396038517   -2.29047769019837    1.80420838221795
C        -0.24533150008847   -2.99797925469410   -1.82172230468041
C         0.73052459539913   -2.29143088628750   -2.57278358159798
C         1.97241353685570   -2.27376903216523   -1.80565631904154
C         1.73864757127113   -2.99360337866554   -0.58567911042393
C         0.36658209515742   -3.43634306430083   -0.58595069555490
C         2.79800320545147   -1.17430213527065   -1.81728930348597
C         2.57806686120963   -0.00000000000124   -2.74359463918356
C         2.79800320545129    1.17430213526797   -1.81728930348633
C         3.38523649607862    0.72111224824530   -0.59749153285522
C         3.38523649607895   -0.72111224824607   -0.59749153285499
C         1.97241353685595    2.27376903216413   -1.80565631904279
C         0.73052459540097    2.29143088629206   -2.57278358160589
C        -0.24533150008701    2.99797925469825   -1.82172230468425
C         0.36658209515817    3.43634306430040   -0.58595069555544
C         1.73864757127169    2.99360337866530   -0.58567911042452
C        -1.58383770623399    2.57905314856589   -1.81508592397191
C        -1.96554888183948    1.41476890548793   -2.58081294771896
C        -2.96574333705727    0.69424163187002   -1.83263857908167
C        -3.18819224024561    1.41499565306682   -0.60366236830639
C        -2.33199468591357    2.57899124245574   -0.60415825271024
C        -2.96574333705128   -0.69424163187007   -1.83263857907796
C        -1.96554888183598   -1.41476890548577   -2.58081294771403
C        -1.58383770623058   -2.57905314856200   -1.81508592396750
C        -2.33199468590811   -2.57899124245184   -0.60415825270920
C        -3.18819224023968   -1.41499565306468   -0.60366236830548
C        -1.01006480692798   -0.71867059364004   -3.30037181568046
C        -1.01006480692871    0.71867059363906   -3.30037181568409
C         0.37283412851265    1.14914862979874   -3.29204057364248
C         1.20155444665485   -0.00000000000108   -3.31073582780317
C         0.37283412851328   -1.14914862979907   -3.29204057363891
Cl       -1.95043854366200   -0.00000000000356    5.26360050967051
Cl        3.83697523869212   -0.00000000000355   -4.09454635829846
62
 energy: -137.548214381119 gnorm: 0.007157812226 xtb: 6.4.1 (a3dbbd7)
C        -1.30079150892928   -0.00000000000535    3.53087092847631
C        -0.37468830569686   -1.17422971276511    3.31765268008449
C         0.97968863330779   -0.72128764682206    3.29575542471418
C         0.97968863330624    0.72128764681950    3.29575542471319
C        -0.37468830569884    1.17422971275319    3.31765268008402
C         2.33801811092030   -2.57872335555804    0.59836896915481
C         3.17572819430610   -1.41445470343486    0.59219897717114
C         2.94438177042510   -0.69171988961660    1.81974888462165
C         1.95020067234679   -1.41463986501966    2.57604368925485
C         1.58094998501742   -2.57877989444361    1.82380608971053
C         3.17572819430851    1.41445470343364    0.59219897717107
C         2.33801811091625    2.57872335554746    0.59836896915616
C         1.58094998501676    2.57877989443310    1.82380608970642
C         1.95020067234773    1.41463986501851    2.57604368925727
C         2.94438177043036    0.69171988961833    1.81974888462507
C        -0.36003097867676    3.43693492235285    0.59014721805098
C        -1.73922617095157    2.99954382527622    0.59563581292286
C        -1.97368200398089    2.29255805877288    1.80406553652520
C        -0.73204020594797    2.27331807408473    2.57219034961892
C         0.25394901566275    2.99303605982008    1.81732422675031
C        -3.40286730667559    0.71871936079153    0.57287185336303
C        -3.40286730665849   -0.71871936079512    0.57287185335860
C        -2.77518573306301   -1.14908772748461    1.80534286488437
C        -2.41830102137570   -0.00000000000413    2.55323645102620
C        -2.77518573308026    1.14908772748465    1.80534286488844
C        -1.73922617093922   -2.99954382525711    0.59563581290873
C        -0.36003097867597   -3.43693492235624    0.59014721804715
C         0.25394901566454   -2.99303605982250    1.81732422674812
C        -0.73204020594328   -2.27331807409013    2.57219034961631
C        -1.97368200395102   -2.29255805875057    1.80406553650136
C        -0.24521066134826   -2.99950627720574   -1.82218591435129
C         0.73062001486013   -2.29296016087170   -2.57271324016225
C         1.97283251645782   -2.27334528544140   -1.80531555531657
C         1.73874384758627   -2.99280415331575   -0.58568371467619
C         0.36671496992839   -3.43680862343439   -0.58607907641696
C         2.79896274316175   -1.17390149289270   -1.81902108605725
C         2.58043207317381   -0.00000000000537   -2.74569428094492
C         2.79896274316043    1.17390149288065   -1.81902108605878
C         3.38479983036475    0.72122798297519   -0.59773090239170
C         3.38479983036647   -0.72122798297781   -0.59773090239087
C         1.97283251645801    2.27334528543592   -1.80531555532191
C         0.73062001486816    2.29296016089441   -2.57271324020009
C        -0.24521066134106    2.99950627722492   -1.82218591436873
C         0.36671496993150    3.43680862343107   -0.58607907641934
C         1.73874384758742    2.99280415331333   -0.58568371467873
C        -1.58376200957289    2.58014832875015   -1.81524066448134
C        -1.96532091900412    1.41515510021165   -2.58109676578238
C        -2.96510376079586    0.69438599947961   -1.83244974813755
C        -3.18781440984198    1.41527071984225   -0.60350136923975
C        -2.33193565204454    2.58014090264305   -0.60453845022639
C        -2.96510376076588   -0.69438599947874   -1.83244974811820
C        -1.96532091898751   -1.41515510020043   -2.58109676575873
C        -1.58376200955752   -2.58014832873291   -1.81524066446100
C        -2.33193565201980   -2.58014090262594   -0.60453845022151
C        -3.18781440981415   -1.41527071983138   -0.60350136923495
C        -1.00915958225781   -0.71862193581573   -3.29937028184140
C        -1.00915958226178    0.71862193581216   -3.29937028185924
C         0.37414167952626    1.14895572963170   -3.29008116490466
C         1.20269630881224   -0.00000000000407   -3.30613243693558
C         0.37414167953047   -1.14895572963157   -3.29008116488715
Cl       -1.95400896209205   -0.00000000002086    5.25975556053093
Cl        3.82865075791212   -0.00000000002049   -4.09574210380557
62
 energy: -137.548297192003 gnorm: 0.003401827579 xtb: 6.4.1 (a3dbbd7)
C        -1.30170494702367   -0.00000000008751    3.53492284982123
C        -0.37442619491592   -1.17388523668070    3.31402951733363
C         0.97971357408327   -0.72132379816735    3.29379776312307
C         0.97971357405718    0.72132379812791    3.29379776310988
C        -0.37442619494976    1.17388523649036    3.31402951732622
C         2.33841931767215   -2.57957198616736    0.59857411388910
C         3.17599019031689   -1.41492841221394    0.59268859353071
C         2.94458389414531   -0.69176872580169    1.81979807806607
C         1.95042139905105   -1.41494911010568    2.57552912956942
C         1.58112699607216   -2.57956664720136    1.82380059759253
C         3.17599019035184    1.41492841219816    0.59268859352442
C         2.33841931761250    2.57957198601156    0.59857411390735
C         1.58112699606144    2.57956664704597    1.82380059753136
C         1.95042139906050    1.41494911009053    2.57552912960477
C         2.94458389421777    0.69176872583323    1.81979807811198
C        -0.36003721227722    3.43835825860113    0.59009537210497
C        -1.73942909533811    3.00089852050302    0.59560321638222
C        -1.97396312758768    2.29379200505346    1.80363297571604
C        -0.73166157709846    2.27401375130806    2.57107922675287
C         0.25422969231227    2.99383510636677    1.81695926678177
C        -3.40210119640323    0.71855643065977    0.57279521956534
C        -3.40210119613097   -0.71855643071930    0.57279521949081
C        -2.77414941305238   -1.14892668528198    1.80511057667141
C        -2.41618311340648   -0.00000000007157    2.55177704692802
C        -2.77414941332139    1.14892668527422    1.80511057674638
C        -1.73942909514619   -3.00089852020582    0.59560321615726
C        -0.36003721226953   -3.43835825865101    0.59009537204224
C         0.25422969233811   -2.99383510639994    1.81695926674253
C        -0.73166157702476   -2.27401375139588    2.57107922671506
C        -1.97396312712125   -2.29379200470990    1.80363297533786
C        -0.24503140251098   -3.00086355143444   -1.82221911011148
C         0.73059340703170   -2.29375159338191   -2.57210845766568
C         1.97263620101489   -2.27389464269643   -1.80409616733080
C         1.73900236034297   -2.99382989096394   -0.58523107619502
C         0.36687749350557   -3.43833835032252   -0.58604525777581
C         2.79756375856673   -1.17406378611202   -1.81724887482619
C         2.57968716064278   -0.00000000008796   -2.74522483940925
C         2.79756375854467    1.17406378592016   -1.81724887485240
C         3.38449909659361    0.72134335417839   -0.59676765017999
C         3.38449909661752   -0.72134335421866   -0.59676765016343
C         1.97263620101547    2.27389464260726   -1.80409616741339
C         0.73059340716170    2.29375159372713   -2.57210845825541
C        -0.24503140239517    3.00086355173173   -1.82221911038432
C         0.36687749355850    3.43833835027282   -0.58604525781081
C         1.73900236036639    2.99382989093013   -0.58523107623564
C        -1.58347852248968    2.58070021253921   -1.81517992194884
C        -1.96493170983103    1.41530490451912   -2.58101764835697
C        -2.96400536753910    0.69431902636454   -1.83191887152695
C        -3.18717958816532    1.41531463802082   -0.60330180736769
C        -2.33164039463111    2.58071561499789   -0.60467310714298
C        -2.96400536710098   -0.69431902635385   -1.83191887125132
C        -1.96493170958181   -1.41530490434789   -2.58101764799538
C        -1.58347852225605   -2.58070021226603   -1.81517992163464
C        -2.33164039424783   -2.58071561472603   -0.60467310707344
C        -3.18717958773461   -1.41531463785192   -0.60330180730356
C        -1.00925780462249   -0.71858401160504   -3.29940356695705
C        -1.00925780467935    0.71858401154566   -3.29940356723747
C         0.37385976580258    1.14890910288333   -3.28835561510007
C         1.20136991077123   -0.00000000007173   -3.30270297432599
C         0.37385976585682   -1.14890910289067   -3.28835561482398
Cl       -1.95391287740182   -0.00000000030758    5.25184423689136
Cl        3.82038099922144   -0.00000000030272   -4.09388594442022
62
 energy: -137.548313388582 gnorm: 0.001487266809 xtb: 6.4.1 (a3dbbd7)
C        -1.30170799160601    0.00000000055215    3.53454234717841
C        -0.37360168530559   -1.17416072252605    3.31279276908369
C         0.98011740446904   -0.72134311911794    3.29360751787337
C         0.98011740462945    0.72134311914531    3.29360751789245
C        -0.37360168509097    1.17416072371793    3.31279276914156