63
 energy: -142.055588863961 gnorm: 0.139992362923 xtb: 6.4.1 (a3dbbd7)
C        -1.29750015586385   -0.00332986390914    3.53259128384291
C        -0.36662330751186   -1.17665276848352    3.30664507069186
C         0.98616964776834   -0.71907897730420    3.28345800331063
C         0.97960460534774    0.72298388992876    3.28116382332211
C        -0.37123063139343    1.17283027203526    3.30703999424566
C         2.33902808225222   -2.57287964708243    0.59282134541102
C         3.18775381441874   -1.40592934941989    0.58930269986468
C         2.95375934983025   -0.68600072575484    1.81413225258493
C         1.96120405920183   -1.41040140165925    2.57054878390017
C         1.59036597905156   -2.57351223230031    1.81677968982536
C         3.18509045263714    1.42556506459426    0.58677401618036
C         2.33644918538866    2.58955715701350    0.58712295456856
C         1.57732702745437    2.58269052266160    1.81121996042124
C         1.95121649520604    1.42062240906665    2.56339217358200
C         2.94734969899541    0.70178584035143    1.81241871801286
C        -0.36230865601760    3.44984460076387    0.58649915495812
C        -1.73568065385573    3.00856312776383    0.58620129080773
C        -1.97466648707238    2.29051782036392    1.80819368403138
C        -0.73502216685138    2.27460254582232    2.56651749222581
C         0.25013328780141    2.99673212004624    1.80718987334861
C        -3.40556373000186    0.73624756401696    0.57396823263447
C        -3.39656113686751   -0.70087893853968    0.57336766874418
C        -2.76869398640548   -1.13743152688347    1.81131829425690
C        -2.41606481668825   -0.00935770106357    2.54947016075177
C        -2.77763293498784    1.16181023849822    1.80199827311876
C        -1.73897950039868   -3.00369688886198    0.61027095302842
C        -0.34675175341818   -3.43911314840585    0.58927014667112
C         0.26540959524459   -2.99405405130769    1.81086784239501
C        -0.72448106648574   -2.27696612285733    2.56655534431523
C        -1.96661719091772   -2.30337153119419    1.80189055009829
C        -0.25303910441721   -3.21697439825626   -1.93515078628168
C         0.75308145440921   -2.28653916290657   -2.57867440920420
C         1.95238411039292   -2.27005430543362   -1.81108187299871
C         1.72490810125568   -2.99201887192918   -0.58363119559495
C         0.37557574680441   -3.46024706207600   -0.57873868952343
C         2.78760429110383   -1.15277384641970   -1.81491371839878
C         2.41431409213368    0.00739165047242   -2.57035366353322
C         2.79604684339575    1.17540453813949   -1.81886357647572
C         3.41064679229982    0.73155426330899   -0.59398339018568
C         3.40671134080570   -0.71156461677298   -0.59219407131255
C         1.97416914155198    2.29602882113511   -1.81673739726529
C         0.74456425139311    2.29447798281708   -2.57376768155679
C        -0.24519477981105    3.02272291127020   -1.82308616330370
C         0.36643514376396    3.45792956944505   -0.59428177351760
C         1.74064009670815    3.01454722219930   -0.59425933402647
C        -1.56829205833959    2.59366542792251   -1.82366590722493
C        -1.95096538781572    1.43092752853070   -2.58180486333857
C        -2.95240685827341    0.71446038976117   -1.82971357566041
C        -3.18630415806833    1.43422379644892   -0.60509868332397
C        -2.32927637798178    2.59497169040384   -0.60132137479790
C        -2.94754506526652   -0.67313005777755   -1.82391405444887
C        -1.94410239546657   -1.40286442546858   -2.56150397187270
C        -1.58527622402766   -2.56555974461748   -1.79963026731950
C        -2.30667368088430   -2.55904727586024   -0.60742050910323
C        -3.17269142016400   -1.38977890440225   -0.59872192408106
C        -0.99841208662573   -0.71329160109820   -3.30239014224414
C        -0.99320180548013    0.72405697444618   -3.30061797729521
C         0.37942274041569    1.16763777902732   -3.29646704633613
C         1.22337490988637    0.00222195938508   -3.28765862798480
C         0.38284144139822   -1.16484842740713   -3.28531009498081
Cl       -1.93980801969369   -0.00660548094091    5.24287063977443
Cl       -0.38906216058057   -4.77802061432624   -2.87495725020283
Cl       -1.11517578775332    3.47405682024799    3.86762958120090
63
 energy: -142.080265861564 gnorm: 0.061417778158 xtb: 6.4.1 (a3dbbd7)
C        -1.29341538058910   -0.01598435811908    3.53339640736755
C        -0.36511950075423   -1.19155000941909    3.30946021915031
C         0.98646087386066   -0.73321416452165    3.28480700047252
C         0.97182076588240    0.71097492009780    3.27046277649006
C        -0.36388614145406    1.15725447366196    3.32884339982619
C         2.33860533457808   -2.57456941834833    0.59214505634805
C         3.18734163591537   -1.40673725998438    0.59002915984565
C         2.95395612258856   -0.68980731835701    1.81324042908692
C         1.96159229415074   -1.41795156867182    2.57042180284648
C         1.59047810982542   -2.57953881816436    1.81600438596864
C         3.18440385078408    1.42570704027935    0.58304403258621
C         2.34011516365165    2.59133472104428    0.57841569176323
C         1.57640700812039    2.57788761574256    1.79639658635828
C         1.95215979449533    1.41758666720245    2.55829526948791
C         2.94405404288583    0.70165364949597    1.81040756855866
C        -0.35675046772885    3.44418239880078    0.57805896291672
C        -1.73116710093506    3.00158522420452    0.57846091678433
C        -1.97299320319972    2.28361673256416    1.79265193747696
C        -0.75751828818323    2.35011674292772    2.64097784580422
C         0.25807301921944    2.99943891089542    1.78981732455143
C        -3.40764119312951    0.73472108232070    0.57054432314910
C        -3.39411352192449   -0.70201879015051    0.57202229499736
C        -2.76568808481086   -1.14028800010688    1.81000214733989
C        -2.40879552669588   -0.01485641388504    2.54687582740327
C        -2.76739535171672    1.15509534083108    1.79145075589878
C        -1.73883813629108   -3.00704396834162    0.60936796620545
C        -0.34678056312948   -3.44319685870531    0.58797128704160
C         0.26563771752011   -3.00149401548541    1.81012901934211
C        -0.72484098619359   -2.28841023196935    2.56733252263747
C        -1.96624906669172   -2.30934510972244    1.80131638200543
C        -0.25268634854787   -3.21721371344216   -1.93559975497786
C         0.75374599522307   -2.28687126181288   -2.57875015842530
C         1.95242965125217   -2.27070264432842   -1.81174062157927
C         1.72476985847491   -2.99298122639661   -0.58417753000140
C         0.37579335947637   -3.46189336854986   -0.57958678861453
C         2.78774565963186   -1.15285483171321   -1.81457993526560
C         2.41455008610392    0.00703292962860   -2.57170065945565
C         2.79667298636782    1.17514964700062   -1.82222436157830
C         3.41038812795556    0.73103989098064   -0.59639972603474
C         3.40739589480033   -0.71203554382554   -0.59351799222512
C         1.97604860334630    2.29655860440188   -1.82336689859426
C         0.74604377862616    2.29438403816240   -2.57972751292352
C        -0.24359637482301    3.02326350559833   -1.82954322620077
C         0.37205693796407    3.46052778278971   -0.60506218217550
C         1.74415324632334    3.01838303138653   -0.60372558125628
C        -1.56766950530033    2.59366429302320   -1.82898351583596
C        -1.95074590141662    1.43048681577971   -2.58498328844346
C        -2.95230026460497    0.71404508105567   -1.83206147788378
C        -3.18818214733351    1.43411642639294   -0.60942212461626
C        -2.33040218702225    2.59329740427923   -0.60804493471372
C        -2.94707964741959   -0.67398654134227   -1.82535585803551
C        -1.94442076720503   -1.40326773748807   -2.56246778018334
C        -1.58498421851639   -2.56602126628738   -1.79985573519575
C        -2.30666049059773   -2.56067412714727   -0.60843529401504
C        -3.17172567607964   -1.39076207126084   -0.59985437119316
C        -0.99770089866877   -0.71376818049606   -3.30328888874949
C        -0.99273530445860    0.72320384902961   -3.30278253259666
C         0.38004899994641    1.16670337593534   -3.29960960603495
C         1.22374741796279    0.00132420825385   -3.28957111151033
C         0.38315424340873   -1.16523856506444   -3.28659784158358
Cl       -1.94099427581136   -0.01726597495249    5.24378182344600
Cl       -0.38961770669735   -4.77766207743069   -2.87534312338534
Cl       -1.15538011948155    3.57952785889143    3.96980524885929
63
 energy: -142.086945052849 gnorm: 0.015684413529 xtb: 6.4.1 (a3dbbd7)
C        -1.28894478494666   -0.01683138028881    3.53044680456826
C        -0.36652541303547   -1.19760586615947    3.30734605986641
C         0.98155860362760   -0.73715063115055    3.27654303743937
C         0.95661921632796    0.71094460757531    3.25509375772674
C        -0.36025853355254    1.15367650311210    3.32816672480288
C         2.33795974610813   -2.57800077043125    0.59027395472414
C         3.18503205728111   -1.40781875769793    0.58911534423277
C         2.95181029327423   -0.69266314636273    1.80992889487482
C         1.95825253551556   -1.42148840053380    2.56624961469844
C         1.59043820820128   -2.58584763150538    1.81452560177136
C         3.18138064907476    1.42498915298036    0.57890130273757
C         2.33552190457071    2.58861206025025    0.57383097941674
C         1.57140895346723    2.58028332126934    1.79205510830620
C         1.95286351088000    1.41951780310685    2.55494559290366
C         2.93644807978465    0.70232922532981    1.80776321253109
C        -0.35112857087574    3.43693929596572    0.58058866314663
C        -1.72453242812756    2.99197331485997    0.58046449886014
C        -1.96945023175317    2.28446351213532    1.79329274429522
C        -0.77734245382397    2.42209313537168    2.70836741645990
C         0.26088742461763    3.01051626063687    1.79101404218214
C        -3.39618255355328    0.73298963642405    0.57071293814994
C        -3.38787210440894   -0.70336453842568    0.57119806830043
C        -2.76042391876615   -1.14234107127964    1.80952012305256
C        -2.40232133518959   -0.01850910108365    2.54641488984726
C        -2.75485267002616    1.15584318574310    1.79061361101820
C        -1.73862758792678   -3.01191814149234    0.60776023046679
C        -0.34662520471919   -3.44915027924983    0.58602778301202
C         0.26548848363487   -3.00951988215716    1.80943613584992
C        -0.72550019860230   -2.29729708897890    2.56718719124547
C        -1.96581079360244   -2.31647201637883    1.80037727373084
C        -0.25214044560040   -3.21993305670268   -1.93769268781349
C         0.75422461205352   -2.28904308584258   -2.58014398403401
C         1.95200304204142   -2.27292492610284   -1.81358251721192
C         1.72464036980987   -2.99579488141119   -0.58598677724421
C         0.37585651750519   -3.46531374128479   -0.58155476628667
C         2.78738085504243   -1.15444481191999   -1.81558002892583
C         2.41464259110475    0.00542467920774   -2.57419948520145
C         2.79725306603433    1.17416323119143   -1.82664888896205
C         3.40936293120544    0.72995864857012   -0.59935272549834
C         3.40663638740858   -0.71362164407271   -0.59626478235695
C         1.97799803142042    2.29668233321014   -1.82992848254461
C         0.74736350584410    2.29319572026060   -2.58557618313152
C        -0.24162683464792    3.02145210192818   -1.83303407819295
C         0.37478213601883    3.45810497466196   -0.60860295890911
C         1.74403398013099    3.01804056962120   -0.60996388090271
C        -1.56552809761737    2.59154274557608   -1.83216968801416
C        -1.94895917730616    1.42891919855166   -2.58818609986096
C        -2.95065312112263    0.71254231145308   -1.83430216317452
C        -3.18197899246485    1.43168151546915   -0.61096101557058
C        -2.32549873916283    2.58841315993669   -0.60870228415127
C        -2.94535995712703   -0.67589023519318   -1.82707298723280
C        -1.94339059153916   -1.40507713908250   -2.56377245028229
C        -1.58400393056389   -2.56819589527240   -1.80119992969318
C        -2.30584301162747   -2.56382785816759   -0.61037907837048
C        -3.16939290540246   -1.39263955811460   -0.60100987951005
C        -0.99624101865824   -0.71581871071328   -3.30536344386263
C        -0.99150811369904    0.72078009155859   -3.30641786251536
C         0.38120118109607    1.16461259451729   -3.30422931738932
C         1.22441460830598   -0.00103784714276   -3.29302991794616
C         0.38373718307489   -1.16746042684071   -3.28933544124455
Cl       -1.94562674098993   -0.02622751616554    5.23924289887293
Cl       -0.38981430981169   -4.77946929710063   -2.87803134601215
Cl       -1.18545966128184    3.65667327099923    4.05444659168712
63
 energy: -142.087354494526 gnorm: 0.009246270979 xtb: 6.4.1 (a3dbbd7)
C        -1.28875616608664   -0.01483724721966    3.53024191229409
C        -0.36762671280806   -1.19733591258344    3.30562471892100
C         0.97841042589280   -0.73576787579404    3.27055697715492
C         0.95015365734870    0.71453160518986    3.25043404102533
C        -0.36184896129138    1.15708577975481    3.32463155818889
C         2.33746994374108   -2.57974823998885    0.58904580750525
C         3.18336967589860   -1.40823130037490    0.58768353539383
C         2.94963982478521   -0.69315671887523    1.80731936041291
C         1.95575390957259   -1.42164417852367    2.56321039739309
C         1.59002151964504   -2.58810302218048    1.81356866513413
C         3.17817505571229    1.42431396118590    0.57705944867031
C         2.33148225518417    2.58730491526452    0.57350187449614
C         1.56959671370585    2.58452502843561    1.79466306573855
C         1.95370947328031    1.42170771844607    2.55447877162041
C         2.93254228650969    0.70258252832121    1.80628573609583
C        -0.34916020256223    3.43690786558057    0.58442690369822
C        -1.72183146388498    2.99010898394025    0.58399752032660
C        -1.96908851067726    2.29023686944145    1.80104799826499
C        -0.78324363292695    2.44301437047173    2.72605974498116
C         0.26008713704416    3.02085825811673    1.79992622840461
C        -3.38760822348124    0.73280522641615    0.57182082886024
C        -3.38292232645617   -0.70334762321410    0.57111653090666
C        -2.75778905678182   -1.14298526155612    1.80973368846842
C        -2.40134760305289   -0.01946579469694    2.54724139787151
C        -2.75071194624321    1.15858782943652    1.79386559014749
C        -1.73875676891351   -3.01462374817241    0.60704603776390
C        -0.34674765993040   -3.45257616839283    0.58526577931081
C         0.26509021250500   -3.01267859343306    1.80926701945385
C        -0.72570764622155   -2.30000826184640    2.56712523343963
C        -1.96551954822901   -2.31933651296576    1.80002072029619
C        -0.25190814237444   -3.22207676077887   -1.93912212861897
C         0.75426254473299   -2.29065032449235   -2.58143287924246
C         1.95164833970621   -2.27438433499224   -1.81487845914968
C         1.72445445238217   -2.99760021925272   -0.58719125213067
C         0.37569096661735   -3.46786369339197   -0.58260194441743
C         2.78704464362106   -1.15559028147830   -1.81691876336866
C         2.41479830701631    0.00428899313376   -2.57625807843606
C         2.79719507953293    1.17330476374256   -1.82892146907657
C         3.40786874404042    0.72930129998181   -0.60074914148522
C         3.40579803865908   -0.71454992950868   -0.59809316924167
C         1.97879577310586    2.29636801237442   -1.83230701053826
C         0.74811717895177    2.29240348997500   -2.58776085189492
C        -0.24035113919674    3.01957789584092   -1.83307131349880
C         0.37474268513958    3.45599605725441   -0.60767309740722
C         1.74329509434293    3.01704162883394   -0.61123813969145
C        -1.56348461702521    2.58959593908157   -1.83215958821888
C        -1.94757422807204    1.42789656969025   -2.58922156035217
C        -2.94869082369539    0.71146989741630   -1.83467229334738
C        -3.17681261274936    1.43031928982901   -0.61034907868027
C        -2.32080845931477    2.58603001455253   -0.60678203444653
C        -2.94352216069120   -0.67697693541532   -1.82753857436290
C        -1.94249125506062   -1.40655339626744   -2.56472517790005
C        -1.58354524962182   -2.57000598182149   -1.80231692681923
C        -2.30521916761217   -2.56581148754040   -0.61131144457822
C        -3.16715470545887   -1.39337815732114   -0.60121425452851
C        -0.99562915391935   -0.71721241353959   -3.30708628909714
C        -0.99085536695453    0.71942804720238   -3.30844725847253
C         0.38192511897221    1.16359863179709   -3.30670412499282
C         1.22485693768154   -0.00240370884694   -3.29550245922659
C         0.38401605215809   -1.16898706919220   -3.29122416901918
Cl       -1.94722407049196   -0.02728035303682    5.23883254601428
Cl       -0.38935353430441   -4.78096718942481   -2.88048172123671
Cl       -1.19494469846609    3.66960605257981    4.07243097395557
63
 energy: -142.087469338125 gnorm: 0.005393438943 xtb: 6.4.1 (a3dbbd7)
C        -1.28946675497535   -0.01382130930479    3.53023113097614
C        -0.36803760551749   -1.19653244405360    3.30486225772761
C         0.97682676059903   -0.73469907366502    3.26714447059328
C         0.94719512734479    0.71684208268480    3.24828277394565
C        -0.36302894621802    1.15876825754557    3.32095575128452
C         2.33733726589857   -2.58038242243307    0.58875704246234
C         3.18278021752218   -1.40824931983303    0.58711091930960
C         2.94886472227402   -0.69330133689697    1.80609581053515
C         1.95472984091285   -1.42149115116344    2.56193604344346
C         1.58976037112981   -2.58876694767141    1.81335659605408
C         3.17660646820346    1.42394803940097    0.57630556038079
C         2.32957280343238    2.58681258800682    0.57357591718322
C         1.56902549962109    2.58614494905289    1.79613958651485
C         1.95529484906724    1.42273513376007    2.55447136128314
C         2.93126172248489    0.70263220434341    1.80579951014202
C        -0.34799479288820    3.43631937166936    0.58633872672051
C        -1.72025396599526    2.98841947018035    0.58549860602539
C        -1.96827761956980    2.29238134207286    1.80545377111393
C        -0.78579643375607    2.45060505114492    2.73256084789213
C         0.25962783976323    3.02561437769104    1.80535013104829
C        -3.38344888408439    0.73273050732112    0.57212061540780
C        -3.38064111870549   -0.70327084050627    0.57101650366749
C        -2.75730018993695   -1.14351971567557    1.80997747361197
C        -2.40221974347803   -0.02039494880408    2.54788700764869
C        -2.74872952007871    1.15940312545671    1.79517229697291
C        -1.73921195534343   -3.01571821271116    0.60683636287885
C        -0.34704317160847   -3.45382032047835    0.58516029872103
C         0.26469874721941   -3.01357577859086    1.80947745523852
C        -0.72595169690996   -2.30095078565701    2.56729436242155
C        -1.96570879339658   -2.32057178935288    1.80006927785953
C        -0.25203030466587   -3.22264625130530   -1.93952270125037
C         0.75411443966339   -2.29087551379803   -2.58161531498535
C         1.95136757325916   -2.27460719654214   -1.81515054166802
C         1.72429863572026   -2.99803107159650   -0.58742580702354
C         0.37542037745323   -3.46860677558522   -0.58276916651341
C         2.78700196410304   -1.15583584360258   -1.81740903553125
C         2.41499114106491    0.00400248751063   -2.57717996589638
C         2.79726822634315    1.17300747656809   -1.82980384826262
C         3.40740906178338    0.72918123454682   -0.60119737498299
C         3.40562533543105   -0.71484161965586   -0.59882369038952
C         1.97941584829558    2.29632612865758   -1.83329586569393
C         0.74862689205037    2.29224542366604   -2.58851559482448
C        -0.23976638320997    3.01842884158438   -1.83265303871031
C         0.37454155719420    3.45440215170038   -0.60685677353601
C         1.74324813153725    3.01658813539841   -0.61155766675076
C        -1.56251604571154    2.58847794609211   -1.83196160166168
C        -1.94731154614405    1.42756791173896   -2.58977721416405
C        -2.94812114768023    0.71099371050316   -1.83504089365387
C        -3.17474316792639    1.42962025545456   -0.61012747260594
C        -2.31826741942595    2.58457199790572   -0.60572200118195
C        -2.94286719834411   -0.67737229023197   -1.82775743276307
C        -1.94227127983409   -1.40708088488470   -2.56516123258816
C        -1.58368411546343   -2.57062926621712   -1.80279230506468
C        -2.30525421730455   -2.56655455607143   -0.61159872109047
C        -3.16659343775847   -1.39366484738804   -0.60134235675957
C        -0.99554239927855   -0.71753933514748   -3.30790554497360
C        -0.99077007057698    0.71911283853681   -3.30941800916645
C         0.38221240581729    1.16348560225213   -3.30771717887619
C         1.22505708401344   -0.00266248993613   -3.29651766554564
C         0.38398995174762   -1.16926785820889   -3.29185448579758
Cl       -1.94573676099565   -0.02458904106982    5.23947658660417
Cl       -0.38877570408160   -4.78118684387588   -2.88153718795612
Cl       -1.19903223715694    3.66834826663584    4.07486859293098
63
 energy: -142.087520848915 gnorm: 0.002975820346 xtb: 6.4.1 (a3dbbd7)
C        -1.28987708687439   -0.01352063088917    3.53000120103384
C        -0.36811660970898   -1.19616943172568    3.30473493467111
C         0.97613241121228   -0.73436818747653    3.26576455788748
C         0.94609142846957    0.71781445163198    3.24728133691103
C        -0.36332954403975    1.15911722764381    3.31774918499546
C         2.33729039218660   -2.58046233549517    0.58890817547979
C         3.18266960880934   -1.40811754609577    0.58716049208415
C         2.94884512369012   -0.69333723321782    1.80584418389300
C         1.95449216793458   -1.42142771173523    2.56178881536510
C         1.58955994028306   -2.58874868516079    1.81347969389699
C         3.17620156119449    1.42389899074372    0.57620139315287
C         2.32899096452975    2.58680568536887    0.57368650305013
C         1.56888168945048    2.58619216098806    1.79643995850551
C         1.95668291407007    1.42306668881491    2.55460461581641
C         2.93125990902296    0.70268890599875    1.80593064618839
C        -0.34734158829203    3.43547234426869    0.58688639138624
C        -1.71940447817094    2.98698796568488    0.58566105743626
C        -1.96718079795295    2.29198385504325    1.80676472561636
C        -0.78697712584642    2.45291424277922    2.73494599080690
C         0.25958303031195    3.02674913149955    1.80740367967289
C        -3.38214649595714    0.73265339162347    0.57202457603409
C        -3.38012301481512   -0.70328288152542    0.57094372646385
C        -2.75773814640835   -1.14391027585676    1.81017182601094
C        -2.40329028603667   -0.02110104318550    2.54826720213350
C        -2.74788354721281    1.15914159682530    1.79515957634089
C        -1.73966264155208   -3.01591874224014    0.60682717071867
C        -0.34731829554515   -3.45390505501760    0.58522833026551
C         0.26436214007083   -3.01346844510422    1.80969471644592
C        -0.72622700980308   -2.30121908846324    2.56741435153050
C        -1.96608182462471   -2.32099675961543    1.80022494815176
C        -0.25219711264260   -3.22243817433487   -1.93941494320996
C         0.75398401339783   -2.29054170420784   -2.58132820682849
C         1.95117163555732   -2.27434423352089   -1.81494443166706
C         1.72416608139245   -2.99784529023534   -0.58723521690611
C         0.37518845650435   -3.46847114166878   -0.58258612811242
C         2.78704608872950   -1.15568364829205   -1.81733084189459
C         2.41506556092145    0.00412814350978   -2.57726357823018
C         2.79731568711474    1.17305128915093   -1.82986180184017
C         3.40750381041125    0.72933895391880   -0.60110390852139
C         3.40569833802647   -0.71481225229225   -0.59886798684030
C         1.97977667258269    2.29648617181852   -1.83354188614927
C         0.74887208229762    2.29239691773094   -2.58852278888149
C        -0.23961856640733    3.01802507355538   -1.83223704397704
C         0.37441453870718    3.45368871141905   -0.60646434776177
C         1.74350029150346    3.01659063458544   -0.61155302169110
C        -1.56228894798011    2.58813469697231   -1.83183556600148
C        -1.94752963671203    1.42763742966962   -2.58997133273563
C        -2.94831048183374    0.71094346988304   -1.83535119553825
C        -3.17451942815376    1.42939368696680   -0.61017408093433
C        -2.31738800109992    2.58396544698333   -0.60538950791665
C        -2.94287274736647   -0.67735843879777   -1.82782718189830
C        -1.94233996683181   -1.40706940189214   -2.56518202707541
C        -1.58393755706472   -2.57059040823916   -1.80284082679705
C        -2.30553300125753   -2.56663925495817   -0.61159121832815
C        -3.16691113505502   -1.39374284759050   -0.60143910976202
C        -0.99561007566110   -0.71735734958448   -3.30801411934244
C        -0.99087621521236    0.71925663149868   -3.30959519883989
C         0.38224285733331    1.16371737518516   -3.30780087860694
C         1.22505828217036   -0.00244848116194   -3.29654117369233
C         0.38387204392469   -1.16903400637351   -3.29180179334908
Cl       -1.94277322850540   -0.02041498873919    5.23993244413691
Cl       -0.38830817407556   -4.78086865721542   -2.88165546501279
Cl       -1.20043072018101    3.66203188731448    4.07171636099128
63
 energy: -142.087536942994 gnorm: 0.001804179895 xtb: 6.4.1 (a3dbbd7)
C        -1.28983167696446   -0.01363160031361    3.52979822965732
C        -0.36807165020235   -1.19627203441009    3.30494360677303
C         0.97619863217223   -0.73462795092171    3.26611613214084
C         0.94639702125611    0.71758674099537    3.24725269295678
C        -0.36292931441600    1.15868758018716    3.31643620906783
C         2.33727469254313   -2.58028944465511    0.58910372207394
C         3.18278545974999   -1.40800969102846    0.58743485432420
C         2.94915176612312   -0.69330598774661    1.80613513751609
C         1.95470405429859   -1.42146342344884    2.56215991957846
C         1.58950963328793   -2.58852535639814    1.81363972744665
C         3.17655280247480    1.42404736376080    0.57639315838414
C         2.32925644297050    2.58698635660630    0.57373146365713
C         1.56896851166028    2.58575384251951    1.79612841087795
C         1.95714895812834    1.42300812719528    2.55474297663534
C         2.93175412276002    0.70278677913855    1.80623696144044
C        -0.34728038584093    3.43519381817629    0.58663078738039
C        -1.71936374471827    2.98663366433861    0.58525213540064
C        -1.96667551138281    2.29084085464047    1.80594129034525
C        -0.78721339344357    2.45263057748904    2.73515811329457
C         0.25979603825794    3.02602714735854    1.80684471732261
C        -3.38276565933158    0.73261893584242    0.57186778486546
C        -3.38065200140878   -0.70333964210378    0.57093726393842
C        -2.75823789917818   -1.14397695730217    1.81022572143437
C        -2.40373009346711   -0.02123560243441    2.54835789167950
C        -2.74811591811613    1.15873465733149    1.79471868845576
C        -1.73981534686841   -3.01567670421620    0.60688650140131
C        -0.34739895856260   -3.45352917000366    0.58528431501117
C         0.26425546511809   -3.01309724248251    1.80975889646030
C        -0.72637487711377   -2.30108680048623    2.56737618338137
C        -1.96631297497654   -2.32088631730980    1.80031659464158
C        -0.25224852487099   -3.22213528093901   -1.93921408352823
C         0.75397106491041   -2.29028750364040   -2.58109531716154
C         1.95114672735103   -2.27413811362503   -1.81472778449769
C         1.72413340530850   -2.99759349932653   -0.58703630408576
C         0.37512983664607   -3.46813805650557   -0.58241822355126
C         2.78708783436698   -1.15551303033242   -1.81707806958051
C         2.41502964870602    0.00430360773601   -2.57696368337604
C         2.79729969952616    1.17319609600704   -1.82958994160284
C         3.40772913846093    0.72949715673519   -0.60087897825110
C         3.40580546824357   -0.71469943858161   -0.59864242031044
C         1.97978506160651    2.29663851951164   -1.83337324413115
C         0.74884298896754    2.29254941160647   -2.58826245257772
C        -0.23971951034715    3.01821144203547   -1.83211031974348
C         0.37442912913165    3.45389995974978   -0.60650398667206
C         1.74368806591446    3.01678489378792   -0.61145897262883
C        -1.56248547246984    2.58835795537448   -1.83185377001944
C        -1.94773350479306    1.42781287495977   -2.58990251496203
C        -2.94863075355554    0.71110840871457   -1.83543069431730
C        -3.17510979333329    1.42950429260578   -0.61028745910370
C        -2.31773039048821    2.58412985134656   -0.60554733402342
C        -2.94310294353636   -0.67720139087730   -1.82780216785744
C        -1.94245382010287   -1.40689027978176   -2.56503012719358
C        -1.58403511837630   -2.57036099203171   -1.80270728639473
C        -2.30572715752811   -2.56647427779756   -0.61150727775282
C        -3.16734129117952   -1.39370666861276   -0.60147429172985
C        -0.99565689109785   -0.71714252406258   -3.30777908252887
C        -0.99094424511930    0.71943466348317   -3.30934427759315
C         0.38216855326962    1.16388213016395   -3.30748575955029
C         1.22498765434039   -0.00224296705464   -3.29618127425681
C         0.38381155664643   -1.16881974680946   -3.29156763253374
Cl       -1.94101213732488   -0.01778413676896    5.23989494351664
Cl       -0.38826166929441   -4.78064630791801   -2.88130574038665