108
 energy: -321.680573333397 gnorm: 1.692600052131 xtb: 6.4.1 (a3dbbd7)
C        -1.23626340000000    0.00000000000000    3.32997640000000
C        -0.38202640000000   -1.17575640000000    3.32997640000000
C         1.00015810000000   -0.72665740000000    3.32997640000000
C         1.00015810000000    0.72665740000000    3.32997640000000
C        -0.38202640000000    1.17575640000000    3.32997640000000
C         2.34433560000000   -2.60145750000000    0.59464210000000
C         3.19857260000000   -1.42570110000000    0.59464210000000
C         2.96246730000000   -0.69904370000000    1.83090550000000
C         1.96230920000000   -1.42570110000000    2.59495830000000
C         1.58028280000000   -2.60145750000000    1.83090550000000
C         3.19857260000000    1.42570110000000    0.59464210000000
C         2.34433560000000    2.60145750000000    0.59464210000000
C         1.58028280000000    2.60145750000000    1.83090550000000
C         1.96230920000000    1.42570110000000    2.59495830000000
C         2.96246730000000    0.69904370000000    1.83090550000000
C        -0.36750900000000    3.48258920000000    0.59464210000000
C        -1.74969350000000    3.03349030000000    0.59464210000000
C        -1.98579880000000    2.30683290000000    1.83090550000000
C        -0.74953540000000    2.30683290000000    2.59495830000000
C         0.25062270000000    3.03349030000000    1.83090550000000
C        -3.42570570000000    0.72665740000000    0.59464210000000
C        -3.42570570000000   -0.72665740000000    0.59464210000000
C        -2.80757400000000   -1.17575640000000    1.83090550000000
C        -2.42554760000000    0.00000000000000    2.59495830000000
C        -2.80757400000000    1.17575640000000    1.83090550000000
C        -1.74969350000000   -3.03349030000000    0.59464210000000
C        -0.36750900000000   -3.48258920000000    0.59464210000000
C         0.25062270000000   -3.03349030000000    1.83090550000000
C        -0.74953540000000   -2.30683290000000    2.59495830000000
C        -1.98579880000000   -2.30683290000000    1.83090550000000
C        -0.25062270000000   -3.03349030000000   -1.83090550000000
C         0.74953540000000   -2.30683290000000   -2.59495830000000
C         1.98579880000000   -2.30683290000000   -1.83090550000000
C         1.74969350000000   -3.03349030000000   -0.59464210000000
C         0.36750900000000   -3.48258920000000   -0.59464210000000
C         2.80757400000000   -1.17575640000000   -1.83090550000000
C         2.42554760000000    0.00000000000000   -2.59495830000000
C         2.80757400000000    1.17575640000000   -1.83090550000000
C         3.42570570000000    0.72665740000000   -0.59464210000000
C         3.42570570000000   -0.72665740000000   -0.59464210000000
C         1.98579880000000    2.30683290000000   -1.83090550000000
C         0.74953540000000    2.30683290000000   -2.59495830000000
C        -0.25062270000000    3.03349030000000   -1.83090550000000
C         0.36750900000000    3.48258920000000   -0.59464210000000
C         1.74969350000000    3.03349030000000   -0.59464210000000
C        -1.58028280000000    2.60145750000000   -1.83090550000000
C        -1.96230920000000    1.42570110000000   -2.59495830000000
C        -2.96246730000000    0.69904370000000   -1.83090550000000
C        -3.19857260000000    1.42570110000000   -0.59464210000000
C        -2.34433560000000    2.60145750000000   -0.59464210000000
C        -2.96246730000000   -0.69904370000000   -1.83090550000000
C        -1.96230920000000   -1.42570110000000   -2.59495830000000
C        -1.58028280000000   -2.60145750000000   -1.83090550000000
C        -2.34433560000000   -2.60145750000000   -0.59464210000000
C        -3.19857260000000   -1.42570110000000   -0.59464210000000
C        -1.00015810000000   -0.72665740000000   -3.32997640000000
C        -1.00015810000000    0.72665740000000   -3.32997640000000
C         0.38202640000000    1.17575640000000   -3.32997640000000
C         1.23626340000000    0.00000000000000   -3.32997640000000
C         0.38202640000000   -1.17575640000000   -3.32997640000000
C        -1.76086815247998    0.00000000000000    4.78849957557021
F        -0.76911826531252    0.00000000000000    5.67468926254662
F        -2.50968386795825   -1.06794314680471    5.04863888333743
F        -2.50968386795825    1.06794314680471    5.04863888333743
C         2.50473491433418   -4.35941144902977   -0.86730593917895
F         2.08438487052912   -4.95213043104453   -1.98125838386969
F         3.81390519137296   -4.16837996597314   -1.00324768478856
F         2.34400857369757   -5.23632280881804    0.11965581818547
C         1.42457227037960   -1.03501233722714    4.78849957248258
F         0.62223011468481   -0.45207589682711    5.67468926529602
F         1.40265511061956   -2.33913928186680    5.04863905501621
F         2.65809836182651   -0.61117154425495    5.04863869666890
C         3.37204091334889   -3.72927672645244    0.86730596148276
F         4.06564647311728   -3.51265957144659    1.98125763710228
F         4.25569947457670   -3.84739838595791   -0.11965645964809
F         2.78580317558591   -4.91533944031226    1.00324916143779
C         3.37204091334889    3.72927672645244    0.86730596148276
F         4.06564647311728    3.51265957144659    1.98125763710228
F         4.25569947457670    3.84739838595791   -0.11965645964809
F         2.78580317558591    4.91533944031226    1.00324916143779
C        -2.82790274436383    2.05459160758554   -3.71645040671519
F        -3.82797483682855    2.78118494419178   -3.22571836876305
F        -2.11749631416700    2.85850222732984   -4.50254863174647
F        -3.37293748548841    1.13053297859378   -4.50255013394648
C        -1.08016271022039    3.32439912180418    3.71645041587937
F        -1.46215754230407    4.50005299330749    3.22571838851551
F        -2.06425285383526    2.89718320022386    4.50255037491024
F        -0.03290491502764    3.55721032900471    4.50254840735999
C        -4.25247495652193   -1.01957928511255   -2.62817407757680
F        -4.45020405360857   -2.32910962270745   -2.75037677428973
F        -4.21414295278389   -0.51936236815949   -3.85992636334022
F        -5.33704498641440   -0.51936149478962   -2.04303305824599
C        -4.92005227074660    1.03501232949151    0.86730592957069
F        -5.35386609588658    0.45207588830481    1.98125865327758
F        -5.70437742108406    0.61117153086585   -0.11965558739362
F        -5.14292645153878    2.33913927311179    1.00324714649869
C         0.54413818249354    1.67468516033722   -4.78849957845317
F         0.23767107904745    0.73147481112462   -5.67468925997942
F        -0.24013968171955    2.71686350152345   -5.04863903502921
F         1.79120914301982    2.05683909935453   -5.04863874564184
C        -0.53602450593361   -4.99908416128281    0.86730591619822
F        -1.22448605650957   -5.23152837615597    1.98125850960180
F        -1.18149064144157   -5.61404773804446   -0.11965571789346
F         0.63540201352706   -5.61404743764837    1.00324736766175
C        -1.08016271022039   -3.32439912180418    3.71645041587937
F        -1.46215754230407   -4.50005299330749    3.22571838851551
F        -0.03290491502764   -3.55721032900471    4.50254840735999
F        -2.06425285383526   -2.89718320022386    4.50255037491024
108
 energy: -322.555025937428 gnorm: 1.528923261283 xtb: 6.4.1 (a3dbbd7)
C        -1.24024134521847    0.00058244111192    3.33711119182626
C        -0.38049321355618   -1.16874977358143    3.33534795451044
C         1.00263115687791   -0.72652141451395    3.33508254824157
C         0.99427419549459    0.73859406814160    3.33442811534428
C        -0.36062416826810    1.16541380626725    3.33175303161582
C         2.33398624131279   -2.56584386121882    0.60237699167863
C         3.20481439841673   -1.41327892067479    0.59821294832766
C         2.95774318366395   -0.70052056764822    1.83011868480827
C         1.97487966812916   -1.43010271797318    2.57654003488785
C         1.57335685731474   -2.59279956531858    1.83825640401123
C         3.19630987902676    1.40827754635504    0.59740084136161
C         2.36064631501948    2.60789217453925    0.59916920071676
C         1.57255639790596    2.60044617395518    1.83679912529807
C         1.96146143399399    1.43190159093354    2.58979230910965
C         2.95918378574170    0.70212909373873    1.82915927027440
C        -0.36668629049120    3.48014198884386    0.59712332769141
C        -1.74674738039024    3.03141816137410    0.59792817479842
C        -1.98842137639460    2.31171006342619    1.81804904466820
C        -0.75370663159219    2.31925165713376    2.60844742980042
C         0.25531848781584    3.03167114435488    1.81731205820467
C        -3.43993082209451    0.72796978191846    0.59870765301250
C        -3.42923094667966   -0.73944970219360    0.59633934397536
C        -2.80773720468355   -1.17302406410312    1.82428428021584
C        -2.43573371304943    0.00348485193757    2.57217469871157
C        -2.79200627811614    1.17105477287272    1.83403282902789
C        -1.75891478637612   -3.01698622124623    0.59767804214417
C        -0.37318795276318   -3.49359575697120    0.59864343233487
C         0.25883189342407   -3.02611006784646    1.82787577661738
C        -0.75636444911945   -2.31645597847490    2.60634773087585
C        -1.99191995269838   -2.30871193712550    1.81584652750916
C        -0.24796368247452   -3.02800328328052   -1.83451680146674
C         0.74657856759664   -2.30608881817603   -2.59443626376553
C         1.98265285561055   -2.29996331884893   -1.84073122601096
C         1.72217939162190   -3.00486630484552   -0.60570481918401
C         0.36456823655607   -3.48816361785454   -0.61563829876411
C         2.81013877925513   -1.16826309516078   -1.83111287161483
C         2.42614659049545    0.00044633942472   -2.59201325386782
C         2.80724341254068    1.17389311216578   -1.83074103010486
C         3.42269822064164    0.72420705811301   -0.59654263556459
C         3.42551686465811   -0.72211853356568   -0.60211347431117
C         1.97920924683430    2.30751295872650   -1.82802867927072
C         0.75116025824738    2.31698884687708   -2.57619893454214
C        -0.24604502516266    3.03124851510453   -1.82840865689023
C         0.37200929904917    3.47876276429216   -0.59585364466214
C         1.73465281097938    3.03197812622879   -0.60896840515936
C        -1.57339149482931    2.60436663079636   -1.81651319343600
C        -1.97823579788699    1.43797427574467   -2.60802891852543
C        -2.97008104646719    0.71165997950199   -1.81718683586313
C        -3.17972000842791    1.42563187582988   -0.61453481520888
C        -2.33957789514303    2.60202654478297   -0.60091209194197
C        -2.97222839724480   -0.70931360164719   -1.83420692204986
C        -1.94921638420311   -1.43387657476944   -2.59154274572539
C        -1.58135265922680   -2.59414639133519   -1.83282790424588
C        -2.34448823754884   -2.59663618947785   -0.59409694593322
C        -3.18940813536213   -1.43056848154134   -0.57917026419859
C        -0.99602484532006   -0.72205375720889   -3.33017082413470
C        -0.99477976288682    0.70580669423269   -3.33035984996394
C         0.38517493807394    1.17581821844524   -3.33384839716857
C         1.24037585634763   -0.01307113027258   -3.33122595402360
C         0.38480443068175   -1.17199613203372   -3.32844536043839
C        -1.78547245214010    0.00374794843756    4.78947580679093
F        -0.88243485393280    0.04402366345832    5.69671404552928
F        -2.52508003810749   -1.05527571055854    5.05566628466229
F        -2.53035759666251    1.05876813156378    5.05180239248124
C         2.46775316579617   -4.33489406719915   -0.89295127284616
F         2.08426242171976   -4.95752041446447   -1.98898907681447
F         3.87162724783565   -4.18894250554283   -1.09370927903412
F         2.31322851860295   -5.32996220431037    0.10089535177012
C         1.44709856030203   -1.04195111139685    4.78847572739834
F         0.74003622542909   -0.48341289695774    5.69689908203614
F         1.42489656114656   -2.33738300810239    5.05498791947333
F         2.67564447144314   -0.61212314313111    5.04512439894142
C         3.36103339630778   -3.68204552206409    0.89108675148946
F         4.07151364483531   -3.51354891645732    1.98889361947293
F         4.35882167537695   -3.82912651099081   -0.10658503474477
F         2.79069764488252   -4.97399652000266    1.08997330796751
C         3.37781378390486    3.73537165081341    0.86948551677070
F         4.06958224030500    3.51458447818638    1.98415217745398
F         4.25885630052083    3.84883037802363   -0.12112727433448
F         2.78588631286217    4.91844174515408    1.00373155839831
C        -2.83646435200641    2.06153441294196   -3.72146018381316
F        -3.83396036712773    2.78434575730765   -3.22556307673163
F        -2.13559620265532    2.86636575226750   -4.50085830369544
F        -3.36704094957230    1.14559012689056   -4.51454741562585
C        -1.08128565381392    3.33387284559774    3.72196281051010
F        -1.46232513870115    4.50578537658061    3.22550454583472
F        -2.06395363296399    2.91788155478314    4.50100288061686
F        -0.03051580506001    3.55923674056064    4.50485127093163
C        -4.26020943685749   -1.02494470984696   -2.63063066540747
F        -4.45329449350365   -2.33487930708541   -2.75094655520597
F        -4.22451807743170   -0.53678251522685   -3.85930897853751
F        -5.34054217368771   -0.52168035934931   -2.04601729390791
C        -4.92881724949843    1.03699240730404    0.87012983795867
F        -5.35736037464808    0.45135314841323    1.98427733195312
F        -5.70877842829542    0.61288692598760   -0.11721154024525
F        -5.14456618558594    2.34194663299728    1.00407717995027
C         0.54616405469287    1.67508655203000   -4.79489193258695
F         0.23802818439927    0.72987464148685   -5.67953038831850
F        -0.22128534544336    2.71969559210766   -5.05723058615618
F         1.79502177716931    2.05632930769311   -5.05039922336534
C        -0.54265684825575   -5.00631383573665    0.84913360882934
F        -1.21774927561892   -5.31130649159418    1.88635702313342
F        -1.17982383705460   -5.62082800623822   -0.13625079707523
F         0.63326367966562   -5.62928907059659    1.00991087922274
C        -1.08387816297090   -3.31459280546693    3.73708530526415
F        -1.49400763808944   -4.45998858826040    3.33596307672369
F        -0.03987183480119   -3.57115937625617    4.50528304432839
F        -2.06648898509431   -2.90727049914043    4.50973972146730
108
 energy: -323.535980346899 gnorm: 1.096635039109 xtb: 6.4.1 (a3dbbd7)
C        -1.24522298006662    0.00046940048557    3.36237368076250
C        -0.37714920665932   -1.16024414973838    3.32557314258915
C         1.00784238047400   -0.72849432475728    3.36302375119148
C         0.97799279304710    0.75098549867392    3.31987960691906
C        -0.33387718876363    1.15229411900184    3.31934868141882
C         2.34539746447106   -2.55994234129365    0.61623312581768
C         3.20701101448354   -1.39855715324300    0.60071123460508
C         2.95033688804347   -0.70561346289830    1.82925075477224
C         1.98915449600479   -1.43371594826593    2.55732250254926
C         1.56060089673684   -2.57473464696284    1.84509858413357
C         3.19271032444381    1.39068508481342    0.60005430038749
C         2.38180717559327    2.62643613666561    0.60732664191896
C         1.56172405577282    2.58720849568981    1.84382044773174
C         1.96322036278587    1.43696434025356    2.58168895672380
C         2.95683557659021    0.70852867283071    1.82552087535517
C        -0.36611488703829    3.47531546724928    0.60143194818494
C        -1.74364301901199    3.02715711234430    0.60475451201833
C        -1.99145861770657    2.30823760704500    1.80109842656322
C        -0.76068670364053    2.34348363234149    2.62543666987593
C         0.26197620741022    3.03001507460777    1.80019076179483
C        -3.47312868910920    0.73117618295771    0.60743968561670
C        -3.41402805908507   -0.75270322309986    0.59451332349794
C        -2.80623627042317   -1.16769855887422    1.81870537715036
C        -2.44709562665448    0.00901028713188    2.54847441364564
C        -2.77554180026295    1.16181787336208    1.83993330307052
C        -1.76860657726925   -2.99719479942300    0.60131866018503
C        -0.37940869979885   -3.52152970160056    0.60865284908333
C         0.27221700615365   -3.01479801483548    1.82271508510228
C        -0.76314195101736   -2.33702476092780    2.61877407224881
C        -1.99655870765154   -2.30423252557241    1.79569006468268
C        -0.24299918337475   -3.02256833937405   -1.83493003800042
C         0.74491246032372   -2.30536890306793   -2.59280277486022
C         1.97856174691006   -2.28952401502128   -1.85308108295456
C         1.70803103632190   -3.00154815647393   -0.62144853819990
C         0.36210608520310   -3.47690006085135   -0.63740180542951
C         2.80898930946994   -1.16143948085787   -1.82944702626457
C         2.42754897869764   -0.00031520648672   -2.58695347663356
C         2.80700343585913    1.17117580654369   -1.82930784231971
C         3.42136038386591    0.72087729705732   -0.59885172521391
C         3.42466698461620   -0.71758501767826   -0.60581692172687
C         1.97171928883292    2.30624240651037   -1.82427238903313
C         0.75136044258144    2.32897070709013   -2.55734215144178
C        -0.23981767015995    3.02774219314020   -1.82958837423327
C         0.37965278107309    3.47649075938622   -0.59792295398453
C         1.71559492039977    3.03147557429205   -0.62474232098425
C        -1.56706532195040    2.60863708499525   -1.79835457782363
C        -1.99629130878029    1.45398909248982   -2.62389783260437
C        -2.96170247395657    0.72587904370249   -1.78698636260960
C        -3.15895715948342    1.42333831179755   -0.63695480690314
C        -2.33455179873160    2.60116624940410   -0.60951616562645
C        -2.99721031708735   -0.72203815700281   -1.84783984957913
C        -1.93562204106767   -1.44487983221758   -2.58594517885682
C        -1.58460557104109   -2.58623261310085   -1.83675202637117
C        -2.34559975458191   -2.59106210439877   -0.59444766719839
C        -3.17819899146503   -1.43568304761750   -0.56414141594762
C        -0.99090094081640   -0.71262946591006   -3.32462578791778
C        -0.98906554265335    0.67881994643933   -3.32340035143657
C         0.38779751021479    1.17851747499846   -3.36017727103284
C         1.24225488879719   -0.02919587240942   -3.31977361833551
C         0.38931789711288   -1.16762697422900   -3.32757969356766
C        -1.79570568929604    0.00391673255628    4.79781646514222
F        -0.96342992533102    0.07477224075243    5.71022107029430
F        -2.53470285329086   -1.04173781252087    5.06174384633016
F        -2.54198734928826    1.04656859117635    5.05664342077042
C         2.40975808534197   -4.30779456125835   -0.93128236091183
F         2.08357134269895   -4.96255877359003   -1.99753400488435
F         3.88415723307323   -4.24024513344801   -1.26395707648744
F         2.25809984071383   -5.43769105851093    0.00393046047094
C         1.45507608746379   -1.04506788624004    4.79691929454595
F         0.82435810538493   -0.50671137051528    5.71097533411459
F         1.44172233131295   -2.33249579836512    5.06112722215113
F         2.68397005453032   -0.61061141491145    5.04403630702832
C         3.35028730276490   -3.61496683350401    0.92655176454155
F         4.07687456306875   -3.51635867534707    1.99706135345259
F         4.49521368637752   -3.77553660740245   -0.00932855459128
F         2.82429407615215   -5.00590873122146    1.24868531450422
C         3.38464805402235    3.74313922408651    0.87206301248691
F         4.07281534390738    3.51577680181725    1.98691580671532
F         4.26155728710498    3.84978466969896   -0.12280398597310
F         2.78566744803923    4.92113591993117    1.00420649638249
C        -2.84416484550907    2.06762621613167   -3.72728966826536
F        -3.83826124321033    2.78701941083315   -3.22498078752220
F        -2.15275144537955    2.87228370206352   -4.49851957462886
F        -3.36008247370515    1.15994036479323   -4.52464402722231
C        -1.08336977593516    3.34352598371875    3.72937148626454
F        -1.46287684870946    4.51042676055936    3.22525507512458
F        -2.06244393401009    2.93686358930287    4.49835403463312
F        -0.02787452184954    3.56049184695054    4.50686493219696
C        -4.27070964559907   -1.02899311128136   -2.63597720655204
F        -4.45565964393425   -2.33969366081025   -2.75177128552156
F        -4.23389784617892   -0.55285097880314   -3.85791420619351
F        -5.34323655426659   -0.52331958685333   -2.04898821496373
C        -4.94097214670596    1.03948267799489    0.87307987591025
F        -5.36026816077792    0.45045662389376    1.98721483458848
F        -5.71267758270594    0.61462950067502   -0.11499526608954
F        -5.14585725467523    2.34497918302364    1.00469467220255
C         0.54722720773485    1.67763843331217   -4.80639993873649
F         0.23800597088559    0.72793861469476   -5.68413288428128
F        -0.20325281488813    2.72190317354164   -5.06488229686729
F         1.79868962644484    2.05653906544282   -5.05176637422349
C        -0.55433865613124   -5.01096858703601    0.84614482979394
F        -1.21165907004250   -5.36741235712101    1.81730524112933
F        -1.18020204545945   -5.62370200733021   -0.14369939552090
F         0.62489398199875   -5.63887564260389    1.02198246335064
C        -1.08621219849827   -3.31591194360505    3.74741548125653
F        -1.51567455135961   -4.42935731513107    3.41365092081555
F        -0.04782950646527   -3.58559024366236    4.50293085102173
F        -2.06646853153100   -2.92219615811626    4.50834439218907
108
 energy: -323.978321881631 gnorm: 0.488193781494 xtb: 6.4.1 (a3dbbd7)
C        -1.25328188920187    0.00156608995817    3.38652384175256
C        -0.37360200456923   -1.15324092996730    3.31817527904523
C         1.01501567913614   -0.72989490610847    3.38231979516542
C         0.97161795042077    0.76005106192873    3.31637529282988
C        -0.31676128080854    1.14475250492531    3.30966784679224
C         2.37643834940828   -2.58754651149565    0.62541016718159
C         3.20476254702250   -1.37574936040596    0.59558363011722
C         2.94849145204498   -0.70534608176083    1.82620911066671
C         1.99689664003827   -1.43099404623765    2.54058252454145
C         1.54645281381630   -2.56149207702251    1.84275487705333
C         3.18670290355070    1.37643830970324    0.60255762401725
C         2.40152386068292    2.64147467262998    0.61318841382801
C         1.55650933383380    2.57976865583831    1.84650979773884
C         1.96518994550612    1.44419551012805    2.57609186910270
C         2.95472654145869    0.71467582195694    1.82292764772036
C        -0.36489911274854    3.47187868474413    0.60394258098723
C        -1.73953854912723    3.02525455240881    0.60785523560225
C        -1.99085972970171    2.30895321608639    1.78830894834330
C        -0.76668504218278    2.36406394129170    2.64299855337573
C         0.26403104236957    3.02790830553911    1.78699506430831
C        -3.50106907242468    0.73469795192374    0.61276364331438
C        -3.41083088858795   -0.76059251373331    0.59440681805459
C        -2.80593479225546   -1.16470632721436    1.81230816522143
C        -2.45074855010578    0.01221593976987    2.52752258687597
C        -2.76010928024645    1.15569429963401    1.83774265159953
C        -1.77329455749188   -2.98213905807311    0.60300184144919
C        -0.38647818843443   -3.54628504089332    0.61235037079371
C         0.28085251693049   -2.99973812738462    1.81414012668412
C        -0.77231955063527   -2.35655206687718    2.63718752832801
C        -1.99991348029572   -2.30164124831364    1.78275270855297
C        -0.23815737512417   -3.02119749001701   -1.82712931879886
C         0.75086780287490   -2.29980720402205   -2.59265368554679
C         1.97083638396874   -2.26860494711567   -1.86214290982416
C         1.72820149053902   -3.03684626004854   -0.63819879961097
C         0.34401436421855   -3.46045802134798   -0.65747967248498
C         2.80717122835417   -1.15964342737131   -1.83341818977641
C         2.42853263862834   -0.00257806744761   -2.58540508950411
C         2.80582723937767    1.17077323075208   -1.82493140387827
C         3.41998982325792    0.72096983047878   -0.60274291682649
C         3.42294989992421   -0.71624291266436   -0.60348858190760
C         1.96622331838780    2.30458457679261   -1.82110904086592
C         0.74965904963859    2.33370779215055   -2.54240070592859
C        -0.23427177314959    3.02572356567384   -1.82950083850672
C         0.38558418855950    3.47519183352126   -0.59778989781157
C         1.70310909975123    3.02831078646120   -0.63097819518868
C        -1.56059447055299    2.60997452655297   -1.78487247714697
C        -2.01307212408025    1.46752212020561   -2.64181532367940
C        -2.95680822688992    0.73100531500044   -1.77123609817701
C        -3.14018758012242    1.41993704436361   -0.64755164600419
C        -2.32696005237225    2.60387507788052   -0.61570315984945
C        -3.01911930380056   -0.73333017995224   -1.86015683745556
C        -1.92363432864703   -1.45444164703441   -2.57741539173214
C        -1.58993209269464   -2.57894361368703   -1.83960122217124
C        -2.34597411874849   -2.58705801033712   -0.59492348589805
C        -3.16882428530728   -1.43838416191145   -0.55393926039179
C        -0.98610555797432   -0.70732218979099   -3.32326158432193
C        -0.98453821387117    0.65854566570434   -3.31258543442031
C         0.39188358036847    1.18228556002253   -3.38205574185586
C         1.24620160625658   -0.03981153595902   -3.31343199501758
C         0.39534945943417   -1.16516890809388   -3.32808445694128
C        -1.82082753089624    0.00811898141064    4.80504982131062
F        -1.02175744409400    0.10633327607472    5.74688891858743
F        -2.55850237228664   -1.03148771814382    5.06728476236434
F        -2.57714468680680    1.04417259979053    5.05292702647700
C         2.40233608317454   -4.32963922633430   -0.97835659732281
F         2.06275902305507   -4.96384043654418   -2.02966123857490
F         3.83926612204334   -4.28315248084030   -1.38738667310093
F         2.23078322725205   -5.49194618242192   -0.13010063119081
C         1.48007672446849   -1.05388287965921    4.80218873062245
F         0.89258409530702   -0.51641396311219    5.74661053277597
F         1.46944232153020   -2.33487289154009    5.06503233088334
F         2.71237992223664   -0.61170566688325    5.03155608611212
C         3.38280198493550   -3.60753230604784    0.96856351878793
F         4.08356303368169   -3.49623897592576    2.02768454502033
F         4.55995560862376   -3.73407138559385    0.10631517339274
F         2.88159731660435   -4.97417653252788    1.37363624351870
C         3.39477118066243    3.75304355747532    0.87481380770030
F         4.07756013914806    3.51901675671351    1.99006357905795
F         4.26559759816489    3.85232608602647   -0.12427998054104
F         2.78633830253749    4.92495626403187    1.00488162581100
C        -2.85542273094626    2.07720898341680   -3.73659060910476
F        -3.84720366477009    2.79052711290843   -3.22371088500905
F        -2.17031060843639    2.88593182520458   -4.49840346039088
F        -3.35589206761009    1.17434620425701   -4.54003073193313
C        -1.08508018103933    3.35767047570960    3.73856650162141
F        -1.46179639784052    4.51968210150296    3.22422450106246
F        -2.06450768708318    2.96057854263849    4.49902711461293
F        -0.02403031522139    3.56399059513624    4.51026945450254
C        -4.28357028236275   -1.03719493399605   -2.64142890565590
F        -4.46025435538645   -2.34868992107477   -2.75134521605266
F        -4.24545837609919   -0.57129803496670   -3.86069279149602
F        -5.34891673403499   -0.52645275075028   -2.05262397100875
C        -4.95478701355118    1.04303444242443    0.87691472150071
F        -5.36526523940793    0.45017602322687    1.99151211885232
F        -5.72002204478980    0.61743837206410   -0.11182749503788
F        -5.14870628482846    2.34945428862192    1.00634399123873
C         0.55193971973564    1.68029551526477   -4.81984302341509
F         0.23845737411894    0.72614512734086   -5.69013720905883
F        -0.18411872046590    2.72746256688177   -5.07533050786623
F         1.80569336446610    2.05500989020078   -5.05420034167418
C        -0.55358615162653   -5.02857275341471    0.83032968938950
F        -1.22747418734771   -5.43261101072767    1.77420298494463
F        -1.17632087474287   -5.62644933579899   -0.17406102527249
F         0.61388949678188   -5.64819284928550    1.03211176757203
C        -1.09131570423523   -3.31715301308719    3.76962550257684
F        -1.54885468323825   -4.43071089940888    3.47932737960899
F        -0.05017604629863   -3.59697276346624    4.50905011827469
F        -2.07205928341895   -2.92159109563682    4.52455012848312
108
 energy: -324.189440196297 gnorm: 0.324153780146 xtb: 6.4.1 (a3dbbd7)
C        -1.26473542565496    0.00352388896947    3.42417891990476
C        -0.37123330989414   -1.15275130398003    3.31424074050520
C         1.02764617858856   -0.73244032489579    3.41562198156005
C         0.97167457408946    0.76120132126925    3.30371860068262
C        -0.31714514816474    1.14666628068990    3.29309326776309
C         2.41205420486652   -2.62400445635383    0.62399269992849
C         3.19566092124430   -1.36017933317181    0.58530237132573
C         2.94596438442681   -0.69763566353541    1.82103536852688
C         1.99731248169423   -1.41666192833802    2.53550110008484
C         1.53559627363419   -2.53849213960593    1.82364106647766