180
 energy: -561.629475425930 gnorm: 12.893268876785 xtb: 6.4.1 (a3dbbd7)
C        -1.23626340000000    0.00000000000000    3.32997640000000
C        -0.38202640000000   -1.17575640000000    3.32997640000000
C         1.00015810000000   -0.72665740000000    3.32997640000000
C         1.00015810000000    0.72665740000000    3.32997640000000
C        -0.38202640000000    1.17575640000000    3.32997640000000
C         2.34433560000000   -2.60145750000000    0.59464210000000
C         3.19857260000000   -1.42570110000000    0.59464210000000
C         2.96246730000000   -0.69904370000000    1.83090550000000
C         1.96230920000000   -1.42570110000000    2.59495830000000
C         1.58028280000000   -2.60145750000000    1.83090550000000
C         3.19857260000000    1.42570110000000    0.59464210000000
C         2.34433560000000    2.60145750000000    0.59464210000000
C         1.58028280000000    2.60145750000000    1.83090550000000
C         1.96230920000000    1.42570110000000    2.59495830000000
C         2.96246730000000    0.69904370000000    1.83090550000000
C        -0.36750900000000    3.48258920000000    0.59464210000000
C        -1.74969350000000    3.03349030000000    0.59464210000000
C        -1.98579880000000    2.30683290000000    1.83090550000000
C        -0.74953540000000    2.30683290000000    2.59495830000000
C         0.25062270000000    3.03349030000000    1.83090550000000
C        -3.42570570000000    0.72665740000000    0.59464210000000
C        -3.42570570000000   -0.72665740000000    0.59464210000000
C        -2.80757400000000   -1.17575640000000    1.83090550000000
C        -2.42554760000000    0.00000000000000    2.59495830000000
C        -2.80757400000000    1.17575640000000    1.83090550000000
C        -1.74969350000000   -3.03349030000000    0.59464210000000
C        -0.36750900000000   -3.48258920000000    0.59464210000000
C         0.25062270000000   -3.03349030000000    1.83090550000000
C        -0.74953540000000   -2.30683290000000    2.59495830000000
C        -1.98579880000000   -2.30683290000000    1.83090550000000
C        -0.25062270000000   -3.03349030000000   -1.83090550000000
C         0.74953540000000   -2.30683290000000   -2.59495830000000
C         1.98579880000000   -2.30683290000000   -1.83090550000000
C         1.74969350000000   -3.03349030000000   -0.59464210000000
C         0.36750900000000   -3.48258920000000   -0.59464210000000
C         2.80757400000000   -1.17575640000000   -1.83090550000000
C         2.42554760000000    0.00000000000000   -2.59495830000000
C         2.80757400000000    1.17575640000000   -1.83090550000000
C         3.42570570000000    0.72665740000000   -0.59464210000000
C         3.42570570000000   -0.72665740000000   -0.59464210000000
C         1.98579880000000    2.30683290000000   -1.83090550000000
C         0.74953540000000    2.30683290000000   -2.59495830000000
C        -0.25062270000000    3.03349030000000   -1.83090550000000
C         0.36750900000000    3.48258920000000   -0.59464210000000
C         1.74969350000000    3.03349030000000   -0.59464210000000
C        -1.58028280000000    2.60145750000000   -1.83090550000000
C        -1.96230920000000    1.42570110000000   -2.59495830000000
C        -2.96246730000000    0.69904370000000   -1.83090550000000
C        -3.19857260000000    1.42570110000000   -0.59464210000000
C        -2.34433560000000    2.60145750000000   -0.59464210000000
C        -2.96246730000000   -0.69904370000000   -1.83090550000000
C        -1.96230920000000   -1.42570110000000   -2.59495830000000
C        -1.58028280000000   -2.60145750000000   -1.83090550000000
C        -2.34433560000000   -2.60145750000000   -0.59464210000000
C        -3.19857260000000   -1.42570110000000   -0.59464210000000
C        -1.00015810000000   -0.72665740000000   -3.32997640000000
C        -1.00015810000000    0.72665740000000   -3.32997640000000
C         0.38202640000000    1.17575640000000   -3.32997640000000
C         1.23626340000000    0.00000000000000   -3.32997640000000
C         0.38202640000000   -1.17575640000000   -3.32997640000000
C        -1.76086815247998    0.00000000000000    4.78849957557021
F        -0.76911826531252    0.00000000000000    5.67468926254662
F        -2.50968386795825   -1.06794314680471    5.04863888333743
F        -2.50968386795825    1.06794314680471    5.04863888333743
C        -0.54413818249354   -1.67468516033722    4.78849957845317
F        -0.23767107904745   -0.73147481112462    5.67468925997942
F        -1.79120914301982   -2.05683909935453    5.04863874564184
F         0.24013968171955   -2.71686350152345    5.04863903502921
C         1.42457227037960   -1.03501233722714    4.78849957248258
F         0.62223011468481   -0.45207589682711    5.67468926529602
F         1.40265511061956   -2.33913928186680    5.04863905501621
F         2.65809836182651   -0.61117154425495    5.04863869666890
C         1.42457227037960    1.03501233722714    4.78849957248258
F         0.62223011468481    0.45207589682711    5.67468926529602
F         2.65809836182651    0.61117154425495    5.04863869666891
F         1.40265511061956    2.33913928186680    5.04863905501621
C        -0.54413818249354    1.67468516033722    4.78849957845317
F        -0.23767107904745    0.73147481112462    5.67468925997942
F        -1.79120914301982    2.05683909935453    5.04863874564184
F         0.24013968171955    2.71686350152345    5.04863903502921
C         3.37204091334889   -3.72927672645244    0.86730596148276
F         4.06564647311728   -3.51265957144659    1.98125763710228
F         4.25569947457670   -3.84739838595791   -0.11965645964809
F         2.78580317558591   -4.91533944031226    1.00324916143779
C         4.58877084110522   -2.05459160147071    0.86730597290559
F         4.59709252483521   -2.78118520641283    1.98125951001435
F         4.97417519512416   -2.85850196315549   -0.11965482382298
F         5.53562669678859   -1.13053295630600    1.00324569798425
C         4.25247495652193   -1.01957928511255    2.62817407757680
F         4.45020405360863   -2.32910962270744    2.75037677428969
F         5.33704498641440   -0.51936149478958    2.04303305824604
F         4.21414295278388   -0.51936236815955    3.85992636334025
C         2.82790274436383    2.05459160758554    3.71645040671519
F         3.82797483682855    2.78118494419178    3.22571836876305
F         2.11749631416700    2.85850222732984    4.50254863174647
F         3.37293748548841    1.13053297859378    4.50255013394648
C         4.25247495652193    1.01957928511255    2.62817407757680
F         4.45020405360857    2.32910962270745    2.75037677428973
F         5.33704498641440    0.51936149478962    2.04303305824599
F         4.21414295278389    0.51936236815949    3.85992636334022
C        -0.53602450593361    4.99908416128281    0.86730591619822
F        -1.22448605650957    5.23152837615597    1.98125850960180
F        -1.18149064144157    5.61404773804446   -0.11965571789346
F         0.63540201352706    5.61404743764837    1.00324736766175
C        -1.08016271022039    3.32439912180418    3.71645041587937
F        -1.46215754230407    4.50005299330749    3.22571838851551
F        -2.06425285383526    2.89718320022386    4.50255037491024
F        -0.03290491502764    3.55721032900471    4.50254840735999
C        -4.03961820246674   -1.67468514775899    2.62817407948106
F        -4.96930660042402   -0.73147479244129    2.75037763231441
F        -4.62303373288711   -2.71686348978894    2.04303253910982
F        -3.71458666614022   -2.05683907990832    3.85992603200073
C        -3.49548004549360    0.00000000000000    3.71645041414084
F        -4.73163621497510    0.00000000000000    3.22571838476757
F        -3.39327517264965   -1.06794314680471    4.50254938956302
F        -3.39327517264965    1.06794314680471    4.50254938956303
C         0.34440953624153   -4.35941144868709    2.62817404748705
F        -0.83992598883967   -4.95213069234126    2.75037577510431
F         1.15529636597892   -5.23632261667420    2.04303359185445
F         0.80829780400759   -4.16837989546168    3.85992670963205
C        -1.08016271022039   -3.32439912180418    3.71645041587937
F        -1.46215754230407   -4.50005299330749    3.22571838851551
F        -0.03290491502764   -3.55721032900471    4.50254840735999
F        -2.06425285383526   -2.89718320022386    4.50255037491024
C        -2.84103082519036   -3.32439911178427    2.62817407941587
F        -2.23127406184888   -4.50005340761388    2.75037746012491
F        -4.01248672303644   -3.55720929213525    2.04303264409737
F        -3.10404037880940   -2.89718378306488    3.85992609894427
C         1.08016271022039   -3.32439912180418   -3.71645041587937
F         1.46215754230406   -4.50005299330749   -3.22571838851551
F         0.03290491502765   -3.55721032900471   -4.50254840736000
F         2.06425285383526   -2.89718320022386   -4.50255037491024
C         2.50473491433418   -4.35941144902977   -0.86730593917895
F         2.08438487052912   -4.95213043104453   -1.98125838386969
F         3.81390519137296   -4.16837996597314   -1.00324768478856
F         2.34400857369757   -5.23632280881804    0.11965581818547
C         4.03961820246674   -1.67468514775899   -2.62817407948106
F         4.96930660042401   -0.73147479244129   -2.75037763231445
F         3.71458666614023   -2.05683907990836   -3.85992603200072
F         4.62303373288714   -2.71686348978891   -2.04303253910981
C         4.03961820246674    1.67468514775899   -2.62817407948106
F         4.96930660042402    0.73147479244129   -2.75037763231441
F         3.71458666614022    2.05683907990832   -3.85992603200073
F         4.62303373288711    2.71686348978894   -2.04303253910982
C         4.92005227074660    1.03501232949151   -0.86730592957069
F         5.35386609588658    0.45207588830481   -1.98125865327758
F         5.14292645153878    2.33913927311179   -1.00324714649869
F         5.70437742108406    0.61117153086585    0.11965558739362
C        -0.34440953624153    4.35941144868709   -2.62817404748705
F         0.83992598883967    4.95213069234126   -2.75037577510431
F        -0.80829780400759    4.16837989546168   -3.85992670963205
F        -1.15529636597892    5.23632261667420   -2.04303359185445
C         0.53602450593361    4.99908416128281   -0.86730591619822
F         1.22448605650957    5.23152837615597   -1.98125850960180
F        -0.63540201352706    5.61404743764837   -1.00324736766175
F         1.18149064144157    5.61404773804446    0.11965571789346
C        -2.82790274436383    2.05459160758554   -3.71645040671519
F        -3.82797483682855    2.78118494419178   -3.22571836876305
F        -2.11749631416700    2.85850222732984   -4.50254863174647
F        -3.37293748548841    1.13053297859378   -4.50255013394648
C        -4.25247495652193    1.01957928511255   -2.62817407757680
F        -4.45020405360863    2.32910962270744   -2.75037677428969
F        -4.21414295278388    0.51936236815955   -3.85992636334025
F        -5.33704498641440    0.51936149478958   -2.04303305824604
C        -4.58877084110522    2.05459160147071   -0.86730597290559
F        -4.59709252483521    2.78118520641283   -1.98125951001435
F        -5.53562669678859    1.13053295630600   -1.00324569798425
F        -4.97417519512416    2.85850196315549    0.11965482382298
C        -3.37204091334889    3.72927672645244   -0.86730596148276
F        -4.06564647311728    3.51265957144659   -1.98125763710228
F        -2.78580317558591    4.91533944031226   -1.00324916143779
F        -4.25569947457670    3.84739838595791    0.11965645964809
C        -2.28376457660886   -3.72927671755932   -2.62817408867206
F        -3.59030321655004   -3.51265997057978   -2.75037870097715
F        -1.79618325340527   -3.84739782561575   -3.85992562899768
F        -2.14318168460923   -4.91533956626621   -2.04303190988614
C        -4.58877084110522   -2.05459160147071   -0.86730597290559
F        -4.59709252483521   -2.78118520641283   -1.98125951001435
F        -5.53562669678859   -1.13053295630600   -1.00324569798425
F        -4.97417519512416   -2.85850196315549    0.11965482382298
180
 energy: -572.153531548102 gnorm: 11.250156272185 xtb: 6.4.1 (a3dbbd7)
C        -1.22942466200672    0.00023497052037    3.31662140457055
C        -0.37985612414222   -1.16948952092327    3.31534871731840
C         0.99910938359795   -0.72555224117864    3.32123088539906
C         0.99454962159887    0.72270605034702    3.31651013470701
C        -0.37971997558208    1.16986508195211    3.31712811649790
C         2.33861493468710   -2.59620941553598    0.59514718484453
C         3.19232728227467   -1.42167471879876    0.59144326179710
C         2.95318509486339   -0.69856267068680    1.82658533800762
C         1.96406239870341   -1.42677028608415    2.59551324586071
C         1.58214984651065   -2.60199862502772    1.83093947422273
C         3.19858305657338    1.42747714511909    0.59508249392979
C         2.34405622107389    2.60169833191831    0.59606987242532
C         1.58262892859299    2.60153846648365    1.83046415718429
C         1.95691265987041    1.42439387293113    2.58617143206117
C         2.95534480946675    0.69890175859708    1.82384823977041
C        -0.36883513962894    3.47725384245180    0.59682052730168
C        -1.74923395052470    3.03393616844483    0.59625992663918
C        -1.98603652571382    2.30750194131517    1.83118918847301
C        -0.74979584080322    2.30606385973920    2.58831351143702
C         0.25011422105288    3.03494609805030    1.83108584509059
C        -3.42577235297264    0.72571828726212    0.59656407277318
C        -3.42566708039566   -0.72516702383183    0.59619461002289
C        -2.80319119623661   -1.17195926987841    1.82382659080946
C        -2.42095297065931    0.00092362383702    2.58647667599580
C        -2.80833409422855    1.17566036440589    1.83083048480025
C        -1.74913892611431   -3.03320726076870    0.59420518895370
C        -0.36823478121976   -3.48354592109055    0.59500386826111
C         0.25145073906338   -3.02961575902047    1.82624353856509
C        -0.74645802435239   -2.29795337173420    2.58443727568892
C        -1.97991917663415   -2.30357102278862    1.82378105261352
C        -0.24855830321502   -3.03399136129137   -1.82908555543381
C         0.75004374479826   -2.30846108730619   -2.59611690901728
C         1.98545607719487   -2.30825733777334   -1.83035224637293
C         1.74479334893711   -3.02993492497289   -0.59698150971763
C         0.36651365186370   -3.48206790342452   -0.59659665704034
C         2.80761707641674   -1.17527380490778   -1.83128139424335
C         2.42542655079598    0.00034575372417   -2.59612776545591
C         2.80440472448397    1.17501201380730   -1.83088340969606
C         3.42368647598844    0.72540920628111   -0.59327634255198
C         3.42593314800446   -0.72536252711381   -0.59571243589268
C         1.98515374460128    2.30840888183578   -1.83174744248377
C         0.75049713329332    2.30641857625510   -2.59580189484747
C        -0.25023236957780    3.02945653200412   -1.83129720533580
C         0.36973266227264    3.47625378232592   -0.59435018545369
C         1.75006361927350    3.03412898264291   -0.59499788442919
C        -1.58234945519288    2.60139304798553   -1.83116663575374
C        -1.95893590962255    1.42454009588158   -2.59400893224410
C        -2.95862458262486    0.69475728829729   -1.82835547593352
C        -3.19561812562797    1.42231269080779   -0.59102154759161
C        -2.34080416585825    2.60044268022072   -0.59324982877028
C        -2.96123755564117   -0.70073622417327   -1.83212074575485
C        -1.96153463351742   -1.42332895464644   -2.59534179654534
C        -1.58218028150803   -2.60218933410477   -1.83167580259551
C        -2.34398694558218   -2.60277965868473   -0.59333844812687
C        -3.19939447284811   -1.42687614470754   -0.59556644125010
C        -0.99968124741615   -0.72668885398286   -3.33010206733044
C        -0.99746062076415    0.72534156393154   -3.32993465341592
C         0.38144292126864    1.17462176921822   -3.33028159968293
C         1.23371918644911   -0.00076391635977   -3.33009129357777
C         0.38111658899943   -1.17163457414303   -3.32976963677338
C        -1.75216002821588   -0.00437068501366    4.75676397687296
F        -0.85180480235912   -0.00100398538585    5.69776168957324
F        -2.52273184277151   -1.03861855556302    5.09189300170640
F        -2.53589232345527    1.05035415071516    5.08648347210539
C        -0.53834515133171   -1.66882668099238    4.75697888338903
F        -0.25928946492716   -0.80767772512851    5.69832488164968
F        -1.77011702419766   -2.07847050937284    5.09270110048925
F         0.20980119642382   -2.73342696461951    5.07938470271808
C         1.42377653186048   -1.03568796469964    4.76744591615410
F         0.68619712314440   -0.49864486524540    5.69681172785337
F         1.46865710377624   -2.33845295761738    5.05486594486337
F         2.67245404837035   -0.67582040632860    5.05625393766074
C         1.41976438036382    1.02861267783343    4.75604967732810
F         0.68636339223766    0.49786652216796    5.69802492766228
F         2.65792349302847    0.64042874248598    5.08624551462398
F         1.43507552931241    2.33598132764998    5.08688486318111
C        -0.53983750366668    1.67040731622152    4.75610841382806
F        -0.25973087783818    0.80836257180762    5.69961031465365
F        -1.77630768600820    2.08606579618163    5.08606935554333
F         0.21035295117916    2.72882648521463    5.08576973732903
C         3.35049046713859   -3.71453777817478    0.83729873771762
F         4.05547318194656   -3.56068729071550    2.01251581631002
F         4.24691067128968   -3.89150019365562   -0.10822524895926
F         2.79306258326811   -4.92514505816497    1.03626017329281
C         4.57659945410635   -2.04225319679404    0.85385647985636
F         4.63581046376215   -2.78554231067084    1.96684172129768
F         5.01696612752230   -2.81287968800731   -0.12441108742634
F         5.55719046357969   -1.15679309868416    0.94935669442418
C         4.23491757347113   -0.99457027015759    2.60866544428428
F         4.45278974388267   -2.33386814309573    2.80650829734838
F         5.35201706261505   -0.51494466921321    2.08165376269498
F         4.21943698967608   -0.56616082617916    3.87751159233965
C         2.81290854135584    2.03692662812650    3.70028717950644
F         3.81318881360713    2.82244015804673    3.24396389579648
F         2.13884798847768    2.90027880283804    4.49040737594639
F         3.37548877966205    1.17266834986320    4.53031031827176
C         4.22948332709844    1.00788071071402    2.61762380205642
F         4.49148644652238    2.33110066620360    2.72688864807984
F         5.35531563530726    0.55010585104248    2.03909698003959
F         4.25893852703778    0.52645237819188    3.85800648043385
C        -0.53767007311697    4.98502132129619    0.86879689307399
F        -1.22273885534233    5.24620517745734    1.96542031531312
F        -1.20948225948574    5.62423491042549   -0.10097439537036
F         0.63195534098474    5.62279988538054    1.04038236029592
C        -1.07910587745520    3.31510552152107    3.70248152777682
F        -1.46772307576139    4.49530604921354    3.24556023132678
F        -2.09266291137422    2.93088003337937    4.48689719771777
F        -0.02886704770414    3.60374000400078    4.48746296083578
C        -4.01421504417112   -1.67255685477939    2.61679268647807
F        -5.00412476909652   -0.75449822083173    2.72615965363292
F        -4.65420345668729   -2.70360373455180    2.03467670602238
F        -3.76726462916824   -2.07081969922272    3.85097485517765
C        -3.47257830019114    0.00371887285456    3.70001992594553
F        -4.74363695918697    0.03664907317654    3.24428102703772
F        -3.42779865612318   -1.03591287486551    4.52675760544148
F        -3.43410157362052    1.08531015919398    4.49037062806213
C         0.35740725063492   -4.34101762111518    2.62571914355584
F        -0.82149652736428   -4.99551286097900    2.72652169335828
F         1.15562175251181   -5.24309136954789    2.04283107201160
F         0.86131413062912   -4.20102373890141    3.83624079097438
C        -1.06779538317371   -3.29700570600345    3.70016504948980
F        -1.46455840908853   -4.51305047258393    3.26456786603799
F        -0.06749758059352   -3.56417662596346    4.53165893945029
F        -2.04582141489517   -2.93976139707055    4.52901277876793
C        -2.83383751726532   -3.29326007775542    2.61556737310049
F        -2.27101881771993   -4.53181916310793    2.72620378882824
F        -4.01007558308154   -3.59143028303403    2.03326571088161
F        -3.13551871207649   -2.94158949562793    3.85234218953531
C         1.07897666901920   -3.32289728704084   -3.71677893168709
F         1.45343805015733   -4.49575874374765   -3.24509020921992
F         0.03453354050382   -3.55729273686551   -4.50477418147431
F         2.06326885807466   -2.89836102094553   -4.50467545076982
C         2.49150634258278   -4.35093076733818   -0.86961889289423
F         2.09459067122279   -4.96120884333457   -1.96367335735207
F         3.82098096828488   -4.17798553911482   -1.03368464741658
F         2.32674512678713   -5.25939350743633    0.10459902628084
C         4.03593093484672   -1.67620329596677   -2.62915266215837
F         4.96926066077066   -0.75528517198511   -2.76017762913999
F         3.71726523906599   -2.05637952834244   -3.86031498561664
F         4.62577402914470   -2.71741883048363   -2.04598439049623
C         4.03187633894425    1.68060070041662   -2.62771964277717
F         4.96001547636237    0.75225441927014   -2.78778115479493
F         3.71470842498878    2.05733015450918   -3.86234698975963
F         4.59940353971663    2.73918738623442   -2.09517611689407
C         4.91522964735665    1.03902077848835   -0.86081382155013
F         5.38046887036537    0.44608746698681   -1.94583836131961
F         5.17119451179591    2.32303601781504   -0.95067850632146
F         5.70849193035596    0.61216096016669    0.11859718055899
C        -0.35155925040277    4.35112534424632   -2.62197936501734
F         0.83431408887440    4.94469161629199   -2.79437376370580
F        -0.80718996981008    4.17104378945581   -3.86349646599793
F        -1.18793172696631    5.22243769144741   -2.09813764988207
C         0.51415539927336    4.97526438662549   -0.85658091914103
F         1.26381840735695    5.25576275989957   -1.96345527424639
F        -0.60393276939291    5.64306251004383   -0.98280956261525
F         1.21905340469348    5.62681178614119    0.10252918446766
C        -2.80904349505958    2.03770831856281   -3.72345477014823
F        -3.81138008595497    2.81563143371029   -3.26069928487141
F        -2.11865071585822    2.86039171592024   -4.50541822762968
F        -3.33284858116798    1.15862050951934   -4.53798124787570
C        -4.24497435815264    0.99059865702317   -2.62295261681736
F        -4.48280103237603    2.30475212595756   -2.78535217087257
F        -4.25609498509447    0.48822342906198   -3.83253249053743
F        -5.33157575337907    0.48989728502654   -2.09419910144746
C        -4.58378956426728    2.03669284764743   -0.84270726951879
F        -4.64179559512291    2.79420039773294   -1.95623275835353
F        -5.54995852648502    1.15846004390726   -0.95267920946911
F        -5.01242062563575    2.81262194216153    0.12354929265666
C        -3.35855657972011    3.72703278760562   -0.84173969972189
F        -4.05511346412294    3.56229145215513   -1.99435671617004
F        -2.78906095662128    4.91942739165309   -1.00562513593996
F        -4.22307168643032    3.89925755152857    0.12436402938146
C        -2.28256000182517   -3.72852231565653   -2.62849782591398
F        -3.57675146213127   -3.52467980121947   -2.76307484195159
F        -1.79825827205529   -3.84855257044922   -3.86049581644514
F        -2.14332540862922   -4.91723587552786   -2.04256223094691
C        -4.58770969974954   -2.05396666212956   -0.86835400526332
F        -4.61396671919325   -2.77079239979585   -1.97044291429816
F        -5.53827834907951   -1.13163026418930   -1.00172370186621
F        -4.97630533449068   -2.86037910993919    0.11924744753716
180
 energy: -582.352136687365 gnorm: 9.948408567410 xtb: 6.4.1 (a3dbbd7)
C        -1.22241508070823    0.00044950098711    3.30571090553021
C        -0.37758346397625   -1.16250607573401    3.30311404231657
C         0.99855245617602   -0.72440325331531    3.31413497563146
C         0.98931167247428    0.71921206625945    3.30505147845437
C        -0.37734367972137    1.16377871963958    3.30627849253880
C         2.33599611088166   -2.59516429995455    0.59670729981026
C         3.19018086642630   -1.41898999399582    0.58910755184315
C         2.94894555727040   -0.69923521441203    1.82512626253841
C         1.96643581180003   -1.42727303226927    2.59609654240127
C         1.58420812043522   -2.60272328995711    1.83032519147081
C         3.19886958876843    1.42924368759062    0.59576317485872
C         2.34302634975601    2.60152942196400    0.59686150656883
C         1.58510596729074    2.60192346133355    1.82938458700285
C         1.95266603170688    1.42412678099222    2.57914487910226
C         2.95156290734127    0.70074085302206    1.81862660848129
C        -0.37075396884281    3.47406419887349    0.60009014027225
C        -1.74922224369606    3.03386049005647    0.59793239099117
C        -1.98587763249733    2.30796406116411    1.83131070509739
C        -0.75040009043600    2.30658412252839    2.58310394596043
C         0.24942268599136    3.03599180417640    1.83181695973851
C        -3.42573502433930    0.72526377440459    0.59805863998543
C        -3.42616335138349   -0.72375570266762    0.59801083075758
C        -2.80143266889767   -1.16860842254327    1.81837750670717
C        -2.41929446982747    0.00418476943039    2.58044717538420
C        -2.80901287529717    1.17589815909061    1.83071867604190
C        -1.74825408749242   -3.03248325042865    0.59280500882054
C        -0.36890493209019   -3.48512013935890    0.59481611291814
C         0.25277206899300   -3.02856984972537    1.82284661371758
C        -0.74361835327967   -2.29223488140750    2.57617883820738
C        -1.97605058953489   -2.30180437641849    1.81810602487012
C        -0.24593506068713   -3.03444335144098   -1.82545342488398
C         0.75069022241243   -2.31127899084471   -2.59785859826805
C         1.98474012749215   -2.30889898595409   -1.82959832050608
C         1.74155205691327   -3.02884150345095   -0.60078626761159
C         0.36424695457879   -3.47968857943314   -0.59846987813747
C         2.80831176647458   -1.17497275370870   -1.83191447161382
C         2.42499703863140    0.00089944708764   -2.59719435561526
C         2.80179854562246    1.17415010979038   -1.83189969369007
C         3.42203683830341    0.72423678740921   -0.59180089702732
C         3.42641947225048   -0.72461356728183   -0.59628007188097
C         1.98372488648276    2.31068767680510   -1.83192701340324
C         0.75181832924096    2.30481350819483   -2.59665893390630
C        -0.25010675565205    3.02723390735557   -1.83271689118175
C         0.37200537720254    3.47532179194542   -0.59452850055772
C         1.75103902021402    3.03362052126627   -0.59508704209927
C        -1.58391327612552    2.60128595743901   -1.83147498834555
C        -1.95674583962352    1.42455579077523   -2.59374587576151
C        -2.95674864868709    0.69157184434940   -1.82710839991494
C        -3.19352280210171    1.41952422296152   -0.58803104397906
C        -2.33864362697185    2.60033915630819   -0.59304908889938
C        -2.95917918470686   -0.70201751469189   -1.83302181741194
C        -1.96063916242233   -1.42083827784421   -2.59568773020450
C        -1.58465446650184   -2.60517103154948   -1.83377131073787
C        -2.34303714246348   -2.60243819072141   -0.59181520657404
C        -3.20125627652268   -1.42842737491227   -0.59662306308565
C        -0.99880618068439   -0.72674985780281   -3.32864104061842
C        -0.99526702362297    0.72408902869579   -3.33202826596386
C         0.38089877519287    1.17371605824785   -3.32933525969095
C         1.23110863485941   -0.00176694255269   -3.32928970007871
C         0.38011300406867   -1.16702389211915   -3.33121032448947
C        -1.73491776648030   -0.00843624044937    4.72454126987115
F        -0.96246892006499   -0.00204296368727    5.71481207306480
F        -2.52347810491671   -1.01320034874679    5.13807061525721
F        -2.54213716868952    1.02563216722176    5.13362131808673
C        -0.53340474283740   -1.64975309915546    4.72380190542461
F        -0.29314335785997   -0.91108518360752    5.71561302244154
F        -1.74997270561762   -2.08620431855002    5.14211569903110
F         0.19343017763092   -2.74789621403190    5.11267726442135
C         1.41338137076473   -1.02718943246410    4.75384624398623
F         0.77661841313281   -0.56215625071636    5.70777800585872
F         1.51681399112104   -2.34011113787318    5.05789364185555
F         2.68677603163873   -0.72203727411550    5.06038038048390
C         1.40461432002704    1.02167197145297    4.72286553121290
F         0.77043689872508    0.55977774372653    5.71704400067277
F         2.65772178563200    0.65773406574695    5.12360883962591
F         1.45158548155364    2.31651832817233    5.13425049635902
C        -0.52666713209319    1.65549745960526    4.72919878259786
F        -0.29081407981366    0.91189381093865    5.71604274863610
F        -1.75139557115556    2.10101419800022    5.13222492259139
F         0.17919504233744    2.71971374142439    5.13010127165016
C         3.33373501508459   -3.70136604935813    0.80395644707275
F         4.04075848452673   -3.61204803313775    2.05272170268492
F         4.23834286478847   -3.92160301424845   -0.08121226845724
F         2.81827150978800   -4.91776411860715    1.08552071926245