156
 energy: -496.859219811406 gnorm: 8.682141773205 xtb: 6.4.1 (a3dbbd7)
C        -1.23626340000000    0.00000000000000    3.32997640000000
C        -0.38202640000000   -1.17575640000000    3.32997640000000
C         1.00015810000000   -0.72665740000000    3.32997640000000
C         1.00015810000000    0.72665740000000    3.32997640000000
C        -0.38202640000000    1.17575640000000    3.32997640000000
C         2.34433560000000   -2.60145750000000    0.59464210000000
C         3.19857260000000   -1.42570110000000    0.59464210000000
C         2.96246730000000   -0.69904370000000    1.83090550000000
C         1.96230920000000   -1.42570110000000    2.59495830000000
C         1.58028280000000   -2.60145750000000    1.83090550000000
C         3.19857260000000    1.42570110000000    0.59464210000000
C         2.34433560000000    2.60145750000000    0.59464210000000
C         1.58028280000000    2.60145750000000    1.83090550000000
C         1.96230920000000    1.42570110000000    2.59495830000000
C         2.96246730000000    0.69904370000000    1.83090550000000
C        -0.36750900000000    3.48258920000000    0.59464210000000
C        -1.74969350000000    3.03349030000000    0.59464210000000
C        -1.98579880000000    2.30683290000000    1.83090550000000
C        -0.74953540000000    2.30683290000000    2.59495830000000
C         0.25062270000000    3.03349030000000    1.83090550000000
C        -3.42570570000000    0.72665740000000    0.59464210000000
C        -3.42570570000000   -0.72665740000000    0.59464210000000
C        -2.80757400000000   -1.17575640000000    1.83090550000000
C        -2.42554760000000    0.00000000000000    2.59495830000000
C        -2.80757400000000    1.17575640000000    1.83090550000000
C        -1.74969350000000   -3.03349030000000    0.59464210000000
C        -0.36750900000000   -3.48258920000000    0.59464210000000
C         0.25062270000000   -3.03349030000000    1.83090550000000
C        -0.74953540000000   -2.30683290000000    2.59495830000000
C        -1.98579880000000   -2.30683290000000    1.83090550000000
C        -0.25062270000000   -3.03349030000000   -1.83090550000000
C         0.74953540000000   -2.30683290000000   -2.59495830000000
C         1.98579880000000   -2.30683290000000   -1.83090550000000
C         1.74969350000000   -3.03349030000000   -0.59464210000000
C         0.36750900000000   -3.48258920000000   -0.59464210000000
C         2.80757400000000   -1.17575640000000   -1.83090550000000
C         2.42554760000000    0.00000000000000   -2.59495830000000
C         2.80757400000000    1.17575640000000   -1.83090550000000
C         3.42570570000000    0.72665740000000   -0.59464210000000
C         3.42570570000000   -0.72665740000000   -0.59464210000000
C         1.98579880000000    2.30683290000000   -1.83090550000000
C         0.74953540000000    2.30683290000000   -2.59495830000000
C        -0.25062270000000    3.03349030000000   -1.83090550000000
C         0.36750900000000    3.48258920000000   -0.59464210000000
C         1.74969350000000    3.03349030000000   -0.59464210000000
C        -1.58028280000000    2.60145750000000   -1.83090550000000
C        -1.96230920000000    1.42570110000000   -2.59495830000000
C        -2.96246730000000    0.69904370000000   -1.83090550000000
C        -3.19857260000000    1.42570110000000   -0.59464210000000
C        -2.34433560000000    2.60145750000000   -0.59464210000000
C        -2.96246730000000   -0.69904370000000   -1.83090550000000
C        -1.96230920000000   -1.42570110000000   -2.59495830000000
C        -1.58028280000000   -2.60145750000000   -1.83090550000000
C        -2.34433560000000   -2.60145750000000   -0.59464210000000
C        -3.19857260000000   -1.42570110000000   -0.59464210000000
C        -1.00015810000000   -0.72665740000000   -3.32997640000000
C        -1.00015810000000    0.72665740000000   -3.32997640000000
C         0.38202640000000    1.17575640000000   -3.32997640000000
C         1.23626340000000    0.00000000000000   -3.32997640000000
C         0.38202640000000   -1.17575640000000   -3.32997640000000
C        -1.76086815247998    0.00000000000000    4.78849957557021
F        -0.76911826531252    0.00000000000000    5.67468926254662
F        -2.50968386795825   -1.06794314680471    5.04863888333743
F        -2.50968386795825    1.06794314680471    5.04863888333743
C        -0.54413818249354   -1.67468516033722    4.78849957845317
F        -0.23767107904745   -0.73147481112462    5.67468925997942
F        -1.79120914301982   -2.05683909935453    5.04863874564184
F         0.24013968171955   -2.71686350152345    5.04863903502921
C         1.42457227037960   -1.03501233722714    4.78849957248258
F         0.62223011468481   -0.45207589682711    5.67468926529602
F         1.40265511061956   -2.33913928186680    5.04863905501621
F         2.65809836182651   -0.61117154425495    5.04863869666890
C         4.58877084110522   -2.05459160147071    0.86730597290559
F         4.59709252483521   -2.78118520641283    1.98125951001435
F         4.97417519512416   -2.85850196315549   -0.11965482382298
F         5.53562669678859   -1.13053295630600    1.00324569798425
C         4.58877084110522    2.05459160147071    0.86730597290559
F         4.59709252483521    2.78118520641283    1.98125951001435
F         4.97417519512416    2.85850196315549   -0.11965482382298
F         5.53562669678859    1.13053295630600    1.00324569798425
C         2.28376457660886    3.72927671755932    2.62817408867206
F         3.59030321655004    3.51265997057976    2.75037870097715
F         2.14318168460923    4.91533956626619    2.04303190988612
F         1.79618325340524    3.84739782561575    3.85992562899767
C         2.82790274436383    2.05459160758554    3.71645040671519
F         3.82797483682855    2.78118494419178    3.22571836876305
F         2.11749631416700    2.85850222732984    4.50254863174647
F         3.37293748548841    1.13053297859378    4.50255013394648
C        -2.84103082519036    3.32439911178427    2.62817407941587
F        -2.23127406184888    4.50005340761388    2.75037746012491
F        -4.01248672303644    3.55720929213525    2.04303264409737
F        -3.10404037880940    2.89718378306489    3.85992609894427
C        -1.08016271022039    3.32439912180418    3.71645041587937
F        -1.46215754230407    4.50005299330749    3.22571838851551
F        -2.06425285383526    2.89718320022386    4.50255037491024
F        -0.03290491502764    3.55721032900471    4.50254840735999
C        -4.03961820246674   -1.67468514775899    2.62817407948106
F        -4.96930660042402   -0.73147479244129    2.75037763231441
F        -4.62303373288711   -2.71686348978894    2.04303253910982
F        -3.71458666614022   -2.05683907990832    3.85992603200073
C        -4.03961820246674    1.67468514775899    2.62817407948106
F        -4.96930660042401    0.73147479244129    2.75037763231445
F        -4.62303373288714    2.71686348978891    2.04303253910981
F        -3.71458666614023    2.05683907990836    3.85992603200072
C         0.34440953624153   -4.35941144868709    2.62817404748705
F        -0.83992598883967   -4.95213069234126    2.75037577510431
F         1.15529636597892   -5.23632261667420    2.04303359185445
F         0.80829780400759   -4.16837989546168    3.85992670963205
C        -1.08016271022039   -3.32439912180418    3.71645041587937
F        -1.46215754230407   -4.50005299330749    3.22571838851551
F        -0.03290491502764   -3.55721032900471    4.50254840735999
F        -2.06425285383526   -2.89718320022386    4.50255037491024
C         1.08016271022039   -3.32439912180418   -3.71645041587937
F         1.46215754230406   -4.50005299330749   -3.22571838851551
F         0.03290491502765   -3.55721032900471   -4.50254840736000
F         2.06425285383526   -2.89718320022386   -4.50255037491024
C         2.50473491433418   -4.35941144902977   -0.86730593917895
F         2.08438487052912   -4.95213043104453   -1.98125838386969
F         3.81390519137296   -4.16837996597314   -1.00324768478856
F         2.34400857369757   -5.23632280881804    0.11965581818547
C         0.53602450593361   -4.99908416128281   -0.86730591619822
F         1.22448605650957   -5.23152837615597   -1.98125850960180
F        -0.63540201352706   -5.61404743764837   -1.00324736766175
F         1.18149064144157   -5.61404773804446    0.11965571789346
C         4.03961820246674   -1.67468514775899   -2.62817407948106
F         4.96930660042401   -0.73147479244129   -2.75037763231445
F         3.71458666614023   -2.05683907990836   -3.85992603200072
F         4.62303373288714   -2.71686348978891   -2.04303253910981
C         4.03961820246674    1.67468514775899   -2.62817407948106
F         4.96930660042402    0.73147479244129   -2.75037763231441
F         3.71458666614022    2.05683907990832   -3.85992603200073
F         4.62303373288711    2.71686348978894   -2.04303253910982
C         0.53602450593361    4.99908416128281   -0.86730591619822
F         1.22448605650957    5.23152837615597   -1.98125850960180
F        -0.63540201352706    5.61404743764837   -1.00324736766175
F         1.18149064144157    5.61404773804446    0.11965571789346
C        -4.58877084110522    2.05459160147071   -0.86730597290559
F        -4.59709252483521    2.78118520641283   -1.98125951001435
F        -5.53562669678859    1.13053295630600   -1.00324569798425
F        -4.97417519512416    2.85850196315549    0.11965482382298
C        -4.25247495652193   -1.01957928511255   -2.62817407757680
F        -4.45020405360857   -2.32910962270745   -2.75037677428973
F        -4.21414295278389   -0.51936236815949   -3.85992636334022
F        -5.33704498641440   -0.51936149478962   -2.04303305824599
C        -2.82790274436383   -2.05459160758554   -3.71645040671519
F        -3.82797483682855   -2.78118494419178   -3.22571836876305
F        -3.37293748548841   -1.13053297859378   -4.50255013394648
F        -2.11749631416700   -2.85850222732984   -4.50254863174647
C         1.76086815247998    0.00000000000000   -4.78849957557021
F         0.76911826531252    0.00000000000000   -5.67468926254662
F         2.50968386795825    1.06794314680471   -5.04863888333743
F         2.50968386795825   -1.06794314680471   -5.04863888333743
C         0.54413818249354   -1.67468516033722   -4.78849957845317
F         0.23767107904745   -0.73147481112462   -5.67468925997942
F        -0.24013968171955   -2.71686350152345   -5.04863903502921
F         1.79120914301982   -2.05683909935453   -5.04863874564184
156
 energy: -502.633685550314 gnorm: 5.595305557760 xtb: 6.4.1 (a3dbbd7)
C        -1.23554135291156    0.00095199871073    3.32381819607404
C        -0.38084965554276   -1.17151474877499    3.31366364985273
C         1.00232541049088   -0.72413880625863    3.32425035836677
C         1.00028821268884    0.72567047383471    3.33218215029737
C        -0.38252865395640    1.17473073434053    3.33250428185851
C         2.34318947725815   -2.60065626506497    0.59764474430925
C         3.20283888420561   -1.42812062521132    0.59659686518345
C         2.95947520308271   -0.69795636107366    1.83314592206189
C         1.96565378250237   -1.42649782465712    2.59120069166056
C         1.58301905305695   -2.60023524770037    1.83080930596095
C         3.20224386841932    1.42754339728909    0.59588913844540
C         2.34333591718324    2.60327729910323    0.59293278845135
C         1.57967036267828    2.60110978084087    1.82790745245363
C         1.96214350185866    1.42284373628951    2.59360734106476
C         2.96129735458621    0.69645024362711    1.83047170001364
C        -0.37124991975244    3.48336527925600    0.59743277034885
C        -1.74655077754361    3.03385914451128    0.59364702063581
C        -1.98139426819161    2.30495181174269    1.82509247254113
C        -0.74521694522065    2.30413220815678    2.59224259523450
C         0.24864232792790    3.03554901719914    1.83083796186896
C        -3.42488203985631    0.72257994558430    0.59687721350403
C        -3.42535669234249   -0.72486387794865    0.59157402442872
C        -2.81059229499968   -1.17598761184235    1.83070296148154
C        -2.42707849712787    0.00072966339064    2.59416995916558
C        -2.80497519365422    1.16856086053180    1.82609477790951
C        -1.74981980166341   -3.03230755709160    0.59424299966589
C        -0.37008512486037   -3.48396498399030    0.59589715426417
C         0.25264100810443   -3.03014759653836    1.82459155902512
C        -0.74963238841936   -2.30072380085117    2.58266193331553
C        -1.98441168142834   -2.31036231868185    1.83015616221183
C        -0.24950752139428   -3.03500761027968   -1.83220986515942
C         0.74887273868907   -2.30700868961636   -2.58500011821401
C         1.98444579272299   -2.30886791669354   -1.83178905845354
C         1.75036863912519   -3.03037459541333   -0.59428329246425
C         0.36506569956200   -3.48017577747357   -0.59462514057482
C         2.81063294956003   -1.17498761565197   -1.83175432426878
C         2.42509702724878   -0.00021989663190   -2.59409663460763
C         2.81159220053167    1.17646675936755   -1.83147396264246
C         3.42368463960335    0.71986982704847   -0.59539527356174
C         3.42353353545499   -0.71965148984871   -0.59534412035808
C         1.98121657163821    2.31063535382131   -1.83033797691754
C         0.74886609626689    2.30698750758779   -2.59261185841585
C        -0.25158066144504    3.03098983549426   -1.83325516646618
C         0.36848392191370    3.48496943441138   -0.59637349519408
C         1.75048790263010    3.02850949461354   -0.59704056399130
C        -1.57994546538741    2.60077667463830   -1.83033114134699
C        -1.96122535527169    1.42543723988859   -2.59408022649042
C        -2.96136987923250    0.70091412974662   -1.83316234647869
C        -3.20120170543617    1.42825535604412   -0.59640953162627
C        -2.34253161025933    2.60239397268770   -0.59738054099880
C        -2.96163190630143   -0.69732916214269   -1.82761954326495
C        -1.95884679991997   -1.42622715350865   -2.59244631319460
C        -1.58388138894186   -2.60183006769131   -1.83004073103586
C        -2.34408074957096   -2.60158875761575   -0.59436522699733
C        -3.19830994984486   -1.42740890425178   -0.59208167330526
C        -0.99910187534968   -0.72503591174951   -3.33191644469619
C        -1.00022937250492    0.72876344294672   -3.33066502251328
C         0.37976732773329    1.17806566318668   -3.33050279905537
C         1.23711191535033    0.00258427585867   -3.32529177313237
C         0.37845909853410   -1.17143202829487   -3.32472886643134
C        -1.77398753255425    0.00060835088085    4.76356637848502
F        -0.79616979343822    0.05526211696632    5.70475456820365
F        -2.57300415161144   -0.99965965363135    5.05430248107049
F        -2.51224095849746    1.07080207424333    5.05729425554468
C        -0.55181083454505   -1.68447180181266    4.73467078756571
F        -0.24574265389839   -0.75969927715904    5.72095507407963
F        -1.75922214612487   -2.09596258614745    5.08419648049628
F         0.19139789762470   -2.72653641044841    5.08846820415042
C         1.43650363490469   -1.04535439582394    4.76614965405273
F         0.68112811905546   -0.42057644437664    5.70349596510245
F         1.49463729162610   -2.32570241754586    5.05404959442764
F         2.66012471156446   -0.61237662616214    5.05261208726700
C         4.58909530135425   -2.05402207448832    0.86746513547020
F         4.59785539444038   -2.78232228739674    1.98262028465107
F         4.97796432825470   -2.85762580912277   -0.11523525554115
F         5.53711847157180   -1.13091527727521    1.00371220393060
C         4.58982445810484    2.05134161099453    0.86164235462377
F         4.62417837877200    2.77454866148927    1.95771674955537
F         4.97607125784792    2.86000652231078   -0.11673522390702
F         5.53739875563731    1.13072132423880    1.00354392472160
C         2.27161074009181    3.73318349002255    2.62422800289465
F         3.57437693122156    3.56893523573204    2.73307133318722
F         2.14371231394515    4.91844532982494    2.04225366591943
F         1.77576630079977    3.92121642447579    3.81687917983119
C         2.82018095635605    2.04614744456711    3.72088434519640
F         3.84280172828504    2.74227995236440    3.27021743198645
F         2.13976424956350    2.78961922546742    4.55298433036858
F         3.37662454866981    1.13133145544359    4.50424155684210
C        -2.82942736544252    3.27722549949312    2.62531356237029
F        -2.27441580187445    4.54199204498788    2.71839136477013
F        -4.01997945077254    3.60573222560753    2.02265515416195
F        -3.15705571928869    2.92787058743577    3.83738231975921
C        -1.07655061573431    3.30806268028394    3.71595017893581
F        -1.41133337364646    4.52212534616085    3.25322312037316
F        -1.99026230574848    2.89748985227474    4.56003431862205
F        -0.03266582417443    3.55983928360199    4.50750876915925
C        -4.03954067557124   -1.67560764638920    2.62540239767070
F        -4.97255847303837   -0.76344388569269    2.75167058985349
F        -4.62414668815860   -2.71932175666247    2.04287857682365
F        -3.72007500884301   -2.05886903264211    3.86042136585100
C        -4.03462353463912    1.66151985833935    2.61454026020680
F        -4.97262242727937    0.76340638328299    2.75198303615370
F        -4.65681563196716    2.70048827450596    2.03659784919570
F        -3.74033680193777    2.03033351087749    3.88331790289431
C         0.35683134489320   -4.34818251225977    2.62456974421810
F        -0.81455934814471   -4.99813538292593    2.71752709840609
F         1.15650431041091   -5.23992270938010    2.04515477065110
F         0.87977721815402   -4.21546704150723    3.82098464409147
C        -1.05594837084826   -3.29641817563505    3.70262168767503
F        -1.52236127562815   -4.50037334411410    3.25081155737473
F        -0.08845029510176   -3.56701371370538    4.53660043791194
F        -2.10902015985752   -2.93424420204367    4.49784592707995
C         1.07399716880707   -3.31291977683671   -3.69802781337953
F         1.45981687846439   -4.49253452580907   -3.26174208065387
F         0.02283287537381   -3.60246873822045   -4.49367383370671
F         2.09590589893295   -2.92882480606259   -4.49724564588112
C         2.51202058915412   -4.35192267347910   -0.85539474671675
F         2.14527896889042   -4.94951939400570   -1.97548709245287
F         3.81358335664923   -4.17338538894584   -1.00410520691879
F         2.42766219807816   -5.21295302110800    0.12157406018702
C         0.52796146206725   -4.99632132671889   -0.85596526099816
F         1.17352191525024   -5.26480312901973   -1.97517702040807
F        -0.63953769597841   -5.61703280702101   -1.00467714803767
F         1.09967329038604   -5.64501220580216    0.11831778395694
C         4.04065425491488   -1.67406179940046   -2.62546314384215
F         4.97179292354883   -0.76423360618886   -2.75139024179505
F         3.71929116010586   -2.05910982657843   -3.86059679753246
F         4.62491016839373   -2.71688725330286   -2.04840431129920
C         4.03910133969041    1.67633865861263   -2.62737098247221
F         4.97198224288477    0.76395223180983   -2.75130293975746
F         3.71685092370533    2.05955372444071   -3.85958853877318
F         4.62328354779209    2.71874710638879   -2.04643141482915
C         0.53661510352870    4.99826751247514   -0.86831145665752
F         1.22498691517792    5.23276055471490   -1.98222603647380
F        -0.63651998171509    5.61549261250983   -1.00321776298219
F         1.18176030832587    5.61593477219021    0.12015382210819
C        -4.58763790200261    2.05380292134642   -0.86947186798384
F        -4.59824281798987    2.78222269783408   -1.98226516444483
F        -5.53822214532382    1.13317266680589   -1.00130882732646
F        -4.97678736417578    2.86116181376420    0.11844263890311
C        -4.25162472396308   -1.00473197248665   -2.62463666575531
F        -4.49916193343901   -2.31214642965183   -2.71862901953256
F        -4.27566909643882   -0.47536049735637   -3.81812663583171
F        -5.33980280941279   -0.52227895554994   -2.04348559438127
C        -2.81835343727486   -2.04655883598788   -3.71940889636565
F        -3.79524547016525   -2.82248618614463   -3.25571442741090
F        -3.31519363104407   -1.17277759560761   -4.55210405144278
F        -2.11894032489550   -2.86374477809922   -4.50560749714087
C         1.77004231612896    0.00548604259014   -4.77580090093812
F         0.79369310081138    0.05186729039996   -5.69490004878272
F         2.50866372730301    1.06949287530255   -5.05322232347479
F         2.56807865191065   -0.99697945463050   -5.05388747227273
C         0.56521389239927   -1.67842174004089   -4.74275734928775
F         0.18638742809031   -0.76213189335257   -5.70183044625261
F        -0.27950208009318   -2.70636436789792   -5.08743525459296
F         1.75050302505992   -2.09543268263600   -5.07927903639107
156
 energy: -507.013988740411 gnorm: 4.979355300720 xtb: 6.4.1 (a3dbbd7)
C        -1.23740984111804    0.00689687870396    3.31929336463056
C        -0.38128783246849   -1.17092099629952    3.31202074634242
C         1.00701608151825   -0.72184756208998    3.32029357732505
C         1.00041172666258    0.72454520236142    3.33508319652027
C        -0.38257963219775    1.17457917757043    3.33620568204944
C         2.34161936927300   -2.60057706465769    0.60181305377949
C         3.21007795693570   -1.43192430810997    0.60014786022229
C         2.95210763195680   -0.69591872693425    1.83439297305610
C         1.97061463308025   -1.42769240916891    2.58442499953222
C         1.58769548836270   -2.59618454295106    1.82771499343272
C         3.20889264265828    1.43052982038725    0.59892730341209
C         2.34191259065603    2.60413587280154    0.58941289097016
C         1.57950658204518    2.60272401957824    1.82419807253354
C         1.96246177982955    1.41901961159137    2.59228768682765
C         2.96194241384472    0.69197313356377    1.83104704891671
C        -0.37728305739356    3.47716971966365    0.60185488725470
C        -1.74114073347131    3.03491800564631    0.58947467327975
C        -1.98238654670738    2.31013749044109    1.82422662767352
C        -0.73864071276376    2.30086518497992    2.59009619245380
C         0.24582009051975    3.03834190618328    1.82947729230131
C        -3.42551739534543    0.71534436696776    0.59861895273771
C        -3.42121815463218   -0.72148442965563    0.58649422027792
C        -2.81678595184183   -1.17707035158403    1.83386077808648
C        -2.42874240204083    0.00086182623026    2.59164674284221
C        -2.80619672323754    1.15920141782789    1.82190642775384
C        -1.74942398643167   -3.03058534952166    0.59302863676549
C        -0.37444081182083   -3.48396425477084    0.59750403824175
C         0.25570924864041   -3.02775242994170    1.81772684460615
C        -0.75209186482607   -2.29909395382581    2.56920453268140
C        -1.98182269444365   -2.31511077094594    1.82592484771899
C        -0.25007685290300   -3.03538876211928   -1.83280871511274
C         0.74872703218636   -2.30982260373349   -2.57525360143943
C         1.98269237953264   -2.31201120102642   -1.83014113650442
C         1.75201720551352   -3.02733934536185   -0.59453460173829
C         0.36129992404964   -3.47975395097675   -0.59601061462303
C         2.81591356843608   -1.17440301180542   -1.83533719015278
C         2.42449758145692    0.00058917018933   -2.59323781633834
C         2.81808777709968    1.17811954560461   -1.83603480092420
C         3.41957124346273    0.70879741229725   -0.59661498698211
C         3.41984745927006   -0.70841359107840   -0.59577153844478
C         1.97452512135718    2.31643837392477   -1.82583652455819
C         0.74793820949740    2.30674943975511   -2.58923601058918
C        -0.25328608874845    3.02691187302070   -1.83703027487852
C         0.36996371177059    3.49522887585354   -0.60028303278923
C         1.75128222461738    3.02138766923266   -0.59950796881318
C        -1.57905010631382    2.59890088585166   -1.82940977739204
C        -1.95978012927786    1.42566641969504   -2.59247639048189
C        -2.95800771099611    0.70384585837146   -1.83559255131349
C        -3.20660466494277    1.43273537204591   -0.59973901850797
C        -2.33925146711460    2.60437700125502   -0.59942816000888
C        -2.96267736401956   -0.69539219121967   -1.82479265319949
C        -1.95516030853558   -1.42761974130981   -2.59061183904740
C        -1.58707831110230   -2.60427670753514   -1.82640513043993
C        -2.34322393554884   -2.60012247291021   -0.59453126352563
C        -3.19805264902418   -1.42914860770923   -0.58795993216648
C        -0.99893432593187   -0.72196563593806   -3.33447861683549
C        -0.99840171796438    0.73150823254077   -3.32735478541894
C         0.37548681912508    1.18172733760664   -3.32927299953228
C         1.23854697592712    0.00839394010845   -3.32187189392295
C         0.37458937460006   -1.16821758294877   -3.32673813120380
C        -1.79650543328878   -0.01351302703494    4.72844458812215
F        -0.82257575458700    0.14453896709033    5.74067183932136
F        -2.61054173655482   -0.95403781677444    5.06046148476807
F        -2.51099177213987    1.06834973101077    5.06680781446467
C        -0.57383395948101   -1.71537477724220    4.66255634053477
F        -0.25661534109619   -0.80423927911996    5.80568782335962
F        -1.70248517786802   -2.08340383319860    5.13516730146136
F         0.16078461756016   -2.70707078739202    5.14018590506971
C         1.45161613316789   -1.06410760095351    4.73150604871619
F         0.75407244284913   -0.36472828132664    5.73987665960748
F         1.55599065301047   -2.31779030205661    5.05384334273324
F         2.66040947861161   -0.61425696690808    5.05730375582237
C         4.58997832337819   -2.05343099978453    0.86795914470617
F         4.59878424495793   -2.78379543455439    1.98445215816808
F         4.98347839955236   -2.85617072078271   -0.10848852902451
F         5.53909007078798   -1.13151404968270    1.00444343906473
C         4.59134397444083    2.04679181310980    0.85381199623261
F         4.65635132960387    2.76743806953063    1.93110884427134
F         4.97876770447480    2.86218606809232   -0.11244915709107
F         5.53998437199334    1.13075604665885    1.00391124162813
C         2.25511498687598    3.73671980463126    2.62075184202316
F         3.56890565452339    3.60671703239240    2.73275282568987
F         2.14481914403978    4.92040346924855    2.04211983393800
F         1.76860958220008    3.96125956375955    3.79769465311150
C         2.80833666693117    2.03630946846269    3.72707001154454
F         3.85406920427505    2.72814400279348    3.30383358577646
F         2.15050218148315    2.75705680112067    4.58158366572444
F         3.38080247737044    1.13485773841470    4.50411218435802
C        -2.81496261887973    3.22285393852739    2.62817456544478
F        -2.29368011033782    4.60006219658373    2.69616621628752
F        -3.99548027263616    3.68220441592008    2.01358997945668
F        -3.17556855332990    2.98381537524240    3.81416390424204
C        -1.07245211022048    3.29143174534510    3.71703046029769
F        -1.38127614656641    4.54360026843395    3.26902272522323
F        -1.94608131870116    2.90194895405000    4.59350429404239
F        -0.03592870353197    3.56101187276994    4.51165154551328
C        -4.03993530829794   -1.67620365171983    2.62202347070877
F        -4.97752856442182   -0.79809146914954    2.75325798134617
F        -4.62556548944648   -2.72287763952653    2.04229775228617
F        -3.72881461661954   -2.06121366055768    3.85927604583042
C        -4.02790958188173    1.64692390130796    2.59150856328426
F        -4.97881828298474    0.79759526393745    2.75550733778557
F        -4.71581468602883    2.65206783041634    2.03109196628841
F        -3.78001067969189    1.97761646574815    3.92103406020614
C         0.37094781975506   -4.33486936233177    2.62328421051468
F        -0.80850281153969   -5.03545558521588    2.69773645436476
F         1.15688997153983   -5.24248812160907    2.04968612347981
F         0.92732331183478   -4.24434076164632    3.79836496487508
C        -1.01185881014676   -3.26570776359534    3.67932560447761
F        -1.57751538256801   -4.52540217018813    3.26106418517836
F        -0.13459903576016   -3.60083873954711    4.55018448937524
F        -2.17259375643690   -3.00592049243256    4.47604614437523
C         1.05720163775985   -3.29924158246485   -3.67722825236407
F         1.45910773223680   -4.48597749402268   -3.30480461932186
F         0.02920048440250   -3.69874454612777   -4.44929010278841
F         2.14693120062784   -2.97873806171434   -4.48277821674946
C         2.51931823654754   -4.34293203664402   -0.83900056248128
F         2.18242104560684   -4.95987379943454   -1.97102577021166
F         3.81047136381206   -4.18108527255210   -1.00498832354538
F         2.47143354500170   -5.20452698089916    0.12447101431384
C         0.51859867307387   -4.99314988621016   -0.84111608366124
F         1.14935934725570   -5.29422762989260   -1.97004650240478
F        -0.64218817666829   -5.61853946539821   -1.00628071312705
F         1.05832782835985   -5.66526876076357    0.11547475184062
C         4.04240816636004   -1.67285451933720   -2.62231772937641
F         4.97571281620222   -0.79919257002041   -2.75271976988573
F         3.72711846980755   -2.06184881379208   -3.86011888829394
F         4.62773452420921   -2.71687036506482   -2.05620443906791
C         4.03883488243112    1.67832495892447   -2.62657795240605
F         4.97613355730882    0.79870003751207   -2.75252684943833
F         3.72013737572455    2.06363460453159   -3.85877644569361
F         4.62359009890570    2.72160471002516   -2.05144538119401