156
 energy: -518.010529485289 gnorm: 0.598715864851 xtb: 6.4.1 (a3dbbd7)
C        -1.23554567412266    0.02910765468441    3.44854065289740
C        -0.37751774723363   -1.21411345387776    3.43031904024478
C         1.06650345337798   -0.74830734876510    3.45620266701109
C         1.04017318700432    0.77586452346973    3.43544565924099
C        -0.36668343229887    1.19415803729838    3.25585975485107
C         2.45053180391040   -2.66399157747897    0.64339590559695
C         3.19115200663294   -1.36876732184444    0.60810453674170
C         2.93460480096246   -0.71415415559072    1.76142563046614
C         1.94087789927455   -1.42075741600094    2.49032985496713
C         1.57181131883350   -2.51380550000493    1.81752399273941
C         3.16862480915772    1.45356899860604    0.56018595164520
C         2.36445973561886    2.58985657119967    0.59002603144495
C         1.58050083979331    2.56863636331228    1.80740560378681
C         1.94373860971590    1.44979019980813    2.51499803105720
C         3.06682602998584    0.74487562023718    1.87585633395560
C        -0.36869211583504    3.60660860462176    0.62712737186846
C        -1.71347007661993    2.96815766213365    0.55457347015169
C        -2.04610896304334    2.40672777932515    1.88961038783510
C        -0.70343831149592    2.27120878467767    2.53514292848083
C         0.25992262264730    3.01045640461676    1.84350079904813
C        -3.34478360393051    0.69822527727762    0.61294154507730
C        -3.40507751061185   -0.70103944476931    0.54694759513591
C        -2.93479008345359   -1.21876812100724    1.86327519323562
C        -2.51996464815175    0.01314573564473    2.64745468898426
C        -2.78535502484043    1.14814306199110    1.74604467306608
C        -1.67598637636259   -3.00420616349672    0.58250793681097
C        -0.37068650082183   -3.40724884895627    0.56365472925445
C         0.26100875146696   -3.14452404165318    1.88862987212464
C        -0.72746078599012   -2.28182402541391    2.52584528267977
C        -2.03403075618014   -2.42518372352769    1.88650825129751
C        -0.22660401423230   -3.12941758284618   -1.88222333044806
C         0.74285607394757   -2.26564550489226   -2.53675360606211
C         2.04999277911040   -2.36471190881850   -1.89124534830213
C         1.80259602273083   -3.16897504269001   -0.61641491880287
C         0.35556073642306   -3.43692558202452   -0.56244592856728
C         2.79748054851996   -1.11897672740390   -1.73655064410165
C         2.54198367880881    0.01889867682057   -2.64720539708408
C         2.79771839100323    1.20223038439537   -1.77699055190791
C         3.42274263510067    0.75191695312121   -0.59958951547812
C         3.41291681595622   -0.69850220785222   -0.60661490189875
C         1.99145703649478    2.29812380489717   -1.82245812113317
C         0.77090437437308    2.25332826330164   -2.57450936637657
C        -0.21096330805475    3.14342551241186   -1.89434119632479
C         0.42802666557947    3.41047923497996   -0.58592905816956
C         1.74005216800115    3.01985586470803   -0.60032942597739
C        -1.65736765794197    2.68526518389270   -1.90142806516841
C        -1.91850054722999    1.38969078953483   -2.57142180632168
C        -3.06128479845626    0.72511291424965   -1.91277401655084
C        -3.31671111515385    1.49419565335540   -0.61352609643279
C        -2.27176922048667    2.54739438487182   -0.55566010012170
C        -2.92059364088516   -0.73523336641383   -1.80527979785104
C        -1.94320987882864   -1.36090931487153   -2.55696347697741
C        -1.66557313736578   -2.67686760121155   -1.92006876959541
C        -2.43906627851510   -2.67644848559237   -0.60710814016586
C        -3.15637450485639   -1.37148745136413   -0.60308004187350
C        -1.03210941154027   -0.69323537933650   -3.30196972524188
C        -0.99986871763263    0.72933781262662   -3.29602631048061
C         0.35539250957457    1.19644793619290   -3.27770706174635
C         1.25875151992917    0.02672115011227   -3.46053230072633
C         0.35985849954036   -1.20322043275552   -3.42460333585198
C        -1.77865448711264    0.16521965653054    4.90600204488502
F        -0.95785294254878    0.44054276282297    5.98890215960490
F        -2.35271665381058   -0.76471990344542    5.56653005141598
F        -2.23832946887522    1.36362368221129    5.24372514226296
C        -0.59125839121080   -1.88809672906774    4.82220027867189
F        -0.51104615507264   -1.35678639597117    5.96595616478499
F        -1.75229838514357   -2.43406385082375    5.01591000891650
F         0.03398965663917   -2.98473906624488    5.07583848063672
C         1.65820833636962   -1.16872000505030    4.79763062026019
F         1.30744436682573   -0.76750965681676    5.95421287505607
F         1.80556228531242   -2.45792617280838    4.96942960342326
F         2.94780700614885   -0.89623917833316    4.91102158066465
C         1.48483780265954    1.25109321442714    4.82527633277757
F         0.74343293588445    1.06470621970739    5.81806941591569
F         2.70551757214577    0.98873963203650    5.14026516738349
F         1.44210053747803    2.58375650030471    4.90623686717600
C         3.52969608005252   -3.68786333227750    1.03125372153118
F         4.12662281007458   -3.35160801255498    2.16660426810040
F         4.59209503351022   -3.59853813655223    0.25473978467331
F         3.11991666416394   -4.83233534004870    1.44658243065511
C         4.33399191765781    1.04339882527963    2.65122015093933
F         4.47333956997238    2.35339327525888    2.75876138392749
F         5.36997045795564    0.52352581472451    2.02026019316547
F         4.31285397208675    0.50404122009408    3.83341674314536
C        -0.49308822926106    5.09628213084575    0.84822112117231
F        -1.05098124302103    5.44763570986197    1.94615955813569
F        -1.21298082543969    5.66181650332885   -0.08066907131334
F         0.71192035399953    5.63235976521693    0.95273591650516
C        -2.91383441182383    3.35756741631310    2.67388243090170
F        -2.39872825555456    4.50332914996240    2.93132632628663
F        -4.04824927847476    3.56622007699500    2.06986873442044
F        -3.10458109005826    2.96817824367442    3.89873951278558
C        -4.20382018684464   -1.72891302406730    2.50164151282637
F        -5.29786700467219   -0.89195830045165    2.40861581233609
F        -4.99435559751189   -2.49148762928375    1.79636789368830
F        -4.36633521029932   -2.20368850010583    3.66124206836846
C        -3.47800498330765    0.12577313665655    3.80479920588826
F        -5.07061680804509    0.52026898506592    3.30890075591452
F        -3.93876125430279   -0.70100871961570    4.62135881302264
F        -3.82980586752044    1.21456626190517    4.33525427717040
C         0.42938125370926   -4.44471320418318    2.65330904822014
F        -0.58869451860927   -5.17721832767208    2.79793867119647
F         1.18124450463528   -5.29813321997807    2.02822639697617
F         0.92798355014989   -4.25404810652126    3.82946074239670
C        -2.82857390594379   -3.50243812622989    2.65072519310705
F        -2.33456945978500   -4.68653008158759    2.69740296711438
F        -3.88636151200742   -4.00077400601294    2.10368697087883
F        -2.89142701865682   -3.36932672824784    3.91876347210396
C        -0.29189768558323   -4.48759447454977   -2.65680190139167
F         0.75058767231311   -5.15638546817986   -2.89884346054798
F        -0.43846403395575   -4.40532654771058   -3.95721025308845
F        -0.79124331008144   -5.45693058404207   -1.86618882795730
C         2.96409584520831   -3.26612683091459   -2.75496155097792
F         2.49216573620842   -4.36128928997018   -3.21756848801644
F         3.19966747438864   -2.84224311682277   -3.94808903551493
F         4.19907689732159   -3.29040774321695   -2.28011768951395
C         2.43224703279285   -4.56214397578949   -0.84066960692805
F         2.11748408005760   -5.42780532635778   -1.74176776552537
F         3.69621904422289   -4.68175490744372   -1.08371312605308
F         2.03702561749559   -5.46707619632739    0.02440480445995
C         3.70210737745262    0.01490537555248   -3.65948570101316
F         4.87354858318423    0.00107117747619   -3.03052771878368
F         3.87995730925763   -1.07310897065339   -4.32440207999975
F         3.88011499067135    1.15027754766556   -4.27182898102061
C        -0.16255783131028    4.45823626981519   -2.67777364059254
F         1.07848364862487    4.94329856315747   -2.70795187589908
F        -0.32723619909360    4.32370247352034   -3.95651782311801
F        -0.71150642549479    5.48182967780527   -2.12269708655318
C        -2.39697737081921    3.77846809589529   -2.68423711676411
F        -3.65345377523303    3.70249649519567   -2.87305885120532
F        -2.15750138646441    3.70193492682022   -3.98529906266813
F        -2.53978673845320    4.88974723092032   -1.96742135369915
C        -4.29639961650692    0.89547448616618   -2.78501965784063
F        -4.59626481746344    2.05814801640645   -3.22587519874864
F        -4.11813770947563    0.33922811250967   -3.97918142515059
F        -5.34949737140767    0.27856508271144   -2.31445761327229
C        -4.69359624486311    2.11419845502072   -0.71678382943876
F        -4.91314034167816    3.02350753581077   -1.58979840010072
F        -5.65973975069015    1.23054800002238   -0.68646939778478
F        -4.97741584657393    2.87553232991576    0.31996007176354
C        -2.38655236736883   -3.67408754508289   -2.82547285641233
F        -3.68601483828372   -3.35661409568942   -3.25325964850586
F        -2.12390354054775   -3.63190205640215   -4.08168180472197
F        -2.54869074178956   -4.90170043874009   -2.50015741501191
C        -3.48614727944634   -3.78518676171996   -0.74103698770263
F        -4.42465736297680   -3.52108087340230   -1.58848232139125
F        -2.91053107167239   -4.97603075645706   -0.63091830892641
F        -4.34761848897528   -3.83187218122513    0.22103206815618
C         1.73164743955267    0.17635590115734   -4.89636834687946
F         0.74322586078799    0.50898374789798   -5.90136180832056
F         2.23207455462214    1.31776547137151   -5.23913590550647
F         2.37847766307520   -0.71830741394408   -5.52332251848807
C         0.44802649489213   -1.81618331960970   -4.84913034115679
F        -0.10930109353885   -1.11210746864987   -5.76307648230060
F        -0.36201614500702   -2.79767482432070   -5.06057465628471
F         1.59001450500914   -2.39562212630872   -5.09507034752855
