63
 energy: -142.059775566445 gnorm: 0.141074137021 xtb: 6.4.1 (a3dbbd7)
C        -1.32333194775417    0.00617886347970    3.59125188963251
C        -0.38909456310608   -1.27772716531095    3.58793274117145
C         0.98734837171535   -0.72675165446744    3.28582848483634
C         0.97037352147027    0.69420630050098    3.25749094477592
C        -0.37633960723915    1.14742685553706    3.29074190055216
C         2.33092254703306   -2.58746567485154    0.56610397604514
C         3.16875994483946   -1.41579758165486    0.56774606192583
C         2.91978889080344   -0.69314490348597    1.79074016083681
C         1.93018806170321   -1.40549148670748    2.54814074589443
C         1.57476788296703   -2.59634073810083    1.79100274817011
C         3.18328087896891    1.41909085132624    0.57258499213333
C         2.33432229320876    2.58580968143883    0.57559918777772
C         1.57332139543398    2.57095369604789    1.79851755002390
C         1.94352282881158    1.40414426944103    2.54285112768194
C         2.93804115459266    0.69543633516321    1.79366637265872
C        -0.36752716666001    3.44413435035873    0.58029879258012
C        -1.74013210357057    3.00741588983283    0.58054459941955
C        -1.97818665379860    2.28654468588757    1.80361199533287
C        -0.73393250395930    2.25581684802015    2.55761528373596
C         0.24647420110131    2.98080949443068    1.80023381740862
C        -3.39591089216029    0.72883802558845    0.57533866561121
C        -3.37932885665645   -0.70504006359254    0.57786353554246
C        -2.74934612856665   -1.12865052488571    1.82052481704193
C        -2.40026274086307   -0.01382700939334    2.55826017594831
C        -2.77435746218519    1.16021035149421    1.80187148511327
C        -1.70577977915925   -3.00504292266898    0.57191390059864
C        -0.34657433486683   -3.46193150719564    0.56452064530943
C         0.25810980605866   -3.00738238851431    1.79111395103090
C        -0.74203335365356   -2.29289841924391    2.55243835495534
C        -1.91196172287597   -2.27950749485726    1.81757326885181
C        -0.23558165862281   -3.01371296632646   -1.83961821271520
C         0.75175047781152   -2.28700579367404   -2.59867644532734
C         1.98089777627659   -2.28868303835222   -1.84308617931945
C         1.74918768154887   -3.01946296828987   -0.62050040464920
C         0.38088379041600   -3.46658963937948   -0.62079308111870
C         2.79204993046375   -1.16413556659148   -1.83875967224219
C         2.41002754086118    0.00666527739579   -2.59106683151125
C         2.78807241943814    1.16926264052202   -1.83130610074559
C         3.40298548527550    0.72369088805355   -0.60835037131266
C         3.40110069057525   -0.71955382898331   -0.60923004493565
C         1.96912615256614    2.29475463280888   -1.82840259178522
C         0.74474441569639    2.29528025280401   -2.58515694980539
C        -0.24988429155059    3.01642431380723   -1.82795956514323
C         0.36353023978106    3.45499162487799   -0.59844520421847
C         1.73735095077191    3.01278425815446   -0.60243935985793
C        -1.56944867307335    2.59059487249377   -1.83048045584010
C        -1.94787757007795    1.42311330884846   -2.58910001301826
C        -2.94122296022124    0.70465889669871   -1.83002690890673
C        -3.17947337159538    1.42642572884929   -0.60816005298080
C        -2.33307692209202    2.59081264516620   -0.60600270171083
C        -2.93172079240255   -0.68656028280689   -1.82266620418654
C        -1.94059925011627   -1.40887980593779   -2.58138532694875
C        -1.55636984787224   -2.57670213587000   -1.82754179967090
C        -2.29848528094837   -2.57416283302738   -0.59738768824741
C        -3.15456863482430   -1.39758782868201   -0.59434922362650
C        -0.98936986995949   -0.71482485845558   -3.31408037280858
C        -0.99159024528376    0.72723605185279   -3.31429029098428
C         0.38014149579772    1.17201579903766   -3.31523274930469
C         1.22728121177112    0.00778684511203   -3.31823795360647
C         0.38205649969615   -1.16057927312445   -3.31917058806611
Cl       -2.09995733548554    0.29360223981566    5.20530702406437
Cl       -0.35034641589922   -2.11046483688082    5.19906768498811
Cl        2.95342062674764   -2.12844718678569    3.85444475857947
63
 energy: -142.083911027791 gnorm: 0.062116053162 xtb: 6.4.1 (a3dbbd7)
C        -1.33436148589557    0.01078700158761    3.59237730117759
C        -0.40107343061838   -1.27280211078188    3.59156558278916
C         0.97073390496005   -0.71577491441681    3.30186905898345
C         0.95694161779117    0.69049331753289    3.24478111025777
C        -0.38886485773116    1.15271024541437    3.29173254314242
C         2.32734034459197   -2.58168770145492    0.55813861093148
C         3.16668657497542   -1.40888890205235    0.55883854435606
C         2.92792014488376   -0.68690685374783    1.77229208226353
C         1.99426259556024   -1.44997312310941    2.61899419834262
C         1.57027602770742   -2.59346180896134    1.77504547491072
C         3.18640423733601    1.42170497771037    0.56314562492135
C         2.33475599927699    2.58526254261356    0.57135268825336
C         1.57294907668401    2.56804805083179    1.79589642648622
C         1.94238282593866    1.40565710112190    2.53742223054592
C         2.93437724061633    0.69543628457077    1.77824175350661
C        -0.36758753744618    3.44343673629057    0.58193903868232
C        -1.74152681962553    3.00651046160632    0.58128607813753
C        -1.98384976088195    2.28801496798717    1.80362131231454
C        -0.74091615527458    2.25820310439945    2.55758475842470
C         0.24421785805852    2.98306361038957    1.79898445228314
C        -3.39926960929155    0.72887073214437    0.57439146245504
C        -3.38307891726429   -0.70522131100192    0.57661039067241
C        -2.75462549861679   -1.12829712773656    1.81949961862113
C        -2.40877251141502   -0.01225325772495    2.55751641335852
C        -2.78098135205040    1.16092038291729    1.80187333593331
C        -1.70647283957985   -3.00209233253148    0.57011995508244
C        -0.34889927359438   -3.46349794250526    0.56117511080319
C         0.25474447917805   -2.99470283294445    1.78074695642441
C        -0.74371168524955   -2.28419401830347    2.54954048335518
C        -1.91393511661602   -2.27567713389940    1.81505663230631
C        -0.23628424786320   -3.01354098414243   -1.84190809755501
C         0.75134427036074   -2.28659679273914   -2.60136155324665
C         1.98113425473308   -2.28812375960950   -1.84827865077375
C         1.74752350569729   -3.01932459719692   -0.62711202685102
C         0.37981358502815   -3.46769809907014   -0.62463224655310
C         2.79344133286670   -1.16251769481619   -1.84515994506121
C         2.41040825874532    0.00847615627418   -2.59698445610281
C         2.78946472120934    1.17153325267862   -1.83871294928324
C         3.40781847899986    0.72602070294229   -0.61820616616394
C         3.40601894233578   -0.71504855056756   -0.62088632184753
C         1.96979967340999    2.29588032814383   -1.83236466387731
C         0.74453068734905    2.29590315782483   -2.58620627511977
C        -0.24961637830083    3.01706251394786   -1.82683114932148
C         0.36371947607691    3.45556310887008   -0.59990166167505
C         1.73741489213508    3.01291383674037   -0.60525583620010
C        -1.57041144002273    2.59092421244753   -1.82991217298623
C        -1.94827567482964    1.42402948685619   -2.58833276568680
C        -2.94243073151188    0.70500969298753   -1.83028558893229
C        -3.18092508955777    1.42625770960684   -0.60862398201210
C        -2.33365213924419    2.59032374411315   -0.60579813131214
C        -2.93292183068229   -0.68606137745837   -1.82332768801370
C        -1.94137432059208   -1.40847144960997   -2.58173701480699
C        -1.55739456818183   -2.57620635161362   -1.82904577321602
C        -2.29960955122520   -2.57322994935089   -0.59902921930091
C        -3.15639317424178   -1.39719717951871   -0.59560784012866
C        -0.98974506804167   -0.71367199711966   -3.31447952644404
C        -0.99221146446642    0.72799895544358   -3.31436701133299
C         0.37934915325104    1.17307077541826   -3.31641957036167
C         1.22643283020128    0.00893614632795   -3.32102027655334
C         0.38115306423018   -1.15964242447498   -3.32074583228047
Cl       -2.10693027952569    0.29774019564849    5.20675373706266
Cl       -0.36062073262532   -2.10793808535311    5.20615547543551
Cl        3.03351971497772   -2.19329843282848    3.95882424641394
63
 energy: -142.090694188801 gnorm: 0.015288160943 xtb: 6.4.1 (a3dbbd7)
C        -1.34137020172788    0.01039773492465    3.59051009653729
C        -0.40052986435403   -1.26812807549136    3.58948187755340
C         0.96608109805267   -0.71238046741492    3.29872387978371
C         0.95142103788069    0.67541919327324    3.22681755023705
C        -0.39560148161412    1.14857496822236    3.28314208024215
C         2.32202027979762   -2.57334991817469    0.55881346273936
C         3.16255221455394   -1.40175226106026    0.56033337292846
C         2.94065040365549   -0.68865624777104    1.77224961013484
C         2.05798553034438   -1.49258643190664    2.68664422971100
C         1.57384666307389   -2.59084269188440    1.77454056331118
C         3.18210889910775    1.41728900607762    0.55819475748905
C         2.33300859723604    2.58204280580023    0.56723279373130
C         1.57098181284541    2.55995569652989    1.79301506749603
C         1.94440047066839    1.40452794916261    2.53427391062895
C         2.93471937514269    0.68861216268955    1.77326333751843
C        -0.36888555376723    3.44095221605076    0.58210655277001
C        -1.74476981667666    3.00617347688530    0.58032982501350
C        -1.99055744848842    2.28988669607869    1.80259712909485
C        -0.74625362801556    2.25487414430990    2.55372561638075
C         0.24107809173024    2.98198642231506    1.79558842836060
C        -3.40504696547427    0.73078981167762    0.57261678432196
C        -3.38780958285590   -0.70359865745526    0.57523178775580
C        -2.76044575341192   -1.12608696677570    1.81907726689829
C        -2.41794267177205   -0.00984560323773    2.55718687194132
C        -2.78933701655842    1.16306243422813    1.80136257114316
C        -1.70477771351737   -2.99502850965408    0.56944332676619
C        -0.34623137894741   -3.45239700388513    0.56127579796419
C         0.26003274114562   -2.98197599346726    1.77958930135278
C        -0.74362395949480   -2.27701515935459    2.54958179995131
C        -1.91347853698647   -2.26988794789751    1.81494627023735
C        -0.23703798879956   -3.01117082027643   -1.84424249812689
C         0.75039901122710   -2.28405237196318   -2.60486786978912
C         1.98012561130542   -2.28539871776026   -1.85256623257843
C         1.74526684378889   -3.01290830435121   -0.62880941694088
C         0.37974220894031   -3.46061826705111   -0.62638076963294
C         2.79276715436523   -1.16013770714194   -1.84961100298704
C         2.40943289200086    0.01026352563016   -2.60335076665263
C         2.79008728958536    1.17341369010493   -1.84584077944203
C         3.40758932256707    0.72556206134602   -0.62494957041620
C         3.40541016996653   -0.71210912918085   -0.62582973755726
C         1.96921186809128    2.29679715340804   -1.83709268833364
C         0.74311577721606    2.29672716566895   -2.58877292885306
C        -0.25088845178055    3.01736079732473   -1.82692633796524
C         0.36233450165266    3.45559953522804   -0.60261937242471
C         1.73607104442129    3.01226896921660   -0.60817151872265
C        -1.57274148110916    2.59145085917910   -1.83096486918413
C        -1.95023669313005    1.42562804395870   -2.58941762686047
C        -2.94494892771743    0.70643752385793   -1.83172903553930
C        -3.18453082463238    1.42750515653523   -0.61038231280797
C        -2.33617737168157    2.59092964048550   -0.60724223708149
C        -2.93504164393907   -0.68446044230251   -1.82450868900864
C        -1.94306127986221   -1.40682054937899   -2.58276254253351
C        -1.55866431947039   -2.57392573970699   -1.83060512702095
C        -2.30023303012756   -2.57032468147834   -0.59983081563051
C        -3.15892571440334   -1.39523045477865   -0.59686760373669
C        -0.99157927573917   -0.71147517172180   -3.31626988635224
C        -0.99450563600427    0.72965996763792   -3.31639128715911
C         0.37713381671378    1.17485898576337   -3.31967485042394
C         1.22446461620267    0.01090016545097   -3.32590836463593
C         0.37891751368544   -1.15744488930679   -3.32450456050701
Cl       -2.11167602100698    0.30527736454938    5.20291669352912
Cl       -0.37020426546482   -2.11048293473186    5.20412899977476
Cl        3.09431386866862   -2.24232881026187    4.04898798124070
63
 energy: -142.091084127108 gnorm: 0.009156144237 xtb: 6.4.1 (a3dbbd7)
C        -1.34025777313473    0.00969493257328    3.58788774513617
C        -0.39851642079369   -1.26880242764268    3.58988125263870
C         0.96894914161481   -0.71554304524787    3.29675178459918
C         0.95285916946432    0.66836122067426    3.22174874798751
C        -0.39522479808923    1.14580833641680    3.27732742823270
C         2.32141010124920   -2.57045312497169    0.56204527099438
C         3.16328596492634   -1.40015052526918    0.56400373852804
C         2.94990249598579   -0.69306035179526    1.78122533862010
C         2.07550787138703   -1.50478114241993    2.70446609223981
C         1.57963702312993   -2.59230295366877    1.78223907882422
C         3.17917396062596    1.41341956573623    0.55786983367189
C         2.33115580001651    2.57893046076169    0.56538081202684
C         1.56970270327361    2.55598192872708    1.79127292546510
C         1.94630677942251    1.40407505632471    2.53388388168394
C         2.93772932407278    0.68504867024219    1.77579110664606
C        -0.36989922166287    3.43921308958840    0.58083669594054
C        -1.74669986666116    3.00602605495594    0.57918318368314
C        -1.99335805222779    2.29032023616211    1.80162010033131
C        -0.74734955267928    2.25245571309172    2.55086475745578
C         0.23992255071986    2.98014739876332    1.79278694271044
C        -3.40840191576455    0.73169268836499    0.57168766501945
C        -3.39041426052422   -0.70287226536810    0.57428691778742
C        -2.76259738875547   -1.12497087494783    1.81849158858849
C        -2.42044895987055   -0.00920142539110    2.55671249115903
C        -2.79299622897156    1.16394930095173    1.80095703286762
C        -1.70282831703688   -2.99021403782377    0.56908730620956
C        -0.34344288802415   -3.44397701261803    0.56217448494405
C         0.26410855570811   -2.97866788314020    1.78268426519837
C        -0.74419478040038   -2.27618378410717    2.55076265304979
C        -1.91289415018258   -2.26731862155185    1.81524544992011
C        -0.23730839397872   -3.00882273758516   -1.84478118844531
C         0.74990568811926   -2.28218688693273   -2.60606688090505
C         1.97916845069466   -2.28288493221921   -1.85300480617240
C         1.74480847070660   -3.00769878056389   -0.62722773273036
C         0.38023962054788   -3.45499129156727   -0.62601129211669
C         2.79155267893130   -1.15840954322884   -1.84997712517573
C         2.40880922917345    0.01131826008032   -2.60563253655398
C         2.78991544702561    1.17428134147739   -1.84822875526646
C         3.40634767651777    0.72491311537441   -0.62630040883194
C         3.40366406940562   -0.71171522108727   -0.62510200358032
C         1.96825726175457    2.29707406908892   -1.83942106373690
C         0.74202690260704    2.29740388836087   -2.59090657122752
C        -0.25217223394154    3.01747605692725   -1.82811687736831
C         0.36120817052375    3.45526881982271   -0.60450778540478
C         1.73475183800062    3.01114442310554   -0.60958064555422
C        -1.57439366292226    2.59183219545557   -1.83222810683767
C        -1.95178435906621    1.42634937741306   -2.59071461012673
C        -2.94688169621374    0.70732725003237   -1.83303841438297
C        -3.18708541431469    1.42826001139448   -0.61157190771066
C        -2.33817252170310    2.59139484190354   -0.60852408665240
C        -2.93660420265057   -0.68352635932936   -1.82568168848714
C        -1.94422917549104   -1.40561498530036   -2.58393606061966
C        -1.55906626138277   -2.57185914659846   -1.83127885105836
C        -2.30008955244635   -2.56807639918804   -0.60015527825811
C        -3.16062283607283   -1.39413566210304   -0.59784031314320
C        -0.99277225920396   -0.71035596629200   -3.31792732149034
C        -0.99598248372056    0.73061569613471   -3.31813672525796
C         0.37586687608896    1.17589124466601   -3.32215278110131
C         1.22363358883951    0.01208691243205   -3.32852935416474
C         0.37781881355998   -1.15620720006078   -3.32666601626589
Cl       -2.10685613998993    0.30488145354112    5.20126527759735
Cl       -0.37595306467712   -2.11053942840251    5.20589561655845
Cl        3.10202883556354   -2.25435519737461    4.06776801794581
63
 energy: -142.091188414518 gnorm: 0.005303429048 xtb: 6.4.1 (a3dbbd7)
C        -1.33956777657172    0.00989485717685    3.58792500465047
C        -0.39780851720752   -1.27029890093588    3.59089518754314
C         0.97044546918453   -0.71804337779552    3.29463827739636
C         0.95408009988776    0.66417946123647    3.21957366962193
C        -0.39469445927198    1.14393991134294    3.27370169893026
C         2.32054835527867   -2.56849376894596    0.56339065444289
C         3.16329813875195   -1.39899224022107    0.56597740565205
C         2.95442997607548   -0.69547710466375    1.78708081940942
C         2.08240031636952   -1.51035292802627    2.71179574161083
C         1.58232332983292   -2.59233441150849    1.78672478574438
C         3.17758544642889    1.41128041968825    0.55816291457990
C         2.32992149361875    2.57708767618125    0.56485217512273
C         1.56891343789205    2.55419946546845    1.79080425356431
C         1.94721552865443    1.40443583606019    2.53413470452912
C         2.93880834774910    0.68338952708765    1.77742817482960
C        -0.37032851352745    3.43826637464153    0.58042609811091
C        -1.74757250035542    3.00582841084915    0.57893295561999
C        -1.99460133806754    2.29015851631892    1.80128792670936
C        -0.74764227583245    2.25087076700440    2.54956999907923
C         0.23937479746286    2.97918950536731    1.79147211971772
C        -3.40992639685707    0.73170526463961    0.57156829356512
C        -3.39167288628649   -0.70299116042081    0.57406465143806
C        -2.76368784622152   -1.12485613231730    1.81856900469277
C        -2.42132765525628   -0.00942538202076    2.55692881490905
C        -2.79443365641915    1.16396668381055    1.80097437646448
C        -1.70156583275867   -2.98765192091878    0.56879775331044
C        -0.34183784723503   -3.43936771602838    0.56222986030564
C         0.26594301855177   -2.97658779105555    1.78371328718413
C        -0.74511268199656   -2.27657176513666    2.55150539733422
C        -1.91277825228560   -2.26657421597500    1.81572524612397
C        -0.23748288184172   -3.00800749243323   -1.84532766749952
C         0.74972987058616   -2.28165802824761   -2.60675623126051
C         1.97861809157421   -2.28154347365420   -1.85308631059344
C         1.74449914636147   -3.00472074716774   -0.62638498899395
C         0.38044793230473   -3.45247124431938   -0.62605380798156
C         2.79071874537941   -1.15742121834860   -1.84968353160242
C         2.40875462655644    0.01203038858309   -2.60639073899358
C         2.78994210583722    1.17497620560055   -1.84910776864821
C         3.40578974426320    0.72488325124380   -0.62655439131731
C         3.40220614290690   -0.71145458212746   -0.62426319530922
C         1.96779299311679    2.29731001397189   -1.84019935375475
C         0.74169667048087    2.29780123874751   -2.59178750905302
C        -0.25262873689076    3.01750005832863   -1.82847878579205
C         0.36076975763800    3.45523776589132   -0.60517453993109
C         1.73415414018816    3.01070209993340   -0.60982876599681
C        -1.57492781723328    2.59178385516639   -1.83253355231291
C        -1.95214606170603    1.42634138891205   -2.59095089877059
C        -2.94752630303073    0.70742773667006   -1.83336355104639
C        -3.18808000894770    1.42827508470102   -0.61180288341340
C        -2.33898972975691    2.59137147883092   -0.60884163222099
C        -2.93720029314383   -0.68341330764521   -1.82609200901266
C        -1.94469201564953   -1.40530252504453   -2.58449826617930
C        -1.55920378751556   -2.57108376177682   -1.83163221604423
C        -2.30003807432252   -2.56738997006604   -0.60031395660721
C        -3.16143846362131   -1.39397115686941   -0.59813970631604
C        -0.99307599097121   -0.71009474071565   -3.31863347538321
C        -0.99635859354145    0.73081936963144   -3.31871804221494
C         0.37556876191013    1.17628316595514   -3.32315425021481
C         1.22356671040180    0.01258481540358   -3.32962863123459
C         0.37755306516679   -1.15586144159474   -3.32773609836113
Cl       -2.10849385180750    0.31744315257692    5.19782225533401
Cl       -0.36936310774450   -2.11757224730991    5.20425301313708
Cl        3.09926412056646   -2.25841459698268    4.07102853103055
63
 energy: -142.091208556144 gnorm: 0.004074163574 xtb: 6.4.1 (a3dbbd7)
C        -1.33748975165999    0.00976187187757    3.58572266892491
C        -0.39740763022943   -1.27002777655277    3.58922656304656
C         0.97194617939563   -0.71904154415860    3.29172374033034
C         0.95588715739314    0.66186806627222    3.21738686782411
C        -0.39343511175101    1.14310087254823    3.27074095231451
C         2.31939923578394   -2.56664786669436    0.56396095058406
C         3.16300304152521   -1.39782621377701    0.56708024261207
C         2.95738480809548   -0.69668995973118    1.79108415280477
C         2.08664806587332   -1.51384690581931    2.71630874463823
C         1.58338509525474   -2.59126504022716    1.78962228982380
C         3.17695685656630    1.41010663278236    0.55807091466444
C         2.32942293464892    2.57617372308720    0.56429361760045
C         1.56885679883811    2.55385270297278    1.79038787560010
C         1.94863000507032    1.40587011647444    2.53406187006829
C         2.93956751143184    0.68273688271981    1.77795843740305
C        -0.37038115821885    3.43776048071559    0.58024159357462
C        -1.74787058842682    3.00554702816939    0.57904808057438
C        -1.99515101667950    2.28979821258609    1.80128972788099
C        -0.74745753129741    2.25037086510064    2.54919276196695
C         0.23936592325861    2.97911557409335    1.79059765344598
C        -3.41089946793655    0.73157000421305    0.57162763704525
C        -3.39274384728317   -0.70328475805364    0.57365686898211
C        -2.76472521813498   -1.12513620309990    1.81819791892935
C        -2.42236454338503   -0.01023520849083    2.55702914080564
C        -2.79544355760517    1.16382800719800    1.80128132084211
C        -1.70083013678098   -2.98631139752558    0.56821374199070
C        -0.34084972465673   -3.43650000549274    0.56200851545806
C         0.26672562233966   -2.97510526332273    1.78401852582946
C        -0.74660514010689   -2.27755926611392    2.55187730865872
C        -1.91309692759192   -2.26657480534455    1.81567883219323
C        -0.23758292058243   -3.00788729075479   -1.84590402083971
C         0.74970533823697   -2.28170213065837   -2.60724287340613
C         1.97828652316865   -2.28078747978236   -1.85306748678271
C         1.74423972042898   -3.00269541551752   -0.62581718872353
C         0.38050437916953   -3.45129492778231   -0.62623190635797
C         2.79013632091655   -1.15682653535813   -1.84929958594919
C         2.40893632293333    0.01248443736161   -2.60676700207198
C         2.79017092175355    1.17554955746557   -1.84981875408456
C         3.40578337623276    0.72513505784484   -0.62690029447619
C         3.40110574303982   -0.71124180749141   -0.62369957449195
C         1.96763080859885    2.29749282336346   -1.84073194251580
C         0.74168054114350    2.29802132689553   -2.59233653546160
C        -0.25269917954111    3.01748018746336   -1.82864548465885
C         0.36071826028275    3.45537705412576   -0.60559673472155
C         1.73405549507586    3.01073854337182   -0.61007276070152
C        -1.57496583711549    2.59158346753866   -1.83252465395470
C        -1.95200858450234    1.42612023864284   -2.59086049879006
C        -2.94761445406262    0.70731599672841   -1.83340433034486
C        -3.18840822406478    1.42812530567511   -0.61177430281439
C        -2.33919195489175    2.59114761344823   -0.60880136766035
C        -2.93740121219428   -0.68352494466730   -1.82644144044759
C        -1.94483963331516   -1.40532767403083   -2.58494237241913
C        -1.55922636941742   -2.57086765007606   -1.83204659120005
C        -2.30019214984329   -2.56744350766799   -0.60072087903195
C        -3.16201039973441   -1.39411066959702   -0.59853242845907
C        -0.99299139732259   -0.71014626430515   -3.31902962895167
C        -0.99632109427807    0.73074435756857   -3.31893488525926
C         0.37563619116279    1.17634832653405   -3.32365747323733
C         1.22376137765183    0.01273336197406   -3.33022874675666
C         0.37760480681453   -1.15590166324006   -3.32837911157916
Cl       -2.09603247186643    0.30223181416442    5.20248872652213
Cl       -0.38084596099773   -2.10228244232103    5.20998458263569
Cl        3.09210406049127   -2.25923349657458    4.06918632620870
63
 energy: -142.091256850211 gnorm: 0.002271047609 xtb: 6.4.1 (a3dbbd7)
C        -1.33853998537467    0.00986712022468    3.58700780161198
C        -0.39771316011213   -1.27027765423931    3.59001653984275
C         0.97084328903989   -0.71818397225662    3.29192126899434
C         0.95502476323118    0.66321900520676    3.21852433896584
C        -0.39410200314168    1.14351987485765    3.27219618944210
C         2.31948625347960   -2.56728175516801    0.56312095793610
C         3.16273798158969   -1.39812563395712    0.56622601393802
C         2.95505367711754   -0.69553159006413    1.78860268150334
C         2.08368918119506   -1.51200881262781    2.71366995755805
C         1.58176548265687   -2.59069679523961    1.78734018708749
C         3.17754167435227    1.41096017888562    0.55822005591019
C         2.32987829693228    2.57694436871513    0.56488532232231
C         1.56909355555140    2.55462376830711    1.79098680793475
C         1.94795308595527    1.40579138998924    2.53433796032638
C         2.93856865229422    0.68340580922177    1.77727027417228
C        -0.37016941300331    3.43816152326430    0.58065608025188
C        -1.74746962166296    3.00558690694584    0.57928566470165
C        -1.99462531013028    2.28975902787463    1.80143698299196
C        -0.74744099637321    2.25081080266099    2.54987234206332
C         0.23952214819161    2.97955135665965    1.79134065596825
C        -3.41009011045065    0.73143066229756    0.57177026401300
C        -3.39207134446036   -0.70336946769319    0.57397429842487
C        -2.76427138769067   -1.12529177284376    1.81850513861836
C        -2.42183130403643   -0.01020441838496    2.55709262478699
C        -2.79461932197325    1.16369593798230    1.80124257635322
C        -1.70139291467653   -2.98743923212851    0.56851131383080
C        -0.34159232588684   -3.43849772405304    0.56189152665257
C         0.26578775238214   -2.97572764755318    1.78317350269942
C        -0.74620310746949   -2.27747130787550    2.55175055326514
C        -1.91319872019120   -2.26706507201917    1.81586521551452
C        -0.23750812572386   -3.00848009477631   -1.84571986797463
C         0.74981852728691   -2.28212023600216   -2.60689539972305
C         1.97858166320408   -2.28146540469101   -1.85299998264250
C         1.74439152563408   -3.00408771017683   -0.62624988084985
C         0.38035608472735   -3.45269484555661   -0.62628635373509
C         2.79052009433414   -1.15727936712505   -1.84921006882640
C         2.40905339889025    0.01220693569239   -2.60616965186597
C         2.79023925814858    1.17529576878663   -1.84921768338983
C         3.40608608031344    0.72525461970039   -0.62656059341290
C         3.40170253110741   -0.71134932737220   -0.62393088958030
C         1.96787133651201    2.29737062620356   -1.84007487458376
C         0.74192955546102    2.29780944318863   -2.59167287736499
C        -0.25240821093112    3.01745648100729   -1.82826009382068
C         0.36097649686623    3.45545178508603   -0.60508654419305
C         1.73437848601943    3.01100008628476   -0.60961504536640
C        -1.57461932776875    2.59153065968166   -1.83222859606624
C        -1.95170128499977    1.42601290414427   -2.59054487998319
C        -2.94718812118361    0.70714272420420   -1.83308729953539
C        -3.18783884406897    1.42800277869431   -0.61155411686729
C        -2.33876356516512    2.59106582325213   -0.60854363591337
C        -2.93703343091399   -0.68370232730429   -1.82605355351231
C        -1.94455726804002   -1.40559299408440   -2.58449807695677
C        -1.55914191095793   -2.57136212949680   -1.83175132728226
C        -2.30027198987063   -2.56797993643146   -0.60049202447109
C        -3.16157747549412   -1.39429809846961   -0.59818123350001
C        -0.99273365007027   -0.71035921770130   -3.31848851493241
C        -0.99603093807677    0.73055930220739   -3.31845883816564
C         0.37588519291432    1.17609527400109   -3.32291797460518
C         1.22389358148993    0.01246433979988   -3.32949038299063
C         0.37781377836898   -1.15613770307499   -3.32773546984759
Cl       -2.10225575519932    0.31150071707149    5.19991588293142
Cl       -0.37121555530321   -2.11020053284094    5.20655812755889