2
 energy: -0.982686160191 gnorm: 0.000125588305 xtb: 6.4.1 (a3dbbd7)
H         0.00000000000000    0.00000000000000    0.38843645735764
H         0.00000000000000    0.00000000000000   -0.38843645735764
