62
 energy: -137.515223801966 gnorm: 0.134482498132 xtb: 6.4.1 (a3dbbd7)
C        -1.29770965891222    0.00000000000000    3.53163224767276
C        -0.37107604425475   -1.17478800586359    3.31058196643012
C         0.97979757550459   -0.72157705231961    3.28110534952822
C         0.97979757550459    0.72157705231961    3.28110534952822
C        -0.37107604425475    1.17478800586360    3.31058196643013
C         2.33544184946295   -2.58264348698296    0.58346340581249
C         3.18207169571150   -1.41543014636129    0.58234433372313
C         2.94373959867916   -0.69404060100004    1.80708186552027
C         1.95046398470883   -1.41556779135961    2.56176558167067
C         1.57767488865866   -2.57871801508103    1.80912454278211
C         3.18207169571150    1.41543014636129    0.58234433372313
C         2.33544184946295    2.58264348698296    0.58346340581249
C         1.57767488865866    2.57871801508103    1.80912454278211
C         1.95046398470883    1.41556779135961    2.56176558167066
C         2.94373959867916    0.69404060100004    1.80708186552027
C        -0.36119281684147    3.44519252612879    0.58582996047390
C        -1.73469290191499    3.00153459982720    0.58916793337350
C        -1.97220713510261    2.29308475607878    1.81059639720294
C        -0.73400332666893    2.27691900303500    2.56853480078419
C         0.25309257506893    2.99789064535074    1.80898867763471
C        -3.39649784746455    0.71758744312072    0.57410478167568
C        -3.39649784746455   -0.71758744312072    0.57410478167568
C        -2.77168037603652   -1.14964415915414    1.80664876434809
C        -2.42168465399864    0.00000000000000    2.56054627302143
C        -2.77168037603652    1.14964415915414    1.80664876434809
C        -1.73469290191499   -3.00153459982719    0.58916793337351
C        -0.36119281684148   -3.44519252612879    0.58582996047390
C         0.25309257506893   -2.99789064535073    1.80898867763471
C        -0.73400332666892   -2.27691900303499    2.56853480078419
C        -1.97220713510261   -2.29308475607878    1.81059639720295
C        -0.24585893810850   -3.00970705822685   -1.82232538763502
C         0.74439012833927   -2.28841876480361   -2.57822875384061
C         1.97268106729833   -2.28861170675520   -1.82114897801170
C         1.74031203428013   -3.00832022201671   -0.59623578829480
C         0.36724813466371   -3.45114129717027   -0.59443426078026
C         2.79027372790168   -1.16551010025889   -1.82330670861298
C         2.41077011246349    0.00000000000000   -2.58030971859023
C         2.79027372790168    1.16551010025889   -1.82330670861298
C         3.40598095600767    0.72109250237888   -0.59875668403540
C         3.40598095600767   -0.72109250237888   -0.59875668403540
C         1.97268106729833    2.28861170675520   -1.82114897801170
C         0.74439012833927    2.28841876480360   -2.57822875384062
C        -0.24585893810850    3.00970705822685   -1.82232538763502
C         0.36724813466371    3.45114129717027   -0.59443426078026
C         1.74031203428013    3.00832022201671   -0.59623578829480
C        -1.56847069976934    2.58049680433801   -1.82122736601016
C        -1.94730857051169    1.41533687195356   -2.58360676406823
C        -2.94243160962768    0.69434475341889   -1.82977489504240
C        -3.17479380115303    1.41444285760430   -0.60326970185865
C        -2.32688654321742    2.58113588269429   -0.60086409487791
C        -2.94243160962768   -0.69434475341889   -1.82977489504240
C        -1.94730857051169   -1.41533687195356   -2.58360676406823
C        -1.56847069976934   -2.58049680433801   -1.82122736601016
C        -2.32688654321742   -2.58113588269429   -0.60086409487790
C        -3.17479380115303   -1.41444285760429   -0.60326970185865
C        -0.99138524268633   -0.72097607833148   -3.31029871234527
C        -0.99138524268633    0.72097607833148   -3.31029871234528
C         0.38054100031802    1.16548515734434   -3.30884687187952
C         1.22668597234242    0.00000000000000   -3.30783368151334
C         0.38054100031802   -1.16548515734434   -3.30884687187952
Cl       -1.93737486741132   -0.00000000000005    5.25509316806359
Cl        4.44751155999004   -1.06735886742994    2.74271179253468
62
 energy: -137.537471497324 gnorm: 0.075781151752 xtb: 6.4.1 (a3dbbd7)
C        -1.30076623385363    0.00131582363457    3.53284133626778
C        -0.38123247040436   -1.17680532702873    3.30825929373414
C         0.96627272575079   -0.72171954770538    3.27009580455148
C         0.97296276384401    0.72463402395881    3.27351201801371
C        -0.36979393939698    1.17441042663367    3.31041166713466
C         2.32082707597133   -2.57443699795303    0.57443361459448
C         3.15970607809481   -1.41431183363425    0.56535596548452
C         3.01153326532875   -0.70989464416003    1.85273023697834
C         1.92406390859395   -1.41534005243518    2.55346723825167
C         1.56066172382497   -2.57004340851751    1.80118623139104
C         3.17991546518405    1.42746499928591    0.58948697644123
C         2.33563358079610    2.59790871428414    0.58255842028698
C         1.57817673275573    2.59379898728950    1.80742716644593
C         1.95649536527544    1.42483937633341    2.55758583057471
C         2.97985524020840    0.72987075417443    1.83559340797130
C        -0.36169671565970    3.45100696976163    0.58124788303599
C        -1.73264674123160    3.00166562682800    0.58811151348433
C        -1.96632494119960    2.29414872041069    1.81420841228101
C        -0.73767045716969    2.28234174189427    2.56613814196802
C         0.25344997246516    3.00329301975031    1.80350353257546
C        -3.39693671650885    0.71375104879339    0.57524878358844
C        -3.39849372584630   -0.72051168250743    0.57250415687908
C        -2.77533661576503   -1.15079436390622    1.80428841036769
C        -2.42382216676231    0.00199698654318    2.55997507190747
C        -2.77016188132057    1.14568552301779    1.81040018428942
C        -1.74080904493136   -3.00332384781070    0.58676463335391
C        -0.36768620179461   -3.44586929053114    0.58390331522596
C         0.24116990774901   -3.00294916776514    1.80976214936189
C        -0.74223812750204   -2.28082558110208    2.56869476508828
C        -1.97955177100955   -2.29296827528980    1.80704297630911
C        -0.24926827888835   -3.01513157290560   -1.82476422750007
C         0.74281409532907   -2.29177401590672   -2.58052505327529
C         1.97099653864223   -2.29419162983217   -1.82793466017053
C         1.73500061920034   -3.01144280737508   -0.60600395549893
C         0.36162872096762   -3.45446432837343   -0.59880683245250
C         2.78805527119833   -1.16669044677535   -1.82996225760886
C         2.40987515729531   -0.00041542926821   -2.58139425138805
C         2.78686169447986    1.16615517135303   -1.82006632008073
C         3.39928327279383    0.72732803826787   -0.59511653873052
C         3.39003498696236   -0.71931129200275   -0.60325771914694
C         1.96840582388240    2.28935593085160   -1.82141492736165
C         0.74289488739843    2.28762486526504   -2.58081291662920
C        -0.24714959699034    3.00882029060740   -1.82479173970747
C         0.36589597834670    3.45676365572187   -0.59863274629886
C         1.73839885588964    3.01592945854197   -0.59836723850143
C        -1.56820410653571    2.57761408584041   -1.82112873518279
C        -1.94768899522296    1.41229025895982   -2.58325013147590
C        -2.94189558470663    0.69180562990664   -1.82877588046271
C        -3.17359221451920    1.41063566075786   -0.60109389775975
C        -2.32492572914060    2.57843960018771   -0.59849853533667
C        -2.94272098548526   -0.69756135359455   -1.83038968985417
C        -1.94810353877730   -1.41836764938161   -2.58487330779118
C        -1.57149635608313   -2.58434936393316   -1.82307890975530
C        -2.33178884798159   -2.58456695321202   -0.60462404802535
C        -3.17736138224332   -1.41788037412541   -0.60582659492953
C        -0.99190943748286   -0.72376294878565   -3.31072411674632
C        -0.99169316625806    0.71838382885528   -3.31098470924261
C         0.37937972732657    1.16350702752975   -3.31159535479924
C         1.22599020224972   -0.00168309464490   -3.30843788228709
C         0.38016248009493   -1.16776158526553   -3.30908222839049
Cl       -1.93703057203842   -0.01163238423286    5.25642532637563
Cl        4.56223961577507   -1.09936386270827    2.79691781069959
62
 energy: -137.546786566583 gnorm: 0.032307949305 xtb: 6.4.1 (a3dbbd7)
C        -1.30309156026134   -0.00282940511067    3.53188605549903
C        -0.38454881294669   -1.18080819601693    3.30321887456083
C         0.96349263287329   -0.72741473908331    3.25931766864948
C         0.96076441401037    0.72424606280436    3.27360246381088
C        -0.36899525919802    1.16951721333355    3.31082664530886
C         2.31615863949784   -2.56573454573848    0.57091166822787
C         3.15741147094999   -1.42185759373106    0.56018586616842
C         3.12282653853103   -0.74804257549282    1.92515126843908
C         1.92022966904874   -1.42386810690321    2.55787984522902
C         1.55468416528139   -2.56104515376179    1.79905374214467
C         3.15800586659964    1.42691544919601    0.58424442866829
C         2.32458460821812    2.60385347966750    0.57448786823275
C         1.56649857608221    2.59986719824913    1.79903171080481
C         1.94335950298398    1.41986173954707    2.54094956303347
C         2.94646809995012    0.74180580093711    1.82386923301125
C        -0.36417266262860    3.46042781595932    0.57657321511278
C        -1.73168974612112    3.00502760981259    0.58733985786445
C        -1.95951675944960    2.29581578767629    1.82003249211710
C        -0.74627772307233    2.28726654261693    2.56449180533778
C         0.24844814645859    3.00911338061970    1.79825307966610
C        -3.39490038913471    0.71168901190263    0.57562219021293
C        -3.40499417894436   -0.72171831440757    0.57044957151853
C        -2.78134952961378   -1.15329691981515    1.79966092746020
C        -2.42639073525602    0.00444090969346    2.55732270480651
C        -2.76978507106438    1.14120819336589    1.81611213089787
C        -1.74555088455526   -3.00229935785430    0.58149137339388
C        -0.37284438504235   -3.44342735362717    0.58130260461745
C         0.23539151190682   -3.00469994776370    1.80951356105401
C        -0.74636354909604   -2.28506180919911    2.56665320047383
C        -1.98554596615613   -2.29092772929626    1.80160326725934
C        -0.25481235197554   -3.01658669422140   -1.82632116704484
C         0.73995980709795   -2.29304181360556   -2.58337928945879
C         1.96565956438230   -2.29791032992242   -1.83054349106083
C         1.73096173991227   -3.01101126810862   -0.61131100683349
C         0.35592690214208   -3.45479414716519   -0.60313644025886
C         2.78153989328575   -1.16628738149616   -1.82902750325909
C         2.40690510431962   -0.00225391018207   -2.58109119317315
C         2.78337444839462    1.16592399086010   -1.81795946748720
C         3.39435205630751    0.73052617573109   -0.59599993371692
C         3.37854539648488   -0.72289786638766   -0.59975560054252
C         1.96442791340340    2.29103747105228   -1.82528766754011
C         0.74147666306371    2.28948811366601   -2.58519915232245
C        -0.24828495296827    3.01190083714530   -1.82890564549548
C         0.36376771431023    3.46620499198951   -0.60398551301479
C         1.73419486056050    3.02494601509407   -0.60540828255386
C        -1.56727100023947    2.57917867319428   -1.82116379186162
C        -1.94789872623344    1.41395169552691   -2.58239725388382
C        -2.94070442366955    0.69400072116086   -1.82733335034496
C        -3.17061234398212    1.40954392731924   -0.59820204343997
C        -2.32155974729435    2.57930952420029   -0.59497808993168
C        -2.94548208545794   -0.69627638364917   -1.83200528084793
C        -1.95131129097458   -1.41679228533840   -2.58752147409532
C        -1.57690173384339   -2.58405790491580   -1.82666460336475
C        -2.33829447179635   -2.58407433023107   -0.61007952715907
C        -3.18328783347175   -1.41808500030676   -0.61015110219354
C        -0.99400166925769   -0.72235883920121   -3.31154030170054
C        -0.99231573433738    0.72008830336146   -3.31145364701248
C         0.37777104364901    1.16423348869404   -3.31538201304910
C         1.22405189330624   -0.00183933737216   -3.30932378269395
C         0.37801259609870   -1.16778264412558   -3.31014464492536
Cl       -1.93764859846419   -0.00192858982618    5.25256988620548
Cl        4.71579792836088   -1.11773851795001    2.87791035900265
62
 energy: -137.548016538714 gnorm: 0.019660759402 xtb: 6.4.1 (a3dbbd7)
C        -1.30144581070592   -0.00195007937759    3.52879845701603
C        -0.37952042659615   -1.17707862041778    3.29861830363209
C         0.97171734619599   -0.72671976867963    3.26464132350474
C         0.96419389111862    0.72491389189443    3.27718078073042
C        -0.36677640414135    1.17045252898886    3.30977408061300
C         2.31916875282414   -2.56319836568972    0.57419787337071
C         3.17122653066154   -1.42301803900134    0.57006605299973
C         3.12053448478196   -0.74803761885411    1.92330978668112
C         1.93509054847940   -1.42406956811733    2.56619054571272
C         1.55859269453410   -2.55835877574319    1.80172507070096
C         3.16258927872274    1.42231565975003    0.58669013821767
C         2.32574823285321    2.59841076663504    0.57463299176564
C         1.56797131716035    2.59445359502091    1.79836091468617
C         1.94888981673937    1.41561073844948    2.54323966843417
C         2.94664420201539    0.73130113699072    1.82351054557270
C        -0.36445885239536    3.46103987542234    0.57594873806683
C        -1.73229140317200    3.00545825111749    0.58542190476021
C        -1.95923182337941    2.29487301013190    1.81775220355855
C        -0.74541871102743    2.28748421380045    2.56355869687730
C         0.24976568188385    3.00763730417439    1.79725045641211
C        -3.39693550514147    0.71183441117146    0.57393825233606
C        -3.40715874212979   -0.72191179597667    0.56945421608824
C        -2.78392697106557   -1.15421695197024    1.79901671087528
C        -2.42598535932502    0.00423248089739    2.55487584872595
C        -2.77052455830069    1.14128576214868    1.81353655908934
C        -1.74672901229102   -3.00192725545090    0.58019005577510
C        -0.37362398159032   -3.44106079156383    0.58030113272165
C         0.23748554067285   -2.99881822025267    1.80659027920402
C        -0.74513287658114   -2.28105434859452    2.56321520386452
C        -1.98614950042221   -2.29050985323385    1.80101455266281
C        -0.25701615835805   -3.01548418971291   -1.82702599787514
C         0.73791086446989   -2.29223749167279   -2.58371217167467
C         1.96222910283351   -2.29411750989814   -1.82666205827633
C         1.72906099155263   -3.00632456559742   -0.60704389387267
C         0.35457011748964   -3.45224536568061   -0.60275290941772
C         2.77750478800139   -1.16321666298051   -1.82130586892694
C         2.40353930559121   -0.00129801787358   -2.57750669841078
C         2.78236891392577    1.16639332443638   -1.81635695672167
C         3.39709076041422    0.72983572378146   -0.59488585444343
C         3.38512812629458   -0.72333056628517   -0.59395639904435
C         1.96419826526347    2.29161669154054   -1.82594040643354
C         0.74033789801732    2.28958396680776   -2.58531651887101
C        -0.24960771688950    3.01292987869227   -1.82983230221058
C         0.36343323122992    3.46692899515617   -0.60500436251457
C         1.73408098648014    3.02311835245822   -0.60529755259929
C        -1.56874256959344    2.57921034674539   -1.82240539423097
C        -1.94982611641012    1.41368120841319   -2.58313708397187
C        -2.94267746200583    0.69327192830378   -1.82839286511499
C        -3.17228181879190    1.40901584486146   -0.59968503210273
C        -2.32243874848959    2.57882454423664   -0.59637638748720
C        -2.94866593010502   -0.69702457136132   -1.83364567555600
C        -1.95447041782862   -1.41746279335586   -2.58952550484626
C        -1.57975558221380   -2.58482857745278   -1.82873162374106
C        -2.34082934880042   -2.58480144418120   -0.61115491548446
C        -3.18622525581617   -1.41865571484416   -0.61138698880291
C        -0.99657979620232   -0.72251029817974   -3.31269314569869
C        -0.99446587694568    0.71998696224733   -3.31221916380273
C         0.37578051142363    1.16457052648213   -3.31528349857498
C         1.22179429342057   -0.00137581701917   -3.30817721730382
C         0.37559651659708   -1.16740193804669   -3.31077302607371
Cl       -1.93833598824836   -0.01155328368621    5.24740020956838
Cl        4.70163092428015   -1.11183192743460    2.87165278838396
62
 energy: -137.548649452029 gnorm: 0.011574278634 xtb: 6.4.1 (a3dbbd7)
C        -1.29967083009113   -0.00236597966589    3.52683115574896
C        -0.37506690628694   -1.17548843675752    3.29466985504425
C         0.97798885050081   -0.72695457449687    3.26754329094501
C         0.96380254751765    0.72524760948252    3.28162090203756
C        -0.36562170222175    1.17119906674477    3.31053469768709
C         2.32092259495129   -2.55934666444840    0.57648145396168
C         3.18288673430997   -1.42374197958331    0.57901073875558
C         3.12954137340447   -0.75167138119374    1.92863889170835
C         1.94859370185641   -1.42405146963412    2.57346297959671
C         1.56117984168692   -2.55439083304013    1.80366481898581
C         3.16191064210321    1.41616799214760    0.58647351838179
C         2.32430462521826    2.59291713726684    0.57339868231014
C         1.56668532101623    2.58892646442277    1.79601068197395
C         1.94997534504891    1.40892513572187    2.54195157360069
C         2.93559394481015    0.71857264355375    1.81747317506328
C        -0.36429410914398    3.46227524187471    0.57563437739742
C        -1.73203749489903    3.00638445694172    0.58436615375867
C        -1.95790578103914    2.29410917520531    1.81719499485002
C        -0.74599730845329    2.28827369099346    2.56360072525418
C         0.25023798057821    3.00712903379618    1.79677167400212
C        -3.39790801061702    0.71203177039133    0.57305074176999
C        -3.40972400534630   -0.72197034709183    0.56920134446264
C        -2.78673556931136   -1.15522903572880    1.79863374942574
C        -2.42517996147712    0.00454139031819    2.55291768058936
C        -2.77075958082551    1.14101988207046    1.81255305923628
C        -1.74773463728721   -3.00162663970732    0.57925019372414
C        -0.37425783346434   -3.43825047468716    0.57934176362647
C         0.23930910120484   -2.99309729170893    1.80369642655749
C        -0.74447549487110   -2.27859237845983    2.56071182702349
C        -1.98673014644608   -2.28951911471228    1.80052345131642
C        -0.25873865987265   -3.01458239864547   -1.82772289358153
C         0.73629632877077   -2.29174452850082   -2.58446296950011
C         1.95929432126264   -2.29147907773813   -1.82392258131798
C         1.72710092323589   -3.00167757459851   -0.60345063593369
C         0.35342147669903   -3.44960051222985   -0.60249554289837
C         2.77356037357577   -1.16116943691604   -1.81482249150496
C         2.40056913771030   -0.00104789057934   -2.57456642800256
C         2.78218168197975    1.16694339975188   -1.81655834017513
C         3.39931212958666    0.72939831390538   -0.59619147494775
C         3.38828431545284   -0.72405475913342   -0.58898777648856
C         1.96468778641401    2.29243902407481   -1.82761459731481
C         0.74023322878973    2.28991801270904   -2.58611125181181
C        -0.24967079186376    3.01423287838513   -1.83072970290824
C         0.36375597933200    3.46815601698609   -0.60591502024437
C         1.73418737978905    3.02254539911689   -0.60626403956185
C        -1.56872486159649    2.57951995104500   -1.82295096445270
C        -1.95035382761605    1.41388808336542   -2.58324381095458
C        -2.94293812737445    0.69316635737286   -1.82845140676200
C        -3.17237975443066    1.40855444781970   -0.60011277976826
C        -2.32160272909726    2.57865217736681   -0.59659785057206
C        -2.95068163529759   -0.69724437297895   -1.83444422486299
C        -1.95668930153892   -1.41772130644423   -2.59097342508682
C        -1.58191757546438   -2.58539667588489   -1.83041535799019
C        -2.34294825707301   -2.58523165192949   -0.61167568756501
C        -3.18864881746176   -1.41883766388343   -0.61205102402178
C        -0.99835802692858   -0.72237026109286   -3.31361506091174
C        -0.99551085272293    0.72022677224974   -3.31280252720484
C         0.37486657808009    1.16501601163737   -3.31566251053797
C         1.22034297663546   -0.00112540096187   -3.30773624738648
C         0.37373899195146   -1.16703627022883   -3.31131555198954
Cl       -1.93907238418055   -0.01921412845830    5.24192417104583
Cl        4.69621395179256   -1.10190589302702    2.87059229494070
62
 energy: -137.548845720475 gnorm: 0.007352039625 xtb: 6.4.1 (a3dbbd7)
C        -1.29961314131298   -0.00314068142456    3.52782957072254
C        -0.37411584643018   -1.17594752765641    3.29421303532774
C         0.97867565993186   -0.72756834325928    3.26744548522776
C         0.96179368490012    0.72503023504184    3.28378201258062
C        -0.36599150580254    1.17113238026736    3.31223385407577
C         2.32097183356480   -2.55793632207709    0.57664421986936
C         3.18520925051839   -1.42368835234612    0.58089191047683
C         3.13718607036615   -0.75380351114610    1.93303965903579
C         1.95162640093437   -1.42374457504335    2.57483767252457
C         1.56136778032183   -2.55292889935039    1.80398318676542
C         3.15871132517140    1.41318520714102    0.58446461904009
C         2.32276657257296    2.59106750096888    0.57239836654794
C         1.56518734430512    2.58702197544936    1.79448264221651
C         1.94780518197261    1.40547737662297    2.53970501033346
C         2.92489483675619    0.71221277957546    1.81138998240458
C        -0.36374320051964    3.46269168371149    0.57588527250985
C        -1.73130833554928    3.00682628174711    0.58460671785290
C        -1.95694594575198    2.29393763496550    1.81802218795584
C        -0.74667616360913    2.28855335187417    2.56442606476881
C         0.25015399946846    3.00734166405190    1.79721888060343
C        -3.39753083976894    0.71218055306710    0.57329847605595
C        -3.41047394478277   -0.72186405822450    0.56960184628852
C        -2.78754195265991   -1.15560232649763    1.79881975133747
C        -2.42478158936028    0.00475264569435    2.55288110427121
C        -2.77041151453599    1.14077092865246    1.81312314115547
C        -1.74773664169943   -3.00147005630585    0.57934370572419
C        -0.37414759474971   -3.43727088058941    0.57929632072665
C         0.23985513796634   -2.99169381974570    1.80311989717799
C        -0.74464500375592   -2.27855813206646    2.56065244149087
C        -1.98677448835677   -2.28902846960759    1.80070312899024
C        -0.25878113577254   -3.01425139758252   -1.82778687672973
C         0.73618200059761   -2.29176439436981   -2.58481922260910
C         1.95896762111780   -2.29140194290875   -1.82381893192538
C         1.72679164907130   -3.00064339126739   -0.60268032613834
C         0.35347083200658   -3.44877137710208   -0.60228129734120
C         2.77290353236554   -1.16135222152775   -1.81389384314439
C         2.40046697420779   -0.00139175762815   -2.57454245715165
C         2.78322945272855    1.16712169209285   -1.81827401914622
C         3.40008117842127    0.72910461051332   -0.59838594758071
C         3.38779048681431   -0.72470822411041   -0.58844292004231
C         1.96561910598378    2.29273637604568   -1.82876368587811
C         0.74095725943979    2.29014126260924   -2.58653961639299
C        -0.24888780749714    3.01468610435170   -1.83073647850695
C         0.36442196936780    3.46848192990490   -0.60597106436792
C         1.73466678198313    3.02284278933789   -0.60712880940998
C        -1.56788087866117    2.57980398077710   -1.82259703182305
C        -1.94967007193752    1.41427695849560   -2.58283762108836
C        -2.94212504398207    0.69356627582862   -1.82792682856743
C        -3.17154059078216    1.40852774911868   -0.59963551237580
C        -2.32039520394154    2.57882452417053   -0.59601980527287
C        -2.95057362428565   -0.69689488182302   -1.83417547338758
C        -1.95664327293266   -1.41740329119414   -2.59087429723109
C        -1.58191716593293   -2.58519592181509   -1.83051307289414
C        -2.34303672603204   -2.58492737331625   -0.61132372276506
C        -3.18879451143582   -1.41850250290231   -0.61184672058068
C        -0.99826307707403   -0.72204072844121   -3.31358346934110
C        -0.99510443528323    0.72057630953040   -3.31271703036769
C         0.37537264651574    1.16524358396417   -3.31584442575297
C         1.22064978096435   -0.00113310112979   -3.30812557622869
C         0.37362795670945   -1.16687084058476   -3.31129786398517
Cl       -1.94035314551881   -0.02096325923697    5.24080279732049
Cl        4.69364528363437   -1.09301265072076    2.87010785517089
62
 energy: -137.548914269903 gnorm: 0.003659780148 xtb: 6.4.1 (a3dbbd7)
C        -1.30021538349980   -0.00369967530607    3.52949990418322
C        -0.37461614401649   -1.17686620535124    3.29521989011783
C         0.97751117613973   -0.72826458036163    3.26681232337368
C         0.96041174017640    0.72452569657488    3.28429719039104
C        -0.36662781916171    1.17072805850904    3.31358423474026
C         2.32068074358406   -2.55809981615170    0.57616499748419
C         3.18387202338779   -1.42364246884584    0.57973103942588
C         3.14126380652888   -0.75415112567723    1.93527187052356
C         1.95014261615853   -1.42373160397580    2.57397522312643
C         1.56092085504678   -2.55307512138699    1.80376084516924
C         3.15599265411914    1.41230955684054    0.58277962103479
C         2.32208336433548    2.59108265361813    0.57207404229477
C         1.56456213476695    2.58703505682768    1.79404874133718
C         1.94559029836816    1.40453178031876    2.53824180901903
C         2.91849771705798    0.70989821464397    1.80756785117933
C        -0.36323582719169    3.46262465141709    0.57622757031723
C        -1.73066692177273    3.00687813140122    0.58512105028405
C        -1.95649304035442    2.29405123107542    1.81886292337006
C        -0.74686905183820    2.28845034100900    2.56519841077716
C         0.25006253839840    3.00756164645054    1.79782635037430
C        -3.39681837993150    0.71230836430889    0.57376797124318
C        -3.41018778919877   -0.72169630421381    0.56997128527502
C        -2.78725037311311   -1.15558701774177    1.79907916609259
C        -2.42464499393768    0.00474386394139    2.55344162176208
C        -2.76990460630318    1.14065713418930    1.81384901405006
C        -1.74742868749690   -3.00136994727946    0.57965030338387
C        -0.37384166965232   -3.43734126619086    0.57955466418763
C         0.23979925846189   -2.99230524313028    1.80355736376238
C        -0.74498625546950   -2.27929837555198    2.56139311907078
C        -1.98659697355591   -2.28901878430444    1.80103335500286
C        -0.25835469280886   -3.01417068679362   -1.82760184949273
C         0.73653129767102   -2.29193466426023   -2.58484363961102
C         1.95958325461299   -2.29213448368088   -1.82455869485021
C         1.72718517676903   -3.00122499454310   -0.60311526974080
C         0.35387272319883   -3.44887238772710   -0.60216576300856
C         2.77366675023746   -1.16220438572380   -1.81508480473940
C         2.40148081440067   -0.00179199579531   -2.57557643897014
C         2.78436908917344    1.16697775349057   -1.81972596807593
C         3.40018453833876    0.72875650363860   -0.59979822901240
C         3.38679013095426   -0.72530852406093   -0.58951803911360
C         1.96633163750874    2.29261676247439   -1.82911089103371
C         0.74163605808101    2.29018415051490   -2.58651761141748
C        -0.24820092939019    3.01465907982560   -1.83037077536883
C         0.36494044428057    3.46834865167672   -0.60571854927942
C         1.73514358166950    3.02311470401203   -0.60751239639120
C        -1.56720543936887    2.57999991606621   -1.82211117477895
C        -1.94895917606944    1.41458915955286   -2.58247303216142
C        -2.94145932333173    0.69400974255824   -1.82752894056148
C        -3.17083521819104    1.40873962406438   -0.59913153365982
C        -2.31966427964358    2.57909493847845   -0.59551548861161
C        -2.94993875147855   -0.69646162566542   -1.83376404462834
C        -1.95598056869964   -1.41698659632055   -2.59034238520624
C        -1.58130156541680   -2.58473210918849   -1.83007927083884
C        -2.34246945394927   -2.58442216800659   -0.61090511883542
C        -3.18815361635378   -1.41807755448137   -0.61151990255701
C        -0.99764586382687   -0.72175659359665   -3.31323553562753
C        -0.99445212997485    0.72083363926166   -3.31240690836085
C         0.37609544232379    1.16529356284888   -3.31578334250125
C         1.22137853480504   -0.00122949636236   -3.30853623020953
C         0.37407050727623   -1.16684183847904   -3.31109470502919
Cl       -1.94141304730706   -0.02012432763761    5.24153849373591
Cl        4.69041225543793   -1.08554146922715    2.86841115610645
62
 energy: -137.548928825909 gnorm: 0.001546100289 xtb: 6.4.1 (a3dbbd7)
C        -1.30059187310897   -0.00382222067519    3.53016431602259
C        -0.37515580716270   -1.17728628593681    3.29595419502449
C         0.97680186966260   -0.72865668223274    3.26667691409075
C         0.96032741979135    0.72414517411048    3.28388502102977
C        -0.36684548331114    1.17040963412908    3.31379047108057