62
 energy: -137.508842541351 gnorm: 0.128292709407 xtb: 6.4.1 (a3dbbd7)
C        -1.29770965891222    0.00000000000000    3.53163224767276
C        -0.37107604425475   -1.17478800586359    3.31058196643012
C         0.97979757550459   -0.72157705231961    3.28110534952822
C         0.97979757550459    0.72157705231961    3.28110534952822
C        -0.37107604425475    1.17478800586360    3.31058196643013
C         2.33544184946295   -2.58264348698296    0.58346340581249
C         3.18207169571150   -1.41543014636129    0.58234433372313
C         2.94373959867916   -0.69404060100004    1.80708186552027
C         1.95046398470883   -1.41556779135961    2.56176558167067
C         1.57767488865866   -2.57871801508103    1.80912454278211
C         3.18207169571150    1.41543014636129    0.58234433372313
C         2.33544184946295    2.58264348698296    0.58346340581249
C         1.57767488865866    2.57871801508103    1.80912454278211
C         1.95046398470883    1.41556779135961    2.56176558167066
C         2.94373959867916    0.69404060100004    1.80708186552027
C        -0.36119281684147    3.44519252612879    0.58582996047390
C        -1.73469290191499    3.00153459982720    0.58916793337350
C        -1.97220713510261    2.29308475607878    1.81059639720294
C        -0.73400332666893    2.27691900303500    2.56853480078419
C         0.25309257506893    2.99789064535074    1.80898867763471
C        -3.39649784746455    0.71758744312072    0.57410478167568
C        -3.39649784746455   -0.71758744312072    0.57410478167568
C        -2.77168037603652   -1.14964415915414    1.80664876434809
C        -2.42168465399864    0.00000000000000    2.56054627302143
C        -2.77168037603652    1.14964415915414    1.80664876434809
C        -1.73469290191499   -3.00153459982719    0.58916793337351
C        -0.36119281684148   -3.44519252612879    0.58582996047390
C         0.25309257506893   -2.99789064535073    1.80898867763471
C        -0.73400332666892   -2.27691900303499    2.56853480078419
C        -1.97220713510261   -2.29308475607878    1.81059639720295
C        -0.24585893810850   -3.00970705822685   -1.82232538763502
C         0.74439012833927   -2.28841876480361   -2.57822875384061
C         1.97268106729833   -2.28861170675520   -1.82114897801170
C         1.74031203428013   -3.00832022201671   -0.59623578829480
C         0.36724813466371   -3.45114129717027   -0.59443426078026
C         2.79027372790168   -1.16551010025889   -1.82330670861298
C         2.41077011246349    0.00000000000000   -2.58030971859023
C         2.79027372790168    1.16551010025889   -1.82330670861298
C         3.40598095600767    0.72109250237888   -0.59875668403540
C         3.40598095600767   -0.72109250237888   -0.59875668403540
C         1.97268106729833    2.28861170675520   -1.82114897801170
C         0.74439012833927    2.28841876480360   -2.57822875384062
C        -0.24585893810850    3.00970705822685   -1.82232538763502
C         0.36724813466371    3.45114129717027   -0.59443426078026
C         1.74031203428013    3.00832022201671   -0.59623578829480
C        -1.56847069976934    2.58049680433801   -1.82122736601016
C        -1.94730857051169    1.41533687195356   -2.58360676406823
C        -2.94243160962768    0.69434475341889   -1.82977489504240
C        -3.17479380115303    1.41444285760430   -0.60326970185865
C        -2.32688654321742    2.58113588269429   -0.60086409487791
C        -2.94243160962768   -0.69434475341889   -1.82977489504240
C        -1.94730857051169   -1.41533687195356   -2.58360676406823
C        -1.56847069976934   -2.58049680433801   -1.82122736601016
C        -2.32688654321742   -2.58113588269429   -0.60086409487790
C        -3.17479380115303   -1.41444285760429   -0.60326970185865
C        -0.99138524268633   -0.72097607833148   -3.31029871234527
C        -0.99138524268633    0.72097607833148   -3.31029871234528
C         0.38054100031802    1.16548515734434   -3.30884687187952
C         1.22668597234242    0.00000000000000   -3.30783368151334
C         0.38054100031802   -1.16548515734434   -3.30884687187952
Cl       -1.93737486741132   -0.00000000000005    5.25509316806359
Cl        5.15031400235573    1.08165789367404   -0.92030733637229
62
 energy: -137.530142104316 gnorm: 0.072016336160 xtb: 6.4.1 (a3dbbd7)
C        -1.30229570268470    0.00111512899427    3.53548384843476
C        -0.37328754330972   -1.17169693868890    3.31226721657814
C         0.97333303544445   -0.71946719608096    3.27905015661919
C         0.97225093638934    0.72497349423668    3.28842456634018
C        -0.37830551660354    1.17671811133122    3.31429484997303
C         2.33632212299180   -2.58931448219996    0.57753081187544
C         3.18522909107122   -1.42404840700813    0.57367574785599
C         2.93461968938150   -0.69674970775771    1.80283005996596
C         1.94845118553695   -1.41462947172727    2.55637409518204
C         1.57518392770916   -2.57853706368245    1.80254511649852
C         3.17101964529389    1.42203112394743    0.60526174934660
C         2.31758799017009    2.57411392163445    0.59398103994589
C         1.56653754440169    2.58253499502702    1.82286583819163
C         1.93986274014481    1.42243516870241    2.57391555256611
C         2.92566274303959    0.69729716619558    1.80682786925161
C        -0.36484842927056    3.45057975682118    0.59186463011712
C        -1.73628925978936    3.00371122996836    0.59275640575650
C        -1.97967660402821    2.29712424455679    1.81540331774352
C        -0.74263362720161    2.27965191068237    2.57276722117968
C         0.24329115975108    3.00445861400985    1.81583659844989
C        -3.39670573540553    0.71999408444020    0.57535071333939
C        -3.39592995207425   -0.71509693660328    0.57590568059656
C        -2.77164681942229   -1.14649736231009    1.80949001939195
C        -2.42524728103676    0.00181980025899    2.56329458723950
C        -2.77490801261806    1.15244399973444    1.80918012134765
C        -1.73424187786144   -3.00038015987052    0.58857477949629
C        -0.36320659306124   -3.44669773430917    0.58331660409629
C         0.25162827454661   -2.99596653317361    1.80426559217833
C        -0.73754974091201   -2.27596169902493    2.56733377989175
C        -1.97156324479158   -2.29138444358946    1.81424902659272
C        -0.24814402117401   -3.01232648646272   -1.82317959352370
C         0.74323156149711   -2.29069880928565   -2.57919765095003
C         1.97245935295730   -2.29609429123826   -1.82344545407897
C         1.73970346336188   -3.01714989336339   -0.60141236832126
C         0.36548818129683   -3.45537151099118   -0.59777472679400
C         2.79478473354148   -1.17194781259054   -1.82210234573286
C         2.40193309057945   -0.00617023424749   -2.57856967657292
C         2.76487471510876    1.15782993792807   -1.82893720698117
C         3.48460723678724    0.73188626250618   -0.61576650528357
C         3.44034766405129   -0.74436722750664   -0.60901951413917
C         1.95740709362375    2.27649992862786   -1.82132018343910
C         0.74068047298376    2.28737157781042   -2.58540060509594
C        -0.24561115272113    3.00832824484461   -1.82130161319854
C         0.36615712659245    3.45149918352134   -0.59210053702320
C         1.73085920002408    3.00428047043802   -0.59103207013514
C        -1.56675283291663    2.58034665786952   -1.82074193189221
C        -1.94692426658543    1.41568464160286   -2.58383435278356
C        -2.94148162878775    0.69638721113113   -1.82856437286925
C        -3.17438707311359    1.41641956652365   -0.60230174214513
C        -2.32427413089708    2.58089271832942   -0.59826212568950
C        -2.94260399150160   -0.69317713637761   -1.82804962699570
C        -1.94935615400737   -1.41533292523907   -2.58251862475149
C        -1.56972626398579   -2.58072713516869   -1.82031643189391
C        -2.32752031813386   -2.58085505220207   -0.59924850684705
C        -3.17452695595553   -1.41203114989720   -0.60114759842982
C        -0.99431635502296   -0.72286638487555   -3.31191128183142
C        -0.99388486850917    0.71924243607619   -3.31287598900425
C         0.37758008850176    1.16237620069580   -3.31518905890380
C         1.22102632969464   -0.00414872692286   -3.31273948256453
C         0.37676058077665   -1.16940691824376   -3.31167731785918
Cl       -1.93967086221190    0.00495676164965    5.25994829563498
Cl        5.27008347167473    1.11575317421720   -0.95207965633068
62
 energy: -137.538710407455 gnorm: 0.033759904520 xtb: 6.4.1 (a3dbbd7)
C        -1.30697257917961    0.00257968783124    3.53811523578221
C        -0.37485528340834   -1.16770736218801    3.31461050024634
C         0.96313148935825   -0.71551203641581    3.27989336767924
C         0.96429935842430    0.73096772555959    3.28876612198023
C        -0.38591025199080    1.18069681814114    3.31878572919467
C         2.32528449285907   -2.59309261083833    0.57445128872520
C         3.15372210476947   -1.42046592303105    0.56756784574293
C         2.92098961021714   -0.69719535981979    1.80550072911377
C         1.94484590264742   -1.41076379851473    2.55414108907221
C         1.56741745031429   -2.57936800023365    1.80134940265377
C         3.17515318195567    1.42973502710236    0.62092610231516
C         2.31035013178499    2.56477207361330    0.59700379201392
C         1.55798922741352    2.58443857625964    1.82709848871268
C         1.93003174236471    1.43096228662211    2.57714220242249
C         2.91234106546831    0.70533771467239    1.79540895559678
C        -0.37046993696780    3.45573377849372    0.59836806815665
C        -1.73961638618233    3.00320009372172    0.59584044050467
C        -1.98936305085559    2.29713036259088    1.82034264131511
C        -0.75260786063477    2.28312351835972    2.57660247282310
C         0.23309856035144    3.00944777030715    1.81794681942970
C        -3.39899443667961    0.71702157303724    0.57721163578153
C        -3.39626965195639   -0.71801338507534    0.57847567158603
C        -2.77211315924877   -1.14712308245297    1.81412332649391
C        -2.43022963853201   -0.00065132259163    2.56557173065998
C        -2.78063925997855    1.15164349392844    1.81139458936647
C        -1.73201521707719   -3.00361651099822    0.58696107085311
C        -0.36569587722343   -3.45246317012946    0.58108597587742
C         0.24860325923998   -2.99761009073715    1.80211344874418
C        -0.74340961560712   -2.27789564915074    2.56787866320848
C        -1.96769573569087   -2.29235331886678    1.82052160347793
C        -0.25208410579816   -3.01736232327814   -1.82551723167024
C         0.73834082698784   -2.29274684038304   -2.58389013759560
C         1.96245527665038   -2.30025634587557   -1.82577124225031
C         1.73241980245226   -3.02435572063305   -0.60634990277281
C         0.36123761421422   -3.46448985944814   -0.60280515825860
C         2.77719660984496   -1.16915336869691   -1.81477318578558
C         2.39033847139630   -0.00251787793597   -2.56977918327025
C         2.75904855489860    1.15873913981609   -1.83386198372220
C         3.62724002057760    0.76184889638582   -0.64465228519242
C         3.40318379098091   -0.74879619969294   -0.60656266517632
C         1.95644467552692    2.26778812322770   -1.82132051768147
C         0.74254502178571    2.28276607420491   -2.58332908884134
C        -0.24492603844180    3.00371004988186   -1.81590191200917
C         0.36826372047329    3.44944534983734   -0.58784102097003
C         1.72800013310196    3.00771209430042   -0.58583828400748
C        -1.56510154828859    2.57734659430788   -1.81880595950615
C        -1.94809121443321    1.41384665728680   -2.58308412701609
C        -2.94136077792239    0.69469979706709   -1.82655052472072
C        -3.17561809021172    1.41314268057763   -0.60071470978260
C        -2.32295895809226    2.57585773506786   -0.59404184888448
C        -2.94238835321793   -0.69625678162802   -1.82492413246789
C        -1.95190010422664   -1.41789435950678   -2.58158100628435
C        -1.57168840297839   -2.58430910687555   -1.82062884535670
C        -2.32631222850118   -2.58513740550488   -0.59674180245054
C        -3.17387689930060   -1.41348642511941   -0.59788982698480
C        -0.99876453307672   -0.72518363698836   -3.31417126426590
C        -0.99716230687854    0.71746696878453   -3.31462669561172
C         0.37473306456076    1.15999364569491   -3.31631800057806
C         1.21474230301694   -0.00370288798840   -3.31491033768641
C         0.37162286840260   -1.17128562461032   -3.31563935753529
Cl       -1.94436845808897   -0.00070946264193    5.26172079938136
Cl        5.44983726196117    1.14197943484361   -0.99524983095958
62
 energy: -137.540125149452 gnorm: 0.018072005460 xtb: 6.4.1 (a3dbbd7)
C        -1.30887145306899    0.00278657243505    3.53812375189111
C        -0.37628048039447   -1.16793968763943    3.31386737254635
C         0.96146279405824   -0.71569323988583    3.27730490020679
C         0.96301742003515    0.73017915286856    3.28368997729685
C        -0.38708870539048    1.18124472859914    3.31873010313254
C         2.32445238925644   -2.58503522414931    0.57176376368025
C         3.16542088490651   -1.41804225109031    0.56640594135674
C         2.92463777750849   -0.69705150123469    1.80422714555605
C         1.94416589729852   -1.40859637301916    2.55116935090853
C         1.56624180746437   -2.57655508701054    1.79872867816881
C         3.17899862645312    1.42463228037778    0.60982567849663
C         2.31643842980702    2.56572693035186    0.59227896806096
C         1.55880751676141    2.58168760760883    1.82052535427643
C         1.92997728685620    1.42674601043884    2.56863919099630
C         2.91937641591024    0.70435069557817    1.79062393433654
C        -0.37177171113175    3.45488985636322    0.59838760200040
C        -1.74186222329442    3.00401868971035    0.59618187360836
C        -1.99102389577114    2.29762499745218    1.82110236934583
C        -0.75357345980555    2.28439618723258    2.57755534988766
C         0.23325317317590    3.00810996192173    1.81680842596599
C        -3.40243447239919    0.71741778374669    0.57868236785916
C        -3.39926048458900   -0.71775846068085    0.57964630636400
C        -2.77516851862745   -1.14690593579847    1.81536356157295
C        -2.43301822259925   -0.00027467022977    2.56613849719362
C        -2.78425922283122    1.15290568920123    1.81266769612559
C        -1.73350023045034   -3.00384534534885    0.58706864965512
C        -0.36688994381618   -3.45267288725349    0.58070624036826
C         0.24777526999636   -2.99682218753360    1.80138129050917
C        -0.74500693240251   -2.27858802636786    2.56800148668275
C        -1.96894040527823   -2.29158267297216    1.82063403671481
C        -0.25307831001779   -3.01791780369808   -1.82571378683603
C         0.73843470455223   -2.29261271016270   -2.58278703988692
C         1.96339321212542   -2.29562023185620   -1.82460438918181
C         1.73189086982874   -3.02041054676265   -0.60670467022355
C         0.36090872392557   -3.46484267388182   -0.60304343217756
C         2.78270211842053   -1.16620767432673   -1.81410517817151
C         2.39741222091275    0.00009251322593   -2.56957652299402
C         2.77797816720062    1.16280760646310   -1.83528210643586
C         3.61570022508560    0.75729017518808   -0.64467234621011
C         3.41850756572844   -0.74359441924362   -0.60828414145121
C         1.96533189798833    2.26974375007357   -1.82060685119760
C         0.74452596124362    2.27797152873950   -2.57610877085065
C        -0.24485511172066    2.99986469518376   -1.81249629830709
C         0.36827685036112    3.44707849325848   -0.58607300443738
C         1.73116685904827    3.00936094706010   -0.58639317873709
C        -1.56583733627563    2.57555735419349   -1.81662884597040
C        -1.94896738878653    1.41251346325340   -2.58104848499268
C        -2.94292853112426    0.69406650517801   -1.82491454730488
C        -3.17764862528521    1.41276475174083   -0.59944407852920
C        -2.32509110140543    2.57578630911505   -0.59295505204423
C        -2.94388407012479   -0.69670194217251   -1.82351310642216
C        -1.95327194361435   -1.41849056167094   -2.58043723762515
C        -1.57336238955989   -2.58516323644374   -1.82029201866291
C        -2.32783108249763   -2.58506404098863   -0.59600132060459
C        -3.17583694079859   -1.41313990650022   -0.59652997070261
C        -0.99891939038757   -0.72592667774989   -3.31191023178187
C        -0.99739389276815    0.71656615019000   -3.31210528567484
C         0.37540620551845    1.15800794163528   -3.31100322765907
C         1.21753056105236   -0.00395583272809   -3.30963937976407
C         0.37222375070726   -1.17113027884480   -3.31301118057909
Cl       -1.95009075719268   -0.00206582064330    5.25991762429250
Cl        5.42397928355277    1.13567647317746   -0.98741406402477
62
 energy: -137.540515304532 gnorm: 0.011543164693 xtb: 6.4.1 (a3dbbd7)
C        -1.30923639609460    0.00288875248115    3.53846863998025
C        -0.37603045003838   -1.16801177532923    3.31427064650958
C         0.95990633644874   -0.71588626333001    3.27652058955143
C         0.96231027397225    0.73024688567511    3.28074558133205
C        -0.38738200079270    1.18179412249347    3.31877459327054
C         2.32272670539970   -2.58067277892264    0.56983873180074
C         3.16798379027454   -1.41595223140847    0.56569583601784
C         2.92516432579287   -0.69786702402248    1.80523604387113
C         1.94440489241945   -1.40739008899136    2.55024424068617
C         1.56495390378320   -2.57505437022931    1.79719949524648
C         3.17986283394020    1.42037027229675    0.60287585854928
C         2.31887607943984    2.56518322630958    0.58884348285083
C         1.55824203989506    2.57956107252424    1.81617565776734
C         1.92863528912286    1.42458481380695    2.56280867011545
C         2.92232959079071    0.70430286215526    1.78525572610104
C        -0.37300155664445    3.45570963965867    0.59878391151308
C        -1.74323714666960    3.00490413803179    0.59610487049720
C        -1.99199330501805    2.29781865057191    1.82157767695170
C        -0.75416583505677    2.28543361329718    2.57808805211408
C         0.23264803486276    3.00823178694816    1.81607310208801
C        -3.40414175833495    0.71755339340664    0.57938658921020
C        -3.40011444144296   -0.71777912149583    0.58023108281294
C        -2.77597071665680   -1.14665253670802    1.81649020059439
C        -2.43345450701321   -0.00041769149402    2.56576539907994
C        -2.78608461803396    1.15389900590025    1.81304734281722
C        -1.73335174938986   -3.00462265208666    0.58671925978108
C        -0.36734902406154   -3.45362268863156    0.58041786352107
C         0.24770695661271   -2.99712522560169    1.80112368740546
C        -0.74617358954290   -2.27988183443124    2.56852099322197
C        -1.96783514480909   -2.29105393429781    1.82166762300125
C        -0.25374456764289   -3.01922369784453   -1.82600873088425
C         0.73795520230214   -2.29249881984818   -2.58243171495718
C         1.96222858752938   -2.29264439256610   -1.82363482172947
C         1.73108633500011   -3.01912420985668   -0.60711928482967
C         0.36056702152767   -3.46641677748193   -0.60357704350443
C         2.78200615902935   -1.16309189106646   -1.81182606533689
C         2.39915051731883    0.00289578851369   -2.56781327029854
C         2.78876787410144    1.16587175230412   -1.83509357553150
C         3.62296162214966    0.75775383988607   -0.64722429556456
C         3.42011487508933   -0.73884760277589   -0.60770444441660
C         1.96952536775884    2.26957990753834   -1.81953064010264
C         0.74591214949132    2.27449607159840   -2.57158611807886
C        -0.24467408754963    2.99688962091639   -1.80972164936765
C         0.36823027944757    3.44671342238152   -0.58491012506491
C         1.73204688449636    3.01204948177903   -0.58624746565347
C        -1.56612577618313    2.57465913612269   -1.81568996699651
C        -1.94960608380170    1.41182031380551   -2.58005869990141
C        -2.94382707869724    0.69379948154138   -1.82420577694815
C        -3.17876784471137    1.41235660870393   -0.59906373664599
C        -2.32595494059681    2.57545635591832   -0.59224029527856
C        -2.94417871879501   -0.69720983383745   -1.82268220210960
C        -1.95393056730696   -1.41908440407280   -2.58007129447218
C        -1.57401753337314   -2.58616191022778   -1.82040755514487
C        -2.32764544203882   -2.58550081201435   -0.59529447730500
C        -3.17599111081202   -1.41271649918856   -0.59563560258210
C        -0.99931954668802   -0.72624371936073   -3.31116807772657
C        -0.99805253336167    0.71620274375994   -3.31105039674182
C         0.37525906959366    1.15711318004254   -3.30832098735725
C         1.21817896325413   -0.00366384016166   -3.30623605563101
C         0.37209297447819   -1.17084904700398   -3.31148700641062
Cl       -1.95469831906474   -0.00366641190957    5.25777383235147
Cl        5.41966908823080    1.13045203950210   -0.98383616442284
62
 energy: -137.540714453716 gnorm: 0.006139695290 xtb: 6.4.1 (a3dbbd7)
C        -1.30865186869759    0.00294685051256    3.53884487977886
C        -0.37477174782053   -1.16802921971332    3.31513904240917
C         0.95914292890679   -0.71635589086506    3.27701467677341
C         0.96247525758921    0.73049190798008    3.27936155694477
C        -0.38682899915778    1.18208595022712    3.31857521092003
C         2.32128328832079   -2.57890825823577    0.56885775585200
C         3.16679611996707   -1.41477228703314    0.56576164388844
C         2.92471590950127   -0.69916603969196    1.80743840158205
C         1.94558274314283   -1.40730675715207    2.55095196815812
C         1.56438442881200   -2.57487605189366    1.79684330179664
C         3.17852206711283    1.41675458644143    0.59852701282722
C         2.31925535024187    2.56450099242360    0.58654753838742
C         1.55763219099996    2.57822747213091    1.81365896646692
C         1.92748197645361    1.42363975204598    2.55933902797047
C         2.92347532544646    0.70448259432351    1.78110070700092
C        -0.37377420524749    3.45686816192895    0.59889166304095
C        -1.74383348252348    3.00564930104668    0.59564928001564
C        -1.99201993814549    2.29758456057461    1.82150534276076
C        -0.75398280832035    2.28592209442918    2.57802696541188
C         0.23222637964732    3.00887377761966    1.81554465957208
C        -3.40462365339769    0.71761590342945    0.57954603912162
C        -3.39983717810334   -0.71781612903578    0.58039145653130
C        -2.77546067611781   -1.14636976715299    1.81728421497597
C        -2.43245849360839   -0.00084640284053    2.56482316451975
C        -2.78650118497376    1.15459174881179    1.81276362199858
C        -1.73229410532196   -3.00534215059064    0.58630780774220
C        -0.36705574437109   -3.45458306847743    0.58030925683424
C         0.24834826044666   -2.99812684153836    1.80139891871943
C        -0.74668808750443   -2.28122981707695    2.56912633476229
C        -1.96574725893816   -2.29076042445265    1.82293054253621
C        -0.25389275820315   -3.02037979174311   -1.82621572157830
C         0.73752621500419   -2.29236716863652   -2.58254530441992
C         1.96074366256782   -2.29099500961379   -1.82313216087935
C         1.73063573612581   -3.01909238566582   -0.60736088799879
C         0.36056100038405   -3.46800189842176   -0.60406490106071
C         2.77884952388590   -1.16055847364729   -1.80970942612926
C         2.39856499684347    0.00527398835232   -2.56642850062253
C         2.79406614481316    1.16812023843063   -1.83439266483629
C         3.63343034881335    0.75953659231317   -0.64954041186568
C         3.41489839215692   -0.73475069948508   -0.60597926924783
C         1.97083015383572    2.26900830972701   -1.81889721875030
C         0.74666219121338    2.27267866312240   -2.56940413221144
C        -0.24459888705763    2.99546904045481   -1.80824862020460
C         0.36803812662158    3.44766889772908   -0.58468525509918
C         1.73183290539790    3.01470958555268   -0.58613420863666
C        -1.56632101026994    2.57468898056852   -1.81575636786150
C        -1.95001157337543    1.41168168563044   -2.57986710428099
C        -2.94425377083267    0.69386337611141   -1.82412691401749
C        -3.17922220563525    1.41213712963289   -0.59923863077797
C        -2.32619508665875    2.57531973733618   -0.59204748894560
C        -2.94382053732396   -0.69752364498940   -1.82227534564994
C        -1.95396497366122   -1.41938209657862   -2.58001845932265
C        -1.57390770870272   -2.58674983677872   -1.82056402561586
C        -2.32654456427101   -2.58579994963634   -0.59467936124359
C        -3.17532634018460   -1.41219546573945   -0.59514979103947
C        -0.99953455102808   -0.72613187985178   -3.31114512503991
C        -0.99872119095649    0.71629849152541   -3.31101681252110
C         0.37476848837348    1.15716374883425   -3.30760313292018
C         1.21803174440391   -0.00306804210592   -3.30470881454358
C         0.37193047144642   -1.17042556831890   -3.31078837974680
Cl       -1.95758948193770   -0.00479996717383    5.25555474344272
Cl        5.41718937720290    1.12451475856398   -0.97944352605842
62
 energy: -137.540763058576 gnorm: 0.003443066084 xtb: 6.4.1 (a3dbbd7)
C        -1.30811670331449    0.00298654336167    3.53895511358181
C        -0.37394323538764   -1.16797356721489    3.31554013562484
C         0.95938366598868   -0.71660642927077    3.27770217612224
C         0.96301520615017    0.73063796730641    3.27964061199992
C        -0.38629136662832    1.18207542172274    3.31834107213395
C         2.32112050003437   -2.57957701423091    0.56902658608054
C         3.16515846771096   -1.41495594652729    0.56611193390006
C         2.92434617551489   -0.69965579601371    1.80848294583923
C         1.94648845335083   -1.40781201300237    2.55185708239108
C         1.56473420068925   -2.57551690166150    1.79732487350160
C         3.17700434803497    1.41598623859153    0.59841651033096
C         2.31837760605312    2.56428373157264    0.58647430324232
C         1.55760315548931    2.57834290256281    1.81388394396839
C         1.92746875558039    1.42402516937091    2.55959200948902
C         2.92310778135929    0.70467522773327    1.78068409117350
C        -0.37371679931755    3.45710725503072    0.59868682356809
C        -1.74362982829840    3.00570017947947    0.59534669805612
C        -1.99161131126388    2.29723433735816    1.82117900895164
C        -0.75354433339945    2.28576416163960    2.57768293780013
C         0.23226255058894    3.00917902126442    1.81544339813913
C        -3.40425013755467    0.71761210817194    0.57937728946764
C        -3.39933281860818   -0.71780764569062    0.58028747323400
C        -2.77474785507848   -1.14624821804265    1.81739267576240
C        -2.43161491089139   -0.00114478697375    2.56434821213345
C        -2.78603264366736    1.15464538722422    1.81239387358730
C        -1.73157187463441   -3.00543673307249    0.58621329061927
C        -0.36654107655991   -3.45477639364384    0.58034024616751
C         0.24892054316171   -2.99867797843048    1.80169439035661
C        -0.74651188379174   -2.28159588860058    2.56929899639146
C        -1.96477561271227   -2.29084903447956    1.82339370534374
C        -0.25364912928662   -3.02049611903877   -1.82624893076038
C         0.73748620586427   -2.29231744090336   -2.58285539036787
C         1.96034598497341   -2.29112331105575   -1.82328106281982
C         1.73075388064265   -3.01950651842362   -0.60737927819177
C         0.36079676906965   -3.46827379032980   -0.60421240099016
C         2.77701979792556   -1.16011642238961   -1.80938173542075
C         2.39765398772068    0.00577655847612   -2.56653572235016
C         2.79315347241783    1.16843987233440   -1.83427111339847
C         3.63757956678016    0.76048831002225   -0.64996604591318
C         3.41024388965760   -0.73380104986486   -0.60501104373742
C         1.97004291953482    2.26881419384288   -1.81916343741877
C         0.74657041952085    2.27305859851856   -2.56996567225135
C        -0.24465006669844    2.99594951059108   -1.80860240176507
C         0.36794325608823    3.44844577081978   -0.58516491350249
C         1.73142437121456    3.01518587529446   -0.58623022943927
C        -1.56635965519994    2.57511622497481   -1.81621533430141
C        -1.95001540085357    1.41187562035098   -2.58014616976206
C        -2.94416725332413    0.69401960471223   -1.82433736747356
C        -3.17908808985448    1.41218662338827   -0.59950288836908
C        -2.32607072996061    2.57539837976406   -0.59225971644839
C        -2.94346887129461   -0.69750975191846   -1.82230575575189
C        -1.95367647800306   -1.41928368901033   -2.58004674011193
C        -1.57352421972390   -2.58661832198690   -1.82052981813487
C        -2.32583419515819   -2.58575125551573   -0.59451627495546
C        -3.17485788548898   -1.41201117276434   -0.59516852018948
C        -0.99944324593558   -0.72589672396622   -3.31135597086337
C        -0.99884418518992    0.71652868643042   -3.31144648213598
C         0.37450000142978    1.15767162588467   -3.30837635126228
C         1.21775505409874   -0.00269850263035   -3.30529239264403
C         0.37196513551459   -1.17020442653670   -3.31100539385956
Cl       -1.95731096813412   -0.00480832353851    5.25481245113631
Cl        5.41441427638477    1.12149795260728   -0.97630256588783
62
 energy: -137.540777293599 gnorm: 0.001682234845 xtb: 6.4.1 (a3dbbd7)
C        -1.30795323133432    0.00302673333622    3.53901489410826
C        -0.37369428233670   -1.16789220001469    3.31553657659753
C         0.95971016582418   -0.71661071017888    3.27795267954173
C         0.96333332533770    0.73069715115288    3.28007137970665
C        -0.38611570927463    1.18204277413023    3.31821872756942