63
 energy: -142.091135727527 gnorm: 0.143993292515 xtb: 6.4.1 (a3dbbd7)
C        -1.29585809770389    0.00401118895665    3.54517689253707
C        -0.36796043462932   -1.17243305037605    3.30515820978008
C         0.98298838983527   -0.72191219207564    3.27512267938171
C         0.98156472667820    0.71960753568128    3.26971969810914
C        -0.37066843460465    1.17924059903467    3.30150764336582
C         2.33648296603916   -2.58548060331365    0.57950289353032
C         3.18657767574002   -1.41946403927647    0.57781419519059
C         2.94957050639235   -0.69854930596759    1.80123308070154
C         1.95308396824160   -1.41752165468763    2.55613481575760
C         1.57961582989334   -2.57968580837377    1.80518673242103
C         3.18767024140451    1.40991878522763    0.57593180000620
C         2.33807592116844    2.57402574447607    0.57591940981122
C         1.57683795432701    2.56605672107525    1.79975339071644
C         1.95304946465436    1.40835201077487    2.55205927518980
C         2.95072023087345    0.68875745016373    1.80098024572921
C        -0.36516779407368    3.42666371337356    0.57921714423118
C        -1.72924376763824    3.01648005769000    0.58287705261872
C        -2.09463355992581    2.46231283092052    1.94730853815858
C        -0.73027134402217    2.28553619303067    2.58224921102021
C         0.24829448349984    2.97593693112150    1.80334175266563
C        -3.37466967425340    0.70300551354290    0.57574930054980
C        -3.39003092747716   -0.73268815647906    0.56838248265369
C        -2.76818811332164   -1.16356142379097    1.78871572221350
C        -2.38904763706855    0.02437925876362    2.53264263719760
C        -2.74834472563595    1.12995086275151    1.81420011519069
C        -1.73481952350512   -3.00995345714269    0.57938225060336
C        -0.36149853481650   -3.44686666227317    0.58178847315895
C         0.25217194581416   -2.99475012292755    1.80551621994623
C        -0.72930832442940   -2.27346636839910    2.56467955448571
C        -1.97147545426586   -2.28746259170963    1.79868366133100
C        -0.24419850626392   -3.01431906333444   -1.82647673840836
C         0.74940205407495   -2.29291975825760   -2.58286291053874
C         1.97453700933417   -2.29239152843074   -1.82543977586922
C         1.74139873400736   -3.01127177410490   -0.59946235558356
C         0.36858334367966   -3.45436466613801   -0.59762914044760
C         2.79442417392884   -1.17031401259636   -1.82833550603033
C         2.41574661888024   -0.00512369156855   -2.58546959716668
C         2.79806943075341    1.16104826420258   -1.83045397172065
C         3.41356646771945    0.71553904943849   -0.60565027142670
C         3.41126633561149   -0.72579612454708   -0.60436594395851
C         1.98256115248497    2.28538932455247   -1.82964816243281
C         0.75350030257848    2.28551308199782   -2.58573232036207
C        -0.23508280213456    3.00436687409655   -1.82344140492918
C         0.37359850932028    3.44286488622179   -0.60220138863872
C         1.74684322376492    3.00246743943424   -0.60372642363492
C        -1.55566653231806    2.56818250386052   -1.80941223575869
C        -1.93859434646944    1.40592010794080   -2.57168095880615
C        -2.93551210457882    0.68461262535792   -1.82146846772098
C        -3.16898901542976    1.39767486975662   -0.59605965548237
C        -2.30435127723071    2.57332623923171   -0.58497549467516
C        -2.94114405309208   -0.70773319324488   -1.83440725641731
C        -1.94505174577217   -1.42387954875747   -2.59102123506710
C        -1.56548890447542   -2.59170746585215   -1.83211639425372
C        -2.32839595515909   -2.59312664323360   -0.60918315818311
C        -3.17773883494341   -1.43218193772331   -0.61434027474195
C        -0.98775846759569   -0.72638522820754   -3.31322849837523
C        -0.98659864719709    0.71557045430270   -3.30737103326374
C         0.38544609985482    1.16109326139683   -3.31071431261235
C         1.23106807703669   -0.00470839638716   -3.31198800126459
C         0.38446650889097   -1.17000629330740   -3.31255499443923
Cl       -1.95494402230001   -0.00808767739961    5.23350834621500
Cl       -3.13453400437008    3.62205440029917    2.87428256883422
Cl       -2.97144178515227   -3.46492470422046    2.74194943018679
63
 energy: -142.115840085094 gnorm: 0.066321382036 xtb: 6.4.1 (a3dbbd7)
C        -1.29603352365087    0.00461023655375    3.54127758412601
C        -0.36403052194938   -1.16535076471881    3.29319873828344
C         0.98760282677534   -0.71928185482042    3.27476096164480
C         0.98258885787709    0.72160084089084    3.26869567439357
C        -0.37089536718035    1.17973706305981    3.29818729496490
C         2.34034690087350   -2.58485268135612    0.57693971802202
C         3.18854158418453   -1.41835854627852    0.57646959080516
C         2.95186780848480   -0.69708046832098    1.80016517693602
C         1.95704078777819   -1.41587752282948    2.55586932526356
C         1.58468404848069   -2.57701640824805    1.80320984594448
C         3.18819901318074    1.41080443490373    0.57536510940844
C         2.33849477192848    2.57507425214059    0.57536398633582
C         1.57728569805774    2.56730026141323    1.79887985500125
C         1.95397477282484    1.40983574508904    2.55097985089595
C         2.95217361820500    0.69024713064427    1.80018135064938
C        -0.36421527016176    3.42931531889397    0.57849127338615
C        -1.72920137981765    3.02260717040115    0.58077618558330
C        -2.09472365951418    2.46966586373493    1.94501578124320
C        -0.73053589342119    2.28736846879054    2.58014352622436
C         0.24862371517401    2.97797988900739    1.80271878777614
C        -3.37574040689930    0.71887907998021    0.57450038546722
C        -3.37953026196174   -0.71872308292183    0.57131301504957
C        -2.78309854325030   -1.14708662453700    1.79798035041124
C        -2.38141064964160    0.02521480244483    2.52078797356406
C        -2.75221245494955    1.14354572230316    1.80672874533894
C        -1.72157300251622   -3.01113315130642    0.56772347073465
C        -0.35595471589141   -3.44215462527874    0.57486657318829
C         0.25665295947419   -2.98749917491383    1.79914181678964
C        -0.71841888306629   -2.26674822865117    2.55795433097745
C        -2.02741362144252   -2.36410591439418    1.85959026851184
C        -0.23831880770471   -3.01778264401950   -1.83207847968187
C         0.75307302307858   -2.29349602262943   -2.58631574262014
C         1.97854595357067   -2.29232217657252   -1.82907757862556
C         1.74628842833677   -3.01167129344460   -0.60325456278389
C         0.37540096807171   -3.45674690919050   -0.60590624765144
C         2.79642586829664   -1.16943336694751   -1.83036538226285
C         2.41662410398121   -0.00427406538410   -2.58684959801502
C         2.79859321758200    1.16152578225350   -1.83154900844459
C         3.41388975881581    0.71625385193466   -0.60682554759462
C         3.41252016038299   -0.72453330723460   -0.60599130396320
C         1.98247775295851    2.28573294027631   -1.83062056937989
C         0.75473282532508    2.28638953662494   -2.58673507049862
C        -0.23396438166978    3.00607299750616   -1.82469247418398
C         0.37465505685330    3.44421791615586   -0.60280451339743
C         1.74710908171453    3.00307488783910   -0.60417861387169
C        -1.55407616007752    2.57185608883909   -1.81193293312842
C        -1.93798697386660    1.40786466236230   -2.57291249610175
C        -2.93628743328899    0.69055666057972   -1.82393371009764
C        -3.17073113629712    1.40846506146292   -0.60132750314072
C        -2.30420255783926    2.58031384555635   -0.58836398656856
C        -2.93906519481841   -0.70515164081898   -1.83236796876963
C        -1.94262120464574   -1.42221168893883   -2.58853601935270
C        -1.56036390248003   -2.59293570905250   -1.83532009237116
C        -2.31314164404110   -2.58732910042732   -0.60997308990202
C        -3.17005309417093   -1.42392083350224   -0.61167332490642
C        -0.98624758532256   -0.72581011048092   -3.31285863076258
C        -0.98554412777037    0.71637572979681   -3.30813951308568
C         0.38585619360354    1.16143827898104   -3.31137945538348
C         1.23171191266056   -0.00414875633186   -3.31289534876608
C         0.38552993050949   -1.16958526424215   -3.31358273326984
Cl       -1.95467477202125   -0.01003229306812    5.22986612243500
Cl       -3.13396992519308    3.62783527088930    2.87572399699884
Cl       -3.05076954789029   -3.56828392587786    2.81383237350563
63
 energy: -142.122829062183 gnorm: 0.019303740320 xtb: 6.4.1 (a3dbbd7)
C        -1.29545170381691    0.00360027316805    3.54001887886819
C        -0.36925125659413   -1.16815819214993    3.28755269700403
C         0.98358206753911   -0.71726231976847    3.26596654844188
C         0.98138695069384    0.72330594362782    3.26441494110555
C        -0.37189831252624    1.18076382285617    3.29502101050851
C         2.34108479989587   -2.58185147964754    0.57420400971866
C         3.18920384713847   -1.41604419034065    0.57383447685514
C         2.95309595867581   -0.69460456667666    1.79803950890099
C         1.95523907499981   -1.41199215926634    2.55077208855149
C         1.58209370071641   -2.57162925030211    1.79929964127010
C         3.18890021933584    1.41287046052008    0.57340075254363
C         2.33947420724293    2.57742638888272    0.57329133679463
C         1.57822250340927    2.56965087009271    1.79658091914521
C         1.95423959112687    1.41196592921924    2.54851426402593
C         2.95342449513839    0.69277352825270    1.79819191757889
C        -0.36272287014503    3.43296071387377    0.57641696521533
C        -1.72831253198709    3.02884864480419    0.57839640731343
C        -2.09316954652426    2.47077326999358    1.94120346553400
C        -0.72996008482255    2.28930779411307    2.57762337283212
C         0.24951321904115    2.98030712933210    1.80059064878201
C        -3.36650663075284    0.72371217761842    0.57560489243457
C        -3.36517814856955   -0.71683164253532    0.57621753836421
C        -2.77189718596397   -1.13996066665546    1.79908770796470
C        -2.37058640887583    0.01329786638435    2.51105938574515
C        -2.75092546002216    1.14671768753057    1.80139698500278
C        -1.71988147243713   -3.01765087313555    0.56731703370522
C        -0.35913281142549   -3.43495793528436    0.57289734946104
C         0.25257820325020   -2.97915712042480    1.79673925779238
C        -0.72147171395029   -2.27184039071286    2.56236166444933
C        -2.07591434317480   -2.43709881575167    1.91541807942142
C        -0.23350614464836   -3.01549685481238   -1.83247924221584
C         0.75671284347608   -2.29302046398915   -2.58997340291191
C         1.98230168304364   -2.29084054583996   -1.83250057216361
C         1.74845772651149   -3.00990235623317   -0.60616625430146
C         0.37758360969320   -3.45400481589128   -0.60879764089726
C         2.79937956200124   -1.16734028373485   -1.83342806182588
C         2.41887043797714   -0.00203799850676   -2.58949605049137
C         2.80032120929232    1.16363177143257   -1.83412817487183
C         3.41497536513556    0.71833797303053   -0.60931280146780
C         3.41449913832758   -0.72194414354438   -0.60888971781746
C         1.98346372049056    2.28759432923851   -1.83318455853689
C         0.75714713176821    2.28888500689313   -2.58925126465209
C        -0.23213592696195    3.00929272848423   -1.82748204392009
C         0.37656944830811    3.44716349395078   -0.60491529495988
C         1.74810404369839    3.00529239188521   -0.60626562424852
C        -1.55179207860995    2.57697960732678   -1.81548552634866
C        -1.93633922175659    1.41091927653717   -2.57518928978765
C        -2.93428249025919    0.69643629009213   -1.82600215240597
C        -3.16697642767487    1.41503173855900   -0.60407292684011
C        -2.30373663206395    2.58731965478517   -0.59207285643671
C        -2.93474072631611   -0.70148772775485   -1.82772971161662
C        -1.93890219309932   -1.41752137985660   -2.58375873831859
C        -1.55489731590032   -2.58664913841534   -1.82859705314107
C        -2.30457648365461   -2.58604005229280   -0.60234801303997
C        -3.16623501294704   -1.41895803513593   -0.60756818236129
C        -0.98382688267505   -0.72338465966854   -3.31281321736053
C        -0.98334428847879    0.71889194674982   -3.31030634266630
C         0.38754565083092    1.16326605849460   -3.31322894409756
C         1.23351654592736   -0.00226628859934   -3.31476334364332
C         0.38753633941857   -1.16793431934857   -3.31529386647988
Cl       -1.95897095905400   -0.01159301395276    5.22437248737348
Cl       -3.13113194587322    3.62996269769889    2.87488919165575
Cl       -3.11686308791423   -3.64100415062926    2.86906298674529
63
 energy: -142.123355166314 gnorm: 0.012125633731 xtb: 6.4.1 (a3dbbd7)
C        -1.29603313770192    0.00153562748454    3.54160007663583
C        -0.37292247699588   -1.17359352430858    3.28982839607049
C         0.97995236892435   -0.71833094146732    3.26055209215125
C         0.97970099263132    0.72181666306010    3.26062384312691
C        -0.37298445313658    1.17900869245950    3.29282056703239
C         2.34017709999415   -2.57966193847144    0.57265833197366
C         3.18926473820674   -1.41477037335129    0.57207914253956
C         2.95288688895572   -0.69362065890779    1.79625531318826
C         1.95312695404574   -1.41079546636016    2.54713733190343
C         1.57899333733059   -2.56988856340117    1.79664242351000
C         3.18960992740340    1.41422328445694    0.57202492165307
C         2.34010359981176    2.57871671283088    0.57212373609825
C         1.57843279798836    2.57009691413186    1.79527746998470
C         1.95348153613409    1.41168550546716    2.54654952715638
C         2.95339128145131    0.69364067025337    1.79637419269993
C        -0.36206742500184    3.43454840256209    0.57521879315101
C        -1.72752001045594    3.03066364149135    0.57699395113789
C        -2.09206726392593    2.46963888944229    1.93907683656619
C        -0.72970093280238    2.28820604697807    2.57554179983159
C         0.24972036273644    2.98030499943213    1.79918075032822
C        -3.36075646602510    0.72276841721382    0.57627209762199
C        -3.36065395670607   -0.71975953898500    0.57821711671290
C        -2.76269053660317   -1.14293765702043    1.79949471045239
C        -2.36805640053180    0.00601589211663    2.51001426082663
C        -2.74901843013750    1.14544292343170    1.79937950121467
C        -1.72536711670468   -3.02644359373210    0.57311018309343
C        -0.36214266201005   -3.43474674186585    0.57443692411013
C         0.24958617757154   -2.97909518765773    1.79811747657190
C        -0.72741071281858   -2.28123944218589    2.57036409771180
C        -2.08672934279732   -2.45820984895060    1.93094189092648
C        -0.23229770660012   -3.01277528045151   -1.83052698601647
C         0.75778265409305   -2.29162011275293   -2.59077399507524
C         1.98358159203275   -2.28949402306477   -1.83392942057183
C         1.74823926946683   -3.00792373722145   -0.60713650725903
C         0.37715672472189   -3.45130372480658   -0.60742605998425
C         2.80099726235743   -1.16592581827122   -1.83528229879394
C         2.42054596558505   -0.00029405856091   -2.59125948189032
C         2.80166749480558    1.16542068300036   -1.83569489365000
C         3.41618858135230    0.71988255586059   -0.61082548757759
C         3.41581806243748   -0.72040777497260   -0.61059953552562
C         1.98448349657112    2.28936793107960   -1.83466721765452
C         0.75859615904965    2.29113365000185   -2.59095157280768
C        -0.23118489008672    3.01180121281785   -1.82931250152116
C         0.37760962405989    3.44931915620062   -0.60621857997447
C         1.74885223401858    3.00702762789142   -0.60747092412634
C        -1.55090913261386    2.58007693228838   -1.81765767207869
C        -1.93530962638419    1.41296882433503   -2.57647308985010
C        -2.93249194940474    0.69865835666649   -1.82627764968687
C        -3.16480000332922    1.41682579394035   -0.60464700386993
C        -2.30341006972753    2.58979009343298   -0.59392279524374
C        -2.93256761654354   -0.69944995837924   -1.82546483146819
C        -1.93645152253031   -1.41442806539513   -2.57960262798676
C        -1.55278173455667   -2.58244635928933   -1.82229029496974
C        -2.30518832200053   -2.58858176290361   -0.59709723170936
C        -3.16588093766074   -1.41819283841625   -0.60587427511305
C        -0.98244159031438   -0.72130490800045   -3.31175034157457
C        -0.98206555292139    0.72088552094705   -3.31130947246071
C         0.38885877525523    1.16522454503725   -3.31462814426233
C         1.23482829704975   -0.00043311283882   -3.31608878435824
C         0.38866336108805   -1.16607082422973   -3.31546467923623
Cl       -1.96476800030927   -0.00577273557575    5.22220111501691
Cl       -3.12983054778620    3.63079482759403    2.87302311130380
Cl       -3.12929209537748   -3.65115078754022    2.88074991527385
63
 energy: -142.123555353607 gnorm: 0.006221039334 xtb: 6.4.1 (a3dbbd7)
C        -1.29639352960832    0.00038617490742    3.54365004978067
C        -0.37430043190323   -1.17663376314132    3.29191358831684
C         0.97833353385900   -0.71937130692182    3.25783312790460
C         0.97891876438568    0.72033723708760    3.25839468046908
C        -0.37330138223928    1.17747990761080    3.29213337146908
C         2.33959727829509   -2.57834993033746    0.57179680783447
C         3.18961306745420   -1.41432073782097    0.57133866378322
C         2.95311627811466   -0.69329689535805    1.79542879712536
C         1.95238975495008   -1.41032608490905    2.54534671813825
C         1.57718512032476   -2.56882999719420    1.79483726600543
C         3.19019689019165    1.41479950216780    0.57147737891806
C         2.34043712573744    2.57907832565021    0.57182720122886
C         1.57847870306729    2.56982067083678    1.79492584587853
C         1.95325514958866    1.41109464086216    2.54573965250630
C         2.95350754541102    0.69385585024070    1.79551180467509
C        -0.36215874644994    3.43466673920408    0.57497525619776
C        -1.72736006762534    3.03069639951903    0.57643870327262
C        -2.09128082515213    2.46786178408664    1.93811416615639
C        -0.72955982139622    2.28688326678610    2.57477638501598
C         0.24964418640223    2.97947467406140    1.79872379589678
C        -3.35714653190714    0.72177207894074    0.57665544776834
C        -3.35835944356915   -0.72210809629946    0.57837292382528
C        -2.75446845601272   -1.14519898320444    1.79878860105885
C        -2.36673389235384    0.00081595441142    2.50988645885399
C        -2.74823656198407    1.14429426948613    1.79749073306528
C        -1.72931120456417   -3.03113213559363    0.57710280274248
C        -0.36381029216695   -3.43393427384006    0.57530066792745
C         0.24815828765045   -2.97863800035080    1.79888498646918
C        -0.73116442305554   -2.28649620967633    2.57532857483777
C        -2.09090572529388   -2.46749479134920    1.93812558996337
C        -0.23194602518829   -3.01118229593825   -1.82939616716412
C         0.75820728310766   -2.29077777181054   -2.59123131910887
C         1.98410884220317   -2.28895021316369   -1.83483639385894
C         1.74791696804356   -3.00663063111712   -0.60759058262358
C         0.37674554619908   -3.44901197945262   -0.60627742128915
C         2.80189536936243   -1.16545001573733   -1.83624834315656
C         2.42138142640183    0.00039301888177   -2.59209249558638
C         2.80221428849678    1.16606375323922   -1.83623080622993
C         3.41694445907647    0.72042697733998   -0.61140065223505
C         3.41673637827104   -0.71989505684341   -0.61139177321608
C         1.98469183480647    2.28986148917921   -1.83503914919231
C         0.75904080507319    2.29202324740849   -2.59157670380150
C        -0.23114145017700    3.01277665185418   -1.83000895609614
C         0.37779768212024    3.44999460674033   -0.60651901103391
C         1.74888698856531    3.00750727204996   -0.60768699977369
C        -1.55099402538941    2.58163501306115   -1.81892928726639
C        -1.93518049616756    1.41406045524508   -2.57748057432266
C        -2.93202882372313    0.69979227134177   -1.82669642920843
C        -3.16449382210177    1.41784364100944   -0.60538785268891
C        -2.30386998221997    2.59059396047374   -0.59489973859858
C        -2.93199298838200   -0.69820826095810   -1.82528803219528
C        -1.93522724624596   -1.41252031608588   -2.57702226848750
C        -1.55168879329059   -2.57992346521120   -1.81834538106684
C        -2.30583257592612   -2.58979157189093   -0.59428273905437
C        -3.16630785624780   -1.41758949501582   -0.60571726124987
C        -0.98193193607369   -0.72019424685050   -3.31130747247944
C        -0.98171181761784    0.72183837767436   -3.31188897056014
C         0.38938354908861    1.16615735318445   -3.31537710566525
C         1.23542863330121    0.00048925270738   -3.31681336485480
C         0.38908337024999   -1.16497804900159   -3.31534439189339
Cl       -1.96880426363866    0.00019339510918    5.22100133659472
Cl       -3.12998241669145    3.63033756221317    2.87204713636742
Cl       -3.13116426080761   -3.64724956492770    2.88239666518948
63
 energy: -142.123617797859 gnorm: 0.002741576433 xtb: 6.4.1 (a3dbbd7)
C        -1.29616229105940    0.00005867912037    3.54472938523425
C        -0.37375780503934   -1.17725762796178    3.29276919783062
C         0.97852351560766   -0.71987551337127    3.25788256855391
C         0.97893546155436    0.71974644319341    3.25824968825040
C        -0.37313207545025    1.17690186418367    3.29236585923550
C         2.33957755016611   -2.57821188045248    0.57174197576655
C         3.18986905681198   -1.41443621464754    0.57145000328261
C         2.95339244461272   -0.69340697108262    1.79548348019658
C         1.95275408842418   -1.41045066646435    2.54541806626979
C         1.57709487400423   -2.56874269468827    1.79449159065238
C         3.19023633634990    1.41475397395825    0.57163063444685
C         2.34032818266328    2.57889018955429    0.57204020580897
C         1.57829389097738    2.56944512173446    1.79514114650786
C         1.95330864114753    1.41080028124225    2.54596326146720
C         2.95358679551746    0.69373546928752    1.79565726126987
C        -0.36258011132642    3.43413919243915    0.57513686977508
C        -1.72764745924475    3.03019926477131    0.57646093633594
C        -2.09110999014091    2.46681398229045    1.93799963001426
C        -0.72966874456198    2.28618836012543    2.57482433938177
C         0.24937016662818    2.97882003557664    1.79882611984331
C        -3.35621433850051    0.72163728363731    0.57691842249652
C        -3.35747002984745   -0.72254656074653    0.57767225622847
C        -2.75001682358495   -1.14543554466817    1.79777654270824
C        -2.36587125561785   -0.00096368110675    2.50977554261266
C        -2.74847490205996    1.14409962875487    1.79652804349747
C        -1.72987326422205   -3.03106070429769    0.57788296659545
C        -0.36389298896614   -3.43318070283576    0.57531356307781
C         0.24827446327280   -2.97813618384553    1.79888142234164
C        -0.73158812417664   -2.28696280069382    2.57602924024270
C        -2.09143734911454   -2.46834498952795    1.93931224569807
C        -0.23203429056665   -3.01111797341437   -1.82931350889303
C         0.75820639495820   -2.29077609351838   -2.59134333491549
C         1.98404370759863   -2.28906332485503   -1.83499539344817
C         1.74781207613620   -3.00645569405763   -0.60756724579524
C         0.37667949159830   -3.44838097396539   -0.60595718609132
C         2.80191609056935   -1.16557378526364   -1.83624538451508
C         2.42126662361216    0.00027954774471   -2.59198151278431
C         2.80201944693403    1.16592590255264   -1.83604084456522
C         3.41690835889434    0.72029458175008   -0.61123369964987
C         3.41687086695919   -0.72002213312356   -0.61134369529207
C         1.98435562331793    2.28957361913925   -1.83477701949612
C         0.75873930233269    2.29179710435694   -2.59139627162093
C        -0.23154092843450    3.01254455929188   -1.82987114075729
C         0.37749380428612    3.44970168077734   -0.60632434853379
C         1.74850365267112    3.00720347824730   -0.60740852447709
C        -1.55142247466838    2.58169436533280   -1.81914964728442
C        -1.93556488469364    1.41412161076365   -2.57780781817163
C        -2.93249102385016    0.69987426872385   -1.82691409171620
C        -3.16529966053119    1.41822220299333   -0.60595675307241
C        -2.30452932082678    2.59039463155455   -0.59505591056344
C        -2.93249313177699   -0.69809369423668   -1.82615908946708
C        -1.93533297053123   -1.41230907858830   -2.57659664711900
C        -1.55154957090735   -2.57961747713185   -1.81757738164373
C        -2.30556001473804   -2.58962974488866   -0.59395627656223
C        -3.16647725235102   -1.41719649691999   -0.60605912041438
C        -0.98214948575761   -0.72024042663028   -3.31142237167401
C        -0.98202659050013    0.72171604432012   -3.31188962300542
C         0.38918854662761    1.16607856751667   -3.31537778923845
C         1.23527818742511    0.00046713066773   -3.31677796136605
C         0.38893205964555   -1.16492410739089   -3.31513805624341
Cl       -1.96985555970605    0.00192827733757    5.22032022612548
Cl       -3.13060484903503    3.62961458301431    2.87255120491789
Cl       -3.12942514488793   -3.63842655100853    2.87867129298973
63
 energy: -142.123631214109 gnorm: 0.001396214965 xtb: 6.4.1 (a3dbbd7)
C        -1.29586553165481    0.00006132763963    3.54488628270001
C        -0.37301716864829   -1.17704025515306    3.29286754888850
C         0.97909513824357   -0.71996304066486    3.25873918599184
C         0.97918087429514    0.71977377461566    3.25878774182727
C        -0.37292222895647    1.17690533124791    3.29265516135404
C         2.33976631351851   -2.57850275853758    0.57198581767837
C         3.18991218111406   -1.41458139349751    0.57170971136326
C         2.95349743969029   -0.69356993873588    1.79577159350030
C         1.95320771158643   -1.41069563730694    2.54600672858616
C         1.57762250059616   -2.56907114195497    1.79489200510683
C         3.19005218031285    1.41459521118160    0.57179886997536
C         2.34011415485873    2.57870084268767    0.57218599732985
C         1.57812232652694    2.56927532628071    1.79530045167208
C         1.95338003196897    1.41076334855928    2.54623800277444
C         2.95359631827300    0.69360286702130    1.79589956725876
C        -0.36287059641331    3.43377005345594    0.57526529105375
C        -1.72794701064373    3.02995749719595    0.57662419683323
C        -2.09121081787077    2.46662210090435    1.93814776463904
C        -0.72980619204181    2.28604871306381    2.57501052318590
C         0.24917969375326    2.97861328881297    1.79896417329435
C        -3.35662496275444    0.72190175191555    0.57707211799564
C        -3.35724004606633   -0.72202373333321    0.57714241486570
C        -2.74892640542586   -1.14479003259629    1.79716803378471
C        -2.36540076645752   -0.00067826628243    2.50960763453490
C        -2.74891650007346    1.14438696483479    1.79645622528056
C        -1.72893864881369   -3.02984444549161    0.57723738766748
C        -0.36340806275451   -3.43314091259084    0.57515461168882
C         0.24877705078650   -2.97815590967923    1.79878876803655
C        -0.73068562270670   -2.28604185571023    2.57522034512289
C        -2.09118429619126   -2.46693142215011    1.93856487552213
C        -0.23208222625214   -3.01156009833876   -1.82955854762272
C         0.75815997174829   -2.29101991561110   -2.59127217323347
C         1.98390079474392   -2.28923313984533   -1.83480369243717
C         1.74789726068742   -3.00670907188854   -0.60740332649049
C         0.37681886394843   -3.44875004919891   -0.60607661300648
C         2.80167646029227   -1.16569692537951   -1.83597974834316
C         2.42093764392338    0.00008752305402   -2.59169446405173
C         2.80171336782177    1.16575012539395   -1.83582979404819
C         3.41664467944707    0.72013132356708   -0.61103462519614
C         3.41666192982321   -0.72016518733289   -0.61112198917440
C         1.98404974370123    2.28934310090762   -1.83456674095789
C         0.75836137516716    2.29145219934302   -2.59112119493558
C        -0.23186201437523    3.01215340247713   -1.82959886178338
C         0.37720337779326    3.44937019305279   -0.60615225204719
C         1.74820766593216    3.00694477719806   -0.60722872957728
C        -1.55171193202489    2.58129600262497   -1.81891493290893
C        -1.93591686850921    1.41385356547884   -2.57770245010362
C        -2.93306319967972    0.69960576843674   -1.82689500165850
C        -3.16601264186336    1.41820989940465   -0.60616644869987
C        -2.30490295957396    2.59006634662919   -0.59488627720996
C        -2.93280719321331   -0.69842973642024   -1.82670347835154
C        -1.93570752083564   -1.41277851564686   -2.57710261100917
C        -1.55168407972014   -2.58018591791039   -1.81820325764805
C        -2.30503894768339   -2.58934170553787   -0.59448867111017
C        -3.16621814440068   -1.41713768935552   -0.60617788033416
C        -0.98239416124589   -0.72059538888456   -3.31162248812692
C        -0.98237090714553    0.72136872786752   -3.31166957710888
C         0.38886410106832    1.16579493475277   -3.31513745331704
C         1.23498641809333    0.00023603762299   -3.31653256402096
C         0.38875408339145   -1.16520287215922   -3.31504874910575
Cl       -1.96943528177576    0.00105825295464    5.22008260832176
Cl       -3.13076907674028    3.62945544714827    2.87342293393947