62
 energy: -137.530126037863 gnorm: 0.150429617439 xtb: 6.4.1 (a3dbbd7)
C        -1.29770965891222    0.00000000000000    3.53163224767276
C        -0.37107604425475   -1.17478800586359    3.31058196643012
C         0.97979757550459   -0.72157705231961    3.28110534952822
C         0.97979757550459    0.72157705231961    3.28110534952822
C        -0.37107604425475    1.17478800586360    3.31058196643013
C         2.33544184946295   -2.58264348698296    0.58346340581249
C         3.18207169571150   -1.41543014636129    0.58234433372313
C         2.94373959867916   -0.69404060100004    1.80708186552027
C         1.95046398470883   -1.41556779135961    2.56176558167067
C         1.57767488865866   -2.57871801508103    1.80912454278211
C         3.18207169571150    1.41543014636129    0.58234433372313
C         2.33544184946295    2.58264348698296    0.58346340581249
C         1.57767488865866    2.57871801508103    1.80912454278211
C         1.95046398470883    1.41556779135961    2.56176558167066
C         2.94373959867916    0.69404060100004    1.80708186552027
C        -0.36119281684147    3.44519252612879    0.58582996047390
C        -1.73469290191499    3.00153459982720    0.58916793337350
C        -1.97220713510261    2.29308475607878    1.81059639720294
C        -0.73400332666893    2.27691900303500    2.56853480078419
C         0.25309257506893    2.99789064535074    1.80898867763471
C        -3.39649784746455    0.71758744312072    0.57410478167568
C        -3.39649784746455   -0.71758744312072    0.57410478167568
C        -2.77168037603652   -1.14964415915414    1.80664876434809
C        -2.42168465399864    0.00000000000000    2.56054627302143
C        -2.77168037603652    1.14964415915414    1.80664876434809
C        -1.73469290191499   -3.00153459982719    0.58916793337351
C        -0.36119281684148   -3.44519252612879    0.58582996047390
C         0.25309257506893   -2.99789064535073    1.80898867763471
C        -0.73400332666892   -2.27691900303499    2.56853480078419
C        -1.97220713510261   -2.29308475607878    1.81059639720295
C        -0.24585893810850   -3.00970705822685   -1.82232538763502
C         0.74439012833927   -2.28841876480361   -2.57822875384061
C         1.97268106729833   -2.28861170675520   -1.82114897801170
C         1.74031203428013   -3.00832022201671   -0.59623578829480
C         0.36724813466371   -3.45114129717027   -0.59443426078026
C         2.79027372790168   -1.16551010025889   -1.82330670861298
C         2.41077011246349    0.00000000000000   -2.58030971859023
C         2.79027372790168    1.16551010025889   -1.82330670861298
C         3.40598095600767    0.72109250237888   -0.59875668403540
C         3.40598095600767   -0.72109250237888   -0.59875668403540
C         1.97268106729833    2.28861170675520   -1.82114897801170
C         0.74439012833927    2.28841876480360   -2.57822875384062
C        -0.24585893810850    3.00970705822685   -1.82232538763502
C         0.36724813466371    3.45114129717027   -0.59443426078026
C         1.74031203428013    3.00832022201671   -0.59623578829480
C        -1.56847069976934    2.58049680433801   -1.82122736601016
C        -1.94730857051169    1.41533687195356   -2.58360676406823
C        -2.94243160962768    0.69434475341889   -1.82977489504240
C        -3.17479380115303    1.41444285760430   -0.60326970185865
C        -2.32688654321742    2.58113588269429   -0.60086409487791
C        -2.94243160962768   -0.69434475341889   -1.82977489504240
C        -1.94730857051169   -1.41533687195356   -2.58360676406823
C        -1.56847069976934   -2.58049680433801   -1.82122736601016
C        -2.32688654321742   -2.58113588269429   -0.60086409487790
C        -3.17479380115303   -1.41444285760429   -0.60326970185865
C        -0.99138524268633   -0.72097607833148   -3.31029871234527
C        -0.99138524268633    0.72097607833148   -3.31029871234528
C         0.38054100031802    1.16548515734434   -3.30884687187952
C         1.22668597234242    0.00000000000000   -3.30783368151334
C         0.38054100031802   -1.16548515734434   -3.30884687187952
Cl       -1.93737486741132   -0.00000000000005    5.25509316806359
Cl       -3.52360024484813    3.90242495840704   -0.91418740191310
62
 energy: -137.555652759553 gnorm: 0.070685697420 xtb: 6.4.1 (a3dbbd7)
C        -1.29725887149151    0.00404295076468    3.53435416005618
C        -0.37143203073791   -1.17198697062173    3.30947067059037
C         0.98135816032994   -0.72163643450767    3.28200234862251
C         0.98490423308381    0.72029774835901    3.28349454137917
C        -0.36599669540174    1.17647029331199    3.31384270823484
C         2.33470114789900   -2.58323185250347    0.58328024998899
C         3.18191440072527   -1.41731330638937    0.58204473589361
C         2.94579938206458   -0.69591154498336    1.80794879090190
C         1.95098319742221   -1.41596775033493    2.56209768868428
C         1.57678594351080   -2.57841933446265    1.80914391011818
C         3.18575084692543    1.41366659115947    0.58423382794236
C         2.34207806842394    2.58195676138268    0.58802294142953
C         1.58901804683232    2.57926633552997    1.81573697575424
C         1.95690040259534    1.41262893572149    2.56476100020211
C         2.94895823885495    0.69077421643534    1.80894799041331
C        -0.35190325836102    3.43352112684558    0.59649011858149
C        -1.72976973960581    3.00603087596977    0.61495694933313
C        -1.95663929492817    2.29143519309552    1.80753853728575
C        -0.72260011386186    2.28041338500028    2.57689562221320
C         0.26624835173761    2.99897027624126    1.82020714692634
C        -3.39482340165254    0.70423149502173    0.57174183815061
C        -3.39163657676627   -0.72771929748274    0.57157945176919
C        -2.77015942969279   -1.15258691863183    1.80316514462338
C        -2.41849659487661    0.00772199052364    2.55745378802837
C        -2.76612356285024    1.14138400436732    1.80919142715637
C        -1.73566771664807   -3.00240127636099    0.58654601894740
C        -0.36279735921617   -3.44329426612175    0.58516536951852
C         0.25165763105160   -2.99531617723184    1.80972707412432
C        -0.73384319502136   -2.27334300071687    2.56804573600574
C        -1.97383104511861   -2.29010873888782    1.80799480099841
C        -0.24510108546772   -3.01165134102841   -1.82340387909921
C         0.74690083449048   -2.29023491048865   -2.57950306058015
C         1.97303081822975   -2.29037077985355   -1.82155913701466
C         1.73993735635052   -3.00925849914478   -0.59682018015111
C         0.36667455288219   -3.45165637319000   -0.59484886243844
C         2.79069399994300   -1.16613661758004   -1.82349949505213
C         2.41166590143739   -0.00163758072236   -2.58066265110323
C         2.78985297958020    1.16438466008248   -1.82204163975997
C         3.40634718948284    0.71975303743368   -0.59752316477843
C         3.40601079846880   -0.72252165604515   -0.59867100521544
C         1.97190897476912    2.28575472036153   -1.81888199106782
C         0.74623764193691    2.28487869542502   -2.58118319593981
C        -0.24380077483239    2.99312085348637   -1.81911325539610
C         0.37042540984081    3.44363453900988   -0.58610805935538
C         1.74145526824955    3.00530122729084   -0.59230508321963
C        -1.55795478532843    2.56741407865557   -1.82559633100774
C        -1.94065644377371    1.40843076447835   -2.57931162224106
C        -2.93903022630415    0.68653309106854   -1.82701337095851
C        -3.17542909168610    1.39467081983049   -0.60176974229650
C        -2.40221370469389    2.65605643502443   -0.61679628321275
C        -2.93682335107683   -0.70338629584666   -1.82979331598202
C        -1.94358189141573   -1.42045335162675   -2.58771946708617
C        -1.56664889096587   -2.58563351359111   -1.82519909733561
C        -2.32739566270894   -2.58757227566957   -0.60475497066731
C        -3.17390943676871   -1.42459529534578   -0.60784716309453
C        -0.98793189543376   -0.72483233220297   -3.31386749677659
C        -0.98675826412039    0.71617790094441   -3.31506747499447
C         0.38262220557403    1.16200288054739   -3.31384466256684
C         1.22954921940288   -0.00279552628943   -3.31035509966470
C         0.38411633047675   -1.16847824564488   -3.31156762715147
Cl       -1.93284656438241    0.00253610783726    5.25696609978463
Cl       -3.62389319125544    3.99941443070816   -0.94745160437530
62
 energy: -137.562606306486 gnorm: 0.016511618929 xtb: 6.4.1 (a3dbbd7)
C        -1.29432369627328    0.00560517276768    3.53354513613059
C        -0.36930660317411   -1.17104940326275    3.30673225816891
C         0.98460061592859   -0.72169285527385    3.28283633987528
C         0.99101601062063    0.71987334216708    3.28670352358122
C        -0.36104327838654    1.17699521418682    3.31211605177554
C         2.33595759700415   -2.58410145352702    0.58344369213451
C         3.18360661932136   -1.41946804116450    0.58255043821815
C         2.94882804236640   -0.69733107373900    1.80913238396737
C         1.95324234278655   -1.41658725501879    2.56255672389510
C         1.57760066701650   -2.57823825395462    1.80902875824886
C         3.19046127126589    1.41274112332616    0.58627439226612
C         2.34855433175326    2.58173849438330    0.59202401588993
C         1.59677949103684    2.57924258239482    1.81870460617993
C         1.96368492805977    1.41163556469713    2.56810796477802
C         2.95487983464002    0.68878862931064    1.81149134772293
C        -0.34996492380128    3.42744092923771    0.59835075444929
C        -1.72654731840260    2.99863585331770    0.62422729077952
C        -1.94822543281756    2.29364502977088    1.79677883405133
C        -0.71518126043038    2.28020143149046    2.57590038356805
C         0.27301537868450    2.99808492979747    1.82158098899038
C        -3.38147841183616    0.69886795320464    0.56743593063564
C        -3.39716492746633   -0.73377084188599    0.56855524578868
C        -2.77101719503546   -1.15707351974114    1.79552627847680
C        -2.41389351160652    0.01553285250418    2.55102715526903
C        -2.76591856950293    1.13674895257322    1.81666238927137
C        -1.73558948916548   -3.00523726884373    0.58252783503291
C        -0.36298171092135   -3.44282131151142    0.58390809649901
C         0.25204250623282   -2.99317469370885    1.80930447198567
C        -0.73191096609787   -2.27130606201470    2.56636201592557
C        -1.97414336968455   -2.28702661346648    1.80284051461613
C        -0.24415541732101   -3.01481030697922   -1.82372390918367
C         0.74984822228559   -2.29406275483900   -2.58009977380780
C         1.97427077050374   -2.29313905591516   -1.82118250553794
C         1.74135087878196   -3.01107535984400   -0.59658033867650
C         0.36786326113612   -3.45361014784166   -0.59505039848030
C         2.79199276371352   -1.16769559558588   -1.82257043517482
C         2.41292788461149   -0.00454280669630   -2.57985632573764
C         2.79006739009711    1.16239544908955   -1.81952067419602
C         3.40833374681923    0.71816709191104   -0.59552721456359
C         3.40720256610409   -0.72425270189651   -0.59780177553652
C         1.97036106134707    2.28147054694481   -1.81380336511699
C         0.74312586282249    2.27809026715847   -2.57368622100911
C        -0.24878139597553    2.98472499467755   -1.81442707902181
C         0.37228511155531    3.44363108258918   -0.57980849796569
C         1.74036542840138    3.00230217846681   -0.58764167913989
C        -1.55585437278398    2.56540865927436   -1.82603578738369
C        -1.93112585452095    1.40612142095640   -2.56694810738310
C        -2.92708638415135    0.68281371026386   -1.81486788514675
C        -3.17161157669155    1.38767337076654   -0.59905509001735
C        -2.46867291516811    2.72453110772364   -0.63350580139053
C        -2.93732686865044   -0.70969061236632   -1.82995036799553
C        -1.94356753540996   -1.42577976341935   -2.58992850543465
C        -1.56608809692038   -2.59190493313175   -1.82882986167591
C        -2.33019220534738   -2.59437499679552   -0.60823955129779
C        -3.17892042840056   -1.43337109912485   -0.61250689288224
C        -0.98647832909413   -0.72913753446869   -3.31400618660057
C        -0.98194917249727    0.71193028794634   -3.31187798872173
C         0.38347947218776    1.15664521410693   -3.31155199978143
C         1.23236805929179   -0.00709964841064   -3.31167337413551
C         0.38643866533523   -1.17292527650452   -3.31261937006152
Cl       -1.92930030613333    0.00390310983069    5.25093728445359
Cl       -3.69921587191602    4.07318965250320   -0.96532846549347
62
 energy: -137.562984327854 gnorm: 0.009573358183 xtb: 6.4.1 (a3dbbd7)
C        -1.29290206116480    0.00522433380475    3.53294499759545
C        -0.36772489367418   -1.17121782941812    3.30554452387977
C         0.98638587160217   -0.72238305878034    3.28318497171210
C         0.99303044646900    0.71924764266743    3.28704741722770
C        -0.35955910001189    1.17598138339760    3.30879583384171
C         2.33724482232256   -2.58568331774648    0.58369367052091
C         3.18537759090271   -1.42153503092198    0.58321981052425
C         2.95087853182624   -0.69891571097616    1.80986867784344
C         1.95479006441657   -1.41791984465947    2.56292181829142
C         1.57867572280162   -2.57932989958967    1.80916811948366
C         3.19247878728388    1.41138178778184    0.58695914259281
C         2.35041794113578    2.58056370713226    0.59296626426769
C         1.59778444636153    2.57810923532394    1.81859456428807
C         1.96585414300142    1.41092226255088    2.56880305948632
C         2.95735524903517    0.68745480167173    1.81255074586801
C        -0.35214043527144    3.42883335439838    0.59638220224702
C        -1.72953848755046    2.99747885710045    0.62004463942988
C        -1.95034046360120    2.29601351006328    1.79204170568371
C        -0.71470613524013    2.27775683734482    2.57149038029793
C         0.27288727535608    2.99667805559073    1.81892434633969
C        -3.38605068880139    0.70307573058592    0.56596676109324
C        -3.39232091094075   -0.73096897848264    0.56687957364353
C        -2.77073695079759   -1.15843771472588    1.79386762125444
C        -2.41242843833341    0.01706341800456    2.54925816239105
C        -2.76922994317157    1.13655478838299    1.81796400042497
C        -1.73409668160515   -3.00652827050956    0.58157739273937
C        -0.36193674982133   -3.44383149108060    0.58346503330919
C         0.25291470731643   -2.99346429732074    1.80891795319937
C        -0.73038988149824   -2.27134094038044    2.56575243162505
C        -1.97297972969289   -2.28636305210565    1.80155849370972
C        -0.24270095373246   -3.01708900407057   -1.82426513244817
C         0.75165533931753   -2.29637642526334   -2.58052139197932
C         1.97584883651245   -2.29544460111459   -1.82116479187256
C         1.74285276961182   -3.01301037190684   -0.59643556376189
C         0.36923912800169   -3.45544316681619   -0.59527163861269
C         2.79339964612429   -1.16964567608193   -1.82195288230348
C         2.41345053818894   -0.00649291544765   -2.57853521575577
C         2.78990063945186    1.16043842440208   -1.81766864414824
C         3.40977878815910    0.71624458076396   -0.59462211769559
C         3.40868047443544   -0.72623514228025   -0.59716923311175
C         1.96856589289146    2.27842550011488   -1.81047540572656
C         0.73987979486316    2.27489084608908   -2.56766754078603
C        -0.25310502748826    2.98651781111676   -1.81323209931523
C         0.37271922837264    3.44544803516506   -0.57893313833232
C         1.73985892665204    3.00094465345913   -0.58583743901815
C        -1.56291166274452    2.57262992510577   -1.82733257213150
C        -1.93157275895937    1.40804644819829   -2.56346498524877
C        -2.92694436683798    0.68458173621615   -1.81175714912358
C        -3.18059951993042    1.39486754931475   -0.60017525209360
C        -2.48472584009591    2.73848651080224   -0.63879519000740
C        -2.93491833990407   -0.70871305135354   -1.82923905546295
C        -1.94176412216897   -1.42640545886798   -2.58929568677587
C        -1.56460561743375   -2.59391457209340   -1.82986755931166
C        -2.32910392751245   -2.59609271558546   -0.60897649142057
C        -3.17475936982631   -1.43269304081263   -0.61310938175141
C        -0.98511095937129   -0.72989404761799   -3.31246247068591
C        -0.98196587883582    0.71134569987402   -3.30767764798640
C         0.38278250936574    1.15466391725921   -3.30781270115160
C         1.23322714185833   -0.00864967537805   -3.31074212188792
C         0.38761519467255   -1.17463379863761   -3.31233132427829
Cl       -1.92682624103052    0.00714846968751    5.24779408066408
Cl       -3.70930092513481    4.08405824506233   -0.96238889721501
62
 energy: -137.563120421745 gnorm: 0.004483667722 xtb: 6.4.1 (a3dbbd7)
C        -1.29268217759434    0.00508902050495    3.53328287005520
C        -0.36737975163140   -1.17128903098469    3.30504537058474
C         0.98675678865382   -0.72250765933157    3.28346502732597
C         0.99357931731546    0.71918672915383    3.28697993175300
C        -0.35910140987752    1.17562248456570    3.30696151223466
C         2.33749586418827   -2.58593389301053    0.58370062598051
C         3.18598519292076   -1.42208779312837    0.58346784329202
C         2.95151333378668   -0.69920945993366    1.81011147966239
C         1.95506715609725   -1.41817668443581    2.56296346163799
C         1.57886052598528   -2.57949346205249    1.80917178055250
C         3.19347946095400    1.41108696073579    0.58701972674374
C         2.35152267299050    2.58036392420094    0.59311446420933
C         1.59800625859737    2.57771547272146    1.81822681323464
C         1.96643756059881    1.41089983151700    2.56886323793687
C         2.95833326642834    0.68730605899405    1.81290754473980
C        -0.35314982530443    3.42998143638021    0.59460017501018
C        -1.73065264343124    2.99514323574694    0.61601147513842
C        -1.95209493260017    2.29720340248949    1.78892238744891
C        -0.71456068620900    2.27577314754450    2.56840740717172
C         0.27246191615299    2.99541892958243    1.81686164141977
C        -3.38847331796541    0.70533236498534    0.56525594801573
C        -3.38958240995163   -0.72929344022659    0.56563078176850
C        -2.77063329131229   -1.15919857693112    1.79250759003648
C        -2.41232708159651    0.01773082498814    2.54895365374901
C        -2.77192206911561    1.13601315192965    1.81967029228346
C        -1.73322397817978   -3.00734922235899    0.58117220521510
C        -0.36151660011835   -3.44461878081108    0.58329337852277
C         0.25309214906336   -2.99354625448487    1.80868508154361
C        -0.72988646030192   -2.27152632643547    2.56566172497577
C        -1.97230865058516   -2.28580021687644    1.80078507207330
C        -0.24212536463498   -3.01836554962282   -1.82462827644711
C         0.75251173529871   -2.29772089933408   -2.58103556093745
C         1.97656009044740   -2.29651207739000   -1.82137167970697
C         1.74336767609513   -3.01369011107965   -0.59643650055142
C         0.36979418125984   -3.45645473993889   -0.59544150246943
C         2.79416923458606   -1.17054899738105   -1.82182144141113
C         2.41363372508513   -0.00744280019642   -2.57789616207129
C         2.78990860721717    1.15962356320448   -1.81701690980113
C         3.41052640226685    0.71556194426895   -0.59446317540946
C         3.40938784567109   -0.72692074371433   -0.59705783434567
C         1.96739377691595    2.27672431007004   -1.80870549997996
C         0.73786526232312    2.27284332877997   -2.56416198500228
C        -0.25514696551622    2.98755026334875   -1.81255328963853
C         0.37401854094688    3.44711664850406   -0.57887712226738
C         1.74032670027762    3.00094874897887   -0.58536957900927
C        -1.56705789325559    2.57736341109839   -1.82777155372920
C        -1.93123477260705    1.40887756549447   -2.56110967913703
C        -2.92626186194899    0.68534196427752   -1.80966743986415
C        -3.18540407731882    1.39961258473382   -0.60064548302533
C        -2.49262570680000    2.74531166166266   -0.64185536021496
C        -2.93299755061942   -0.70793637934069   -1.82848841914970
C        -1.94060023346604   -1.42669574897628   -2.58859812254599
C        -1.56411308524495   -2.59515874955604   -1.83030441115398
C        -2.32863319686864   -2.59707529429824   -0.60908103466397
C        -3.17288816057802   -1.43241674170851   -0.61325835555918
C        -0.98422721339030   -0.73037554753709   -3.31129038092430
C        -0.98182961140497    0.71076132232737   -3.30477496613040
C         0.38251349039347    1.15356463132774   -3.30585814388093
C         1.23381808005223   -0.00954495438454   -3.31047546499955
C         0.38831664151810   -1.17557215223944   -3.31247650394142
Cl       -1.92589326576401    0.00855991048199    5.24531841890482
Cl       -3.70863582276806    4.08525841150730   -0.95555941117697
62
 energy: -137.563154907637 gnorm: 0.002387279841 xtb: 6.4.1 (a3dbbd7)
C        -1.29321953145154    0.00510851155107    3.53409952948911
C        -0.36768280616144   -1.17120531034230    3.30512107823479
C         0.98640422632683   -0.72230849024180    3.28354113864926
C         0.99322624797375    0.71939234093909    3.28681000944065
C        -0.35941131835106    1.17578871360595    3.30691895172010
C         2.33726219066848   -2.58556564186826    0.58366248757686
C         3.18575130855329   -1.42172641823384    0.58343249287667
C         2.95120504502399   -0.69884228855586    1.81003246650118
C         1.95473097655350   -1.41785233532108    2.56287474497386
C         1.57862657871528   -2.57918203987368    1.80916142110958
C         3.19339447469959    1.41140629699722    0.58685005353351
C         2.35157725551544    2.58065587917300    0.59286936066034
C         1.59782864621455    2.57793124772509    1.81804194935239
C         1.96603473778701    1.41114287916967    2.56864113207015
C         2.95808913594297    0.68765261139769    1.81278035034701
C        -0.35307347392866    3.42979686795301    0.59403987633940
C        -1.73012711242680    2.99325132153703    0.61471607262441
C        -1.95236848142867    2.29719183588394    1.78816763260545
C        -0.71463792018756    2.27542403282091    2.56789717270691
C         0.27222424771623    2.99510974074484    1.81646142467479
C        -3.38810441883362    0.70522904237705    0.56511873010621
C        -3.38955180592129   -0.72919952705848    0.56529574896304
C        -2.77090221766495   -1.15932659290523    1.79215547326475
C        -2.41280428733462    0.01776956898612    2.54931715875638
C        -2.77245918428967    1.13563265543316    1.82035688965963
C        -1.73323495597212   -3.00737835729110    0.58116912654650
C        -0.36163954317811   -3.44462742778038    0.58334790714861
C         0.25289602278975   -2.99341308194414    1.80870633659398
C        -0.73009985573054   -2.27151707358102    2.56579247298211
C        -1.97243872411687   -2.28560873624604    1.80075310322884
C        -0.24223368118136   -3.01836325469235   -1.82463260021053
C         0.75246374389892   -2.29775740747348   -2.58114585282328
C         1.97646550153406   -2.29638386360465   -1.82143595748219
C         1.74323867492503   -3.01347412002090   -0.59643200404403
C         0.36969658533525   -3.45636280243019   -0.59543417077815
C         2.79415934964829   -1.17042584459607   -1.82188469832887
C         2.41356805096858   -0.00738274213411   -2.57793916214961
C         2.79000909583489    1.15983931302816   -1.81727382136138
C         3.41047671187879    0.71581708245346   -0.59464557275264
C         3.40931794402583   -0.72665811246477   -0.59715194102400
C         1.96728182494561    2.27675984017480   -1.80880859945706
C         0.73762529601640    2.27259256220387   -2.56401159374133
C        -0.25508479240936    2.98731531122974   -1.81253821568198
C         0.37467506690163    3.44751613947548   -0.57916312579587
C         1.74077447515712    3.00152593320314   -0.58578538064019
C        -1.56717537653790    2.57765819440065   -1.82751492720269
C        -1.93065348860403    1.40866324015726   -2.56066032699902
C        -2.92560043382795    0.68508064175065   -1.80924447932071
C        -3.18504088651164    1.39993691066555   -0.60050658058825
C        -2.49355883721444    2.74634776031386   -0.64234800013221
C        -2.93275137788857   -0.70790148840076   -1.82845307358520
C        -1.94053087748877   -1.42673137922476   -2.58849592388999
C        -1.56431382608015   -2.59530360667477   -1.83028953423856
C        -2.32880130460951   -2.59719226003134   -0.60899679533629
C        -3.17326531260035   -1.43261930425116   -0.61329837951540
C        -0.98414088930641   -0.73044812405919   -3.31117291975591
C        -0.98169202738144    0.71056325724015   -3.30447215807098
C         0.38263174309362    1.15352050511777   -3.30604140665777
C         1.23396570134410   -0.00961884869300   -3.31073540181905
C         0.38838278731343   -1.17558600649306   -3.31267649003722
Cl       -1.92590817318045    0.00846479244671    5.24473167033112
Cl       -3.70394333937550    4.08230241473865   -0.95070719557190
62
 energy: -137.563165337279 gnorm: 0.001127571012 xtb: 6.4.1 (a3dbbd7)
C        -1.29374715746970    0.00514196062829    3.53476929231397
C        -0.36796123170345   -1.17111294749855    3.30529280252357
C         0.98606122562569   -0.72209817151603    3.28348676092858
C         0.99282760093936    0.71958565726245    3.28668443431825
C        -0.35979701290220    1.17602401845021    3.30732639903236
C         2.33708544769771   -2.58527719498369    0.58367880392210
C         3.18546051905714   -1.42135357144983    0.58338162435276
C         2.95084162248788   -0.69851748201624    1.80993538811100
C         1.95443789060183   -1.41754437607090    2.56280649011505
C         1.57844318948851   -2.57891291431864    1.80918312994040
C         3.19304802730155    1.41169813353171    0.58672191685031
C         2.35128028422609    2.58087966847578    0.59263064188986
C         1.59762386278676    2.57818488138419    1.81795475081058
C         1.96559680259727    1.41133136422517    2.56845544917994
C         2.95765683417133    0.68791794022392    1.81260292753493
C        -0.35280768010835    3.42919506705620    0.59401352110475
C        -1.72939360012540    2.99215723352259    0.61467155876180
C        -1.95214521862937    2.29687726813462    1.78837034281742
C        -0.71478475848830    2.27573711210863    2.56831410293302
C         0.27211370695480    2.99521097431252    1.81666043107807
C        -3.38730014750787    0.70465214290137    0.56512223538690
C        -3.39015991601350   -0.72951087329651    0.56533997064539
C        -2.77118185776932   -1.15926632943997    1.79226969860608
C        -2.41318450104804    0.01762244529197    2.54960480996665
C        -2.77216177378043    1.13549102852335    1.82034620090723
C        -1.73345714091813   -3.00717873806546    0.58124743942471
C        -0.36180937978389   -3.44438447260259    0.58343383081926
C         0.25273035578994   -2.99325943903302    1.80878767001407
C        -0.73036483233633   -2.27142453097390    2.56589781246915
C        -1.97272730888003   -2.28563582853351    1.80093963172528
C        -0.24239674907107   -3.01804336096071   -1.82451258849854
C         0.75224851046733   -2.29745233563887   -2.58103432569854
C         1.97625400314610   -2.29604740369204   -1.82138170248251
C         1.74307022107562   -3.01318059877526   -0.59638627005660
C         0.36953008957278   -3.45602949444846   -0.59536034654476
C         2.79396298443526   -1.17012838382206   -1.82191573213968
C         2.41348142548678   -0.00713024060919   -2.57811615104107
C         2.79006589754978    1.16017594269465   -1.81760306854929
C         3.41024698215278    0.71615037871048   -0.59479242824616
C         3.40909804004734   -0.72631891796638   -0.59720444251255
C         1.96751696419506    2.27723304444963   -1.80937732423780
C         0.73793592687859    2.27291953264566   -2.56479955147104
C        -0.25463582602423    2.98693887952082   -1.81281077183420
C         0.37471716933853    3.44737308972180   -0.57945420224717
C         1.74091134279854    3.00193963347991   -0.58624607672746
C        -1.56631602634253    2.57672220874206   -1.82733855575439
C        -1.93038548103430    1.40834944588248   -2.56100118148292
C        -2.92533706773642    0.68472588013985   -1.80950211381785
C        -3.18365618188239    1.39900391529847   -0.60036087335494
C        -2.49284615187669    2.74602410168098   -0.64210664322904
C        -2.93311581255798   -0.70808447035531   -1.82869034515046
C        -1.94076756816990   -1.42669838552337   -2.58862597594539
C        -1.56451823508411   -2.59508687935644   -1.83017224486838
C        -2.32901431440963   -2.59703550491678   -0.60895386003952
C        -3.17394084187582   -1.43283098206089   -0.61333044263352
C        -0.98429450550643   -0.73038529840648   -3.31139983570627
C        -0.98164836171103    0.71058617210872   -3.30503519142811
C         0.38278363990251    1.15374317757502   -3.30667448841783
C         1.23392610158017   -0.00947419835511   -3.31098162962300
C         0.38826072751126   -1.17538321035819   -3.31273713937820
Cl       -1.92608193020115    0.00805956268123    5.24485031464817
Cl       -3.69974543878944    4.07955963208670   -0.94790720593909
62
 energy: -137.563166696384 gnorm: 0.000262927292 xtb: 6.4.1 (a3dbbd7)
C        -1.29389743582171    0.00517892695393    3.53488497926614
C        -0.36800843902440   -1.17107908879548    3.30535536970421
C         0.98597940952876   -0.72201961288830    3.28338122886106
C         0.99271864161112    0.71964688269810    3.28666749683694
C        -0.35992523609123    1.17613154217409    3.30759744362115