72
 energy: -177.490322870495 gnorm: 0.000244933652 xtb: 6.4.1 (a3dbbd7)
C        -1.31807869138556    0.01308247893133    3.54353451930535
C        -0.38429098000665   -1.16439227052127    3.29331255160013
C         0.96487692705454   -0.71329031665142    3.25963067808631
C         0.95779199094499    0.73852034059356    3.28144020269615
C        -0.37353100023027    1.18995611590088    3.30592074910985
C         2.30237516876996   -2.54676167451040    0.56021471033730
C         3.19444714368441   -1.42517750587095    0.56635048280740
C         3.15571510895632   -0.75126135352054    1.93617023195520
C         1.93283804618235   -1.41315901391680    2.56225436673671
C         1.54508314109523   -2.52962241225126    1.78650927997408
C         3.14624227023375    1.42159540817687    0.58488625189713
C         2.31245020877144    2.60446025925095    0.57449620632800
C         1.55596728959315    2.59765464919765    1.79324950037002
C         1.93669717304970    1.41631116794502    2.53409521648523
C         2.92642271688447    0.72888924526622    1.80657349755295
C        -0.37591565314960    3.46895826530411    0.57380198335412
C        -1.74730607890246    3.01701204021382    0.58126246941352
C        -1.97615707001741    2.30640385381949    1.80689758974595
C        -0.75398771620212    2.30029230787211    2.56032263872049
C         0.23705692813971    3.01825350799290    1.79705829936843
C        -3.41577018896570    0.73067704632967    0.56882710066980
C        -3.42369470767504   -0.70539673513277    0.56930972663035
C        -2.80066988477025   -1.13830197413462    1.80077704182159
C        -2.44412552037618    0.01615005066874    2.54580013251005
C        -2.78789033041061    1.16067007402960    1.80413261188560
C        -1.76220458010996   -2.98756806718913    0.58665952070355
C        -0.38604534474464   -3.42191333361504    0.58403224536289
C         0.22128772669280   -2.97381271605184    1.79647472501797
C        -0.76240313076010   -2.26570878392907    2.56046321241865
C        -2.00606870573837   -2.28489199080192    1.80749732393648
C        -0.26102203622724   -2.97696643985572   -1.82861680700578
C         0.71156279341242   -2.29625269055740   -2.60684063308671
C         2.08990882189753   -2.46626489433152   -1.97272979241710
C         1.71963712639655   -3.01758896135059   -0.60276625313345
C         0.35548895056914   -3.41149625679590   -0.59771783128287
C         2.77565591978296   -1.13801380383623   -1.82852973114658
C         2.38107962889551   -0.00491177614077   -2.55881420573182
C         2.77003545669471    1.17841253131613   -1.81198424431693
C         3.38976503352855    0.74189495676286   -0.60395557278845
C         3.36367688342037   -0.71388238621763   -0.60517959307197
C         1.95623750079169    2.30570423859123   -1.82705867615925
C         0.72771096519483    2.29850195833938   -2.58142223372147
C        -0.25860214394495    3.02010709904201   -1.83313053875467
C         0.35164105160469    3.47485421526779   -0.60619178142963
C         1.72494021368690    3.03288305483237   -0.60660351857321
C        -1.58518637287517    2.59036477288473   -1.82609374788044
C        -1.96552218656741    1.42326023959043   -2.58640282987097
C        -2.96294636241248    0.70513906462586   -1.83328185467379
C        -3.19058549599359    1.42309183980157   -0.60699202121575
C        -2.33598135127891    2.59238098347749   -0.60609244933636
C        -2.97438660905996   -0.68485198953935   -1.83623132576999
C        -1.97654565576399   -1.40679053050092   -2.58746311905502
C        -1.59642368592472   -2.56484359045280   -1.82614557683230
C        -2.35084680472338   -2.56550614338306   -0.60711123974034
C        -3.20508348107335   -1.40255167356701   -0.61030030263793
C        -1.01371973444783   -0.71376996051423   -3.30575842150306
C        -1.00951175191027    0.72624537385233   -3.30927856014972
C         0.36601672169851    1.16425300067727   -3.31315110043432
C         1.20451982577165    0.00762088131992   -3.32309090280763
C         0.35628779945149   -1.16265515373705   -3.30905816622211
C        -1.85876356273489    0.01047957327164    4.98149901872989
F        -0.87683354985689    0.00977199914315    5.88825010730489
F        -2.61590476020919   -1.06469690673101    5.22505319678107
F        -2.61621862395865    1.08499569093743    5.22764353676125
C         2.95420033184344   -3.45570587771608   -2.77110498005491
F         2.35639681924114   -4.64453327488697   -2.90657579858830
F         3.21067678335691   -3.00637949033455   -4.00414573045444
F         4.13228661631827   -3.67559364060870   -2.18047143022830
C         4.43475297810858   -1.05135177670356    2.73706485793333
F         4.64535597162687   -2.36467211681962    2.87241904618098
F         5.51996674428307   -0.53890426927530    2.14773899523251
F         4.37851575928417   -0.53566489864089    3.96913374001240
