72
 energy: -177.376402202918 gnorm: 0.249762699216 xtb: 6.4.1 (a3dbbd7)
C        -1.23626340000000    0.00000000000000    3.32997640000000
C        -0.38202640000000   -1.17575640000000    3.32997640000000
C         1.00015810000000   -0.72665740000000    3.32997640000000
C         1.00015810000000    0.72665740000000    3.32997640000000
C        -0.38202640000000    1.17575640000000    3.32997640000000
C         2.34433560000000   -2.60145750000000    0.59464210000000
C         3.19857260000000   -1.42570110000000    0.59464210000000
C         2.96246730000000   -0.69904370000000    1.83090550000000
C         1.96230920000000   -1.42570110000000    2.59495830000000
C         1.58028280000000   -2.60145750000000    1.83090550000000
C         3.19857260000000    1.42570110000000    0.59464210000000
C         2.34433560000000    2.60145750000000    0.59464210000000
C         1.58028280000000    2.60145750000000    1.83090550000000
C         1.96230920000000    1.42570110000000    2.59495830000000
C         2.96246730000000    0.69904370000000    1.83090550000000
C        -0.36750900000000    3.48258920000000    0.59464210000000
C        -1.74969350000000    3.03349030000000    0.59464210000000
C        -1.98579880000000    2.30683290000000    1.83090550000000
C        -0.74953540000000    2.30683290000000    2.59495830000000
C         0.25062270000000    3.03349030000000    1.83090550000000
C        -3.42570570000000    0.72665740000000    0.59464210000000
C        -3.42570570000000   -0.72665740000000    0.59464210000000
C        -2.80757400000000   -1.17575640000000    1.83090550000000
C        -2.42554760000000    0.00000000000000    2.59495830000000
C        -2.80757400000000    1.17575640000000    1.83090550000000
C        -1.74969350000000   -3.03349030000000    0.59464210000000
C        -0.36750900000000   -3.48258920000000    0.59464210000000
C         0.25062270000000   -3.03349030000000    1.83090550000000
C        -0.74953540000000   -2.30683290000000    2.59495830000000
C        -1.98579880000000   -2.30683290000000    1.83090550000000
C        -0.25062270000000   -3.03349030000000   -1.83090550000000
C         0.74953540000000   -2.30683290000000   -2.59495830000000
C         1.98579880000000   -2.30683290000000   -1.83090550000000
C         1.74969350000000   -3.03349030000000   -0.59464210000000
C         0.36750900000000   -3.48258920000000   -0.59464210000000
C         2.80757400000000   -1.17575640000000   -1.83090550000000
C         2.42554760000000    0.00000000000000   -2.59495830000000
C         2.80757400000000    1.17575640000000   -1.83090550000000
C         3.42570570000000    0.72665740000000   -0.59464210000000
C         3.42570570000000   -0.72665740000000   -0.59464210000000
C         1.98579880000000    2.30683290000000   -1.83090550000000
C         0.74953540000000    2.30683290000000   -2.59495830000000
C        -0.25062270000000    3.03349030000000   -1.83090550000000
C         0.36750900000000    3.48258920000000   -0.59464210000000
C         1.74969350000000    3.03349030000000   -0.59464210000000
C        -1.58028280000000    2.60145750000000   -1.83090550000000
C        -1.96230920000000    1.42570110000000   -2.59495830000000
C        -2.96246730000000    0.69904370000000   -1.83090550000000
C        -3.19857260000000    1.42570110000000   -0.59464210000000
C        -2.34433560000000    2.60145750000000   -0.59464210000000
C        -2.96246730000000   -0.69904370000000   -1.83090550000000
C        -1.96230920000000   -1.42570110000000   -2.59495830000000
C        -1.58028280000000   -2.60145750000000   -1.83090550000000
C        -2.34433560000000   -2.60145750000000   -0.59464210000000
C        -3.19857260000000   -1.42570110000000   -0.59464210000000
C        -1.00015810000000   -0.72665740000000   -3.32997640000000
C        -1.00015810000000    0.72665740000000   -3.32997640000000
C         0.38202640000000    1.17575640000000   -3.32997640000000
C         1.23626340000000    0.00000000000000   -3.32997640000000
C         0.38202640000000   -1.17575640000000   -3.32997640000000
C        -1.76086815247998    0.00000000000000    4.78849957557021
F        -0.76911826531252    0.00000000000000    5.67468926254662
F        -2.50968386795825   -1.06794314680471    5.04863888333743
F        -2.50968386795825    1.06794314680471    5.04863888333743
C         2.84103082519036   -3.32439911178427   -2.62817407941587
F         2.23127406184888   -4.50005340761388   -2.75037746012495
F         3.10404037880944   -2.89718378306489   -3.85992609894426
F         4.01248672303643   -3.55720929213529   -2.04303264409737
C         4.25247495652193   -1.01957928511255    2.62817407757680
F         4.45020405360863   -2.32910962270744    2.75037677428969
F         5.33704498641440   -0.51936149478958    2.04303305824604
F         4.21414295278388   -0.51936236815955    3.85992636334025
72
 energy: -177.432067213100 gnorm: 0.169441601043 xtb: 6.4.1 (a3dbbd7)
C        -1.24781209594283    0.00053374728080    3.33522279282505
C        -0.36939337827639   -1.19163809214371    3.33642487717540
C         0.98710794533631   -0.72485337748579    3.32018952644550
C         0.99675542945442    0.72959717378524    3.31438091511543
C        -0.35902007213386    1.18954341640146    3.33660101373946
C         2.31576113265631   -2.58075735489390    0.59429513501292
C         3.16115308471535   -1.41570061078079    0.55918501027921
C         2.99467370059935   -0.70661221125617    1.84735252492221
C         1.92362519430737   -1.42446218822359    2.57812578000953
C         1.56151505857819   -2.58329968749048    1.82673201551775
C         3.18272642324731    1.43522550995992    0.59975236463089
C         2.33393945905629    2.60779222120430    0.59493371396470
C         1.57880714345143    2.60562736907193    1.82529983759182
C         1.96488777136905    1.43297928781333    2.58027551146580
C         2.99358368858593    0.74405798481394    1.85015404134054
C        -0.36525881479515    3.46925646820875    0.59338867221710
C        -1.74157064460312    3.02001325318749    0.59387814668163
C        -1.97259029345239    2.29774335943642    1.81992663040758
C        -0.73832085500885    2.30204981193639    2.58497949984608
C         0.25268930756466    3.02896869794131    1.82444187121098
C        -3.42416974525957    0.72471225947907    0.57712352893354
C        -3.42607165444175   -0.72291178578225    0.57759564761105
C        -2.80372666236574   -1.16859371068746    1.80308578370091
C        -2.44054921357178    0.00116750159892    2.53262066054064
C        -2.80165658755519    1.17006586106849    1.80303399721048
C        -1.74855320376194   -3.02022046804872    0.59802029997910
C        -0.37258631397647   -3.46619669465817    0.60084685458003
C         0.24027950121988   -3.03138673710752    1.82898219275984
C        -0.74503875240625   -2.30206416873421    2.58654045503242
C        -1.98195541932676   -2.29896868151338    1.82092387034382
C        -0.25898605638406   -3.02510360170440   -1.82017191979369
C         0.71946583618321   -2.31328161788598   -2.58616093084949
C         2.01517814460408   -2.33537885559266   -1.85696364455258
C         1.71961026730027   -3.01532365844521   -0.57249212615509
C         0.35919484091213   -3.46850981669042   -0.58681387300160
C         2.81706319176993   -1.13307680350837   -1.84985447845045
C         2.41182295673840    0.01636498590671   -2.58259307273279
C         2.79883234540612    1.18725813131108   -1.82101141912239
C         3.40524213839357    0.74393069546328   -0.59347352682717
C         3.40239918141047   -0.70659982898509   -0.61094657338150
C         1.97481056845190    2.30987415155506   -1.82215782696795
C         0.74442033459257    2.30023000667310   -2.58033763407564
C        -0.25004091143398    3.02245155259572   -1.82263334581753
C         0.36343355803094    3.47140370214298   -0.59102162917236
C         1.74027008729046    3.02928620243928   -0.59051939880653
C        -1.57605912506678    2.59031330830524   -1.82210674645769
C        -1.95603334922819    1.41864447763837   -2.58414956691767
C        -2.95363363756634    0.69579516220248   -1.82698551403039
C        -3.19085229303596    1.42136810122651   -0.60055842340058
C        -2.33463098125752    2.59130020588401   -0.59446624869277
C        -2.95580514926330   -0.69751066592364   -1.82620232282306
C        -1.96084239128767   -1.42387336825581   -2.58163997652713
C        -1.58651958324243   -2.59450173389360   -1.82035866409318
C        -2.34037652784651   -2.59076899232548   -0.59199643828526
C        -3.19443374954370   -1.42126514309511   -0.59943762087162
C        -1.00252480408147   -0.72615155957533   -3.31153244966475
C        -0.99998665953445    0.72066840236748   -3.31536697594127
C         0.37742715583422    1.16728663667927   -3.31426957859072
C         1.22112791760761    0.00152969387486   -3.31522946518507
C         0.36890624262465   -1.17711790265031   -3.31356298026139
C        -1.77377100513878   -0.00073857015917    4.81366524436553
F        -0.77768298665972   -0.00089750910914    5.70074943254931
F        -2.52227462659964   -1.07328647671511    5.06887364931282
F        -2.52212244908322    1.07168910853324    5.06942603355201
C         2.86729071058911   -3.35983860619964   -2.65436851913882
F         2.25055020546087   -4.53482363016417   -2.77200003729240
F         3.12179128139631   -2.91948453527171   -3.88526810653727
F         4.03764921712490   -3.58124260100756   -2.05934241455796
C         4.29096793650453   -1.03884971710104    2.64503297232059
F         4.48451457223715   -2.35082649418824    2.76679316430763
F         5.36963302583730   -0.52893660966987    2.05264425296476
F         4.23908822119417   -0.52993274643064    3.87496212417371
72
 energy: -177.468385752478 gnorm: 0.100525511786 xtb: 6.4.1 (a3dbbd7)
C        -1.28002034971909    0.00089207313714    3.42682392011157
C        -0.34937817766229   -1.20165684248938    3.28993909122856
C         0.97096109940050   -0.72219999508094    3.28025144050641
C         0.98752351081310    0.73380133937629    3.28535425646652
C        -0.32736656844924    1.19628555778773    3.28823042680148
C         2.28873975966795   -2.55898921692514    0.59087921474931
C         3.12841561314662   -1.41375659798024    0.52583892249436
C         3.07496481140629   -0.73370546871421    1.89142959705521
C         1.88633596054136   -1.43291330968632    2.55580484215357
C         1.54730675676933   -2.56666710268391    1.82013175927712
C         3.15569968896431    1.44267419226201    0.59601751752233
C         2.31716890131146    2.61420655098488    0.58810407827993
C         1.56880926431530    2.61107575239506    1.80943397255592
C         1.95469380153818    1.44018836508229    2.55000332349744
C         2.96779247874291    0.78852210890084    1.83318268844737
C        -0.36612777479499    3.46031433906161    0.58517527562553
C        -1.73600355428317    3.00656248972483    0.59052626978323
C        -1.96372063197486    2.29364232189278    1.80563146969671
C        -0.73038301251154    2.29854200161785    2.55287486782896
C         0.24912935861787    3.03091379665294    1.80914892898214
C        -3.41913591444930    0.72175662606355    0.56269392577143
C        -3.42061067936715   -0.71824023865562    0.56317244825781
C        -2.79157842435378   -1.15578532605883    1.78040438998402
C        -2.45621585776000    0.00232254041399    2.48197740914865
C        -2.78912079926171    1.15752367927867    1.78128273231658
C        -1.74803475327271   -3.00743697575002    0.59954704561939
C        -0.37917016442861   -3.45878416621113    0.60666005161459
C         0.22881496100204   -3.03535230972029    1.82077536020772
C        -0.73974225559294   -2.29689960826378    2.55734096799801
C        -1.98274936476009   -2.29804946139805    1.80796579171206
C        -0.26435882030079   -2.99649450582913   -1.81035697964609
C         0.67567161415635   -2.28554470393090   -2.56883475397791
C         2.06228818054233   -2.40637801643202   -1.90975811903672
C         1.68305994204349   -3.00117128129272   -0.54854435156962
C         0.35089984624766   -3.44220555399747   -0.58023090828976
C         2.81041937734001   -1.08472004481985   -1.84095692686788
C         2.39693391655131    0.02351724293420   -2.55402722161291
C         2.79275725618358    1.19469324884344   -1.80229772627114
C         3.39587976298291    0.76166202092566   -0.59285547002871
C         3.36926390497474   -0.68999523186974   -0.61404001420526
C         1.96494326700958    2.31162765408567   -1.81430343082662
C         0.74150500427704    2.29455297297453   -2.56525191210763
C        -0.24763573620882    3.00966483194872   -1.81752800163686
C         0.35845151583664    3.46141138829087   -0.59196279634742
C         1.73001450294466    3.02731025048507   -0.59239518572974
C        -1.57218802617670    2.57864276623240   -1.81272875928718
C        -1.94904371376420    1.41235564059662   -2.57262518846691
C        -2.94314042941489    0.69341729481417   -1.82261158800981
C        -3.18047744198380    1.41416028134762   -0.60468188334417
C        -2.32473583699527    2.58049124706719   -0.59782024471975
C        -2.94971834504343   -0.69467965091620   -1.82285650970113
C        -1.96038427502105   -1.41675984502097   -2.57262832746882
C        -1.59539728692683   -2.58023918652135   -1.81462492212941
C        -2.33467610795378   -2.57823349414918   -0.59489243443671
C        -3.18658835651163   -1.41368608537020   -0.60417192940168
C        -1.00793487351291   -0.71787108017013   -3.30043594739249
C        -0.99792970585598    0.71931669215984   -3.29997766548405
C         0.37707099735318    1.15892080521133   -3.30102393826685
C         1.21002802531871    0.00983592604573   -3.30399897664005
C         0.35304854861138   -1.15908854498770   -3.29217879325557
C        -1.79930831552384    0.00056376140073    4.88861545068134
F        -0.78614755167181   -0.00007158757715    5.75816674312223
F        -2.54499539583342   -1.08236419057513    5.11723048808040
F        -2.54494743632968    1.08299426416262    5.11817562524887
C         2.90538178599293   -3.41140390905553   -2.69233180308945
F         2.27194845951269   -4.57998194230363   -2.80046914058179
F         3.14630909693834   -2.94375532858922   -3.91782592702296
F         4.06972331772024   -3.61262745161081   -2.07486596391618
C         4.35321952778649   -1.05910829836477    2.67987713744079
F         4.53138115449483   -2.37501009603393    2.79525228407030
F         5.41550898599610   -0.53368928643252    2.06861998475012
F         4.27024676512287   -0.53510445405822    3.90402063734325
72
 energy: -177.480515058103 gnorm: 0.060070877848 xtb: 6.4.1 (a3dbbd7)
C        -1.29414742509402    0.00704213031755    3.45542084155809
C        -0.36463856323896   -1.18733305021370    3.30212896310993
C         0.97077455305769   -0.71461116519489    3.27954338161684
C         0.98068368457822    0.73879205264001    3.28581529913993
C        -0.34603342817264    1.19667641671360    3.30247852941124
C         2.29273860443389   -2.55059863116685    0.57906475733030
C         3.14654360844036   -1.40876705507156    0.53832355763394
C         3.10155070345646   -0.73454048037109    1.90298345234860
C         1.90667206483746   -1.42159317597513    2.55902058326606
C         1.54599535689984   -2.55133866029321    1.80897810829276
C         3.15880378803393    1.44493407144538    0.59754221306377
C         2.31687581563423    2.62049840268298    0.58742284846628
C         1.56512873842050    2.61318058208637    1.80873921678993
C         1.95408519698048    1.43805643113471    2.54937641260720
C         2.98044663489586    0.77804630904456    1.83854146123934
C        -0.37337460396784    3.46653611727174    0.58194273573043
C        -1.74242494505980    3.00887983818405    0.58530725894096
C        -1.96945476752571    2.29531306535448    1.80305872263884
C        -0.74164520404414    2.29986710315656    2.55843903642237
C         0.24175065405239    3.02910909196392    1.80672832416990
C        -3.42470902456787    0.72598037801312    0.55930347951196
C        -3.42830558628500   -0.71462215486003    0.56037269863169
C        -2.79859868648608   -1.14957258470635    1.78376036936313
C        -2.45545656287891    0.00738214114647    2.50504527206643
C        -2.79265475209904    1.16029832176370    1.78338566595880
C        -1.75696426474760   -3.00098555843371    0.59462865774426
C        -0.38500144722662   -3.44856455505849    0.59834959118704
C         0.22338300609394   -3.01407560537375    1.81303217108405
C        -0.75154933918028   -2.28512390317328    2.56273759512147
C        -1.99265451758300   -2.29124135286910    1.80753882804102
C        -0.26458113452070   -2.99467643858220   -1.81866273230408
C         0.69248425304113   -2.29785401231195   -2.58573576236527
C         2.07224755261810   -2.42342244296436   -1.93018884740818
C         1.69435387373876   -3.00606120922725   -0.57123330733632
C         0.34972876238699   -3.43746318716702   -0.58837017671974
C         2.80724180759837   -1.10411217258157   -1.84795754489647
C         2.39169148516828    0.02099440143437   -2.55916262656815
C         2.78262244443582    1.19731283204912   -1.80423919796085
C         3.39257178059214    0.76341234441579   -0.59377083015005
C         3.37026272426673   -0.69114092330662   -0.61247247233132
C         1.95891657417627    2.31792462894883   -1.81663541258127
C         0.73400167008168    2.29857899445433   -2.56809429512805
C        -0.25515298837823    3.01509760457686   -1.82134981269241
C         0.35190836629772    3.47091202988026   -0.59586689237342
C         1.72594254475213    3.03726828286259   -0.59430153617968
C        -1.57928368228335    2.58221841929491   -1.81817778865931
C        -1.95709712434602    1.41570777718506   -2.57914236245476
C        -2.95419196074978    0.69646940220066   -1.83194080283814
C        -3.18862176791831    1.41767876447874   -0.61131779724946
C        -2.33220480477571    2.58395219818662   -0.60305520308636
C        -2.96226625020932   -0.69273210452829   -1.83265910189650
C        -1.96732783136031   -1.41521413620528   -2.57872671384670
C        -1.59832200568117   -2.57714360278753   -1.81910102819619
C        -2.34475810040178   -2.57541448615708   -0.60016769711171
C        -3.19835930699686   -1.41132515467955   -0.61060553794104
C        -1.00883735191095   -0.71736486003743   -3.29968694580133
C        -1.00388212489541    0.72124526814009   -3.30291765479620
C         0.37052060888399    1.16183717358189   -3.30109290378585
C         1.20572265101713    0.01031968324018   -3.30812327430943
C         0.35705663204079   -1.16333052315862   -3.29846802058897
C        -1.81781634615034    0.00420381161889    4.91758182091868
F        -0.81357732127387    0.00256385531511    5.79843954268428
F        -2.56523832649918   -1.07588960327789    5.15964988348614
F        -2.56698044264451    1.08155172793441    5.16426931478184
C         2.92467662342403   -3.43498597274574   -2.71580831926860
F         2.30689818170777   -4.61304979104581   -2.83303996368516
F         3.17772776772871   -2.98524474571361   -3.94705586777272
F         4.09423833621312   -3.64736980804128   -2.10887506370211
C         4.38573614396490   -1.06827614708025    2.69416693310188
F         4.57488067426656   -2.38402107044164    2.81506633273144
F         5.46162206836772   -0.55276631937738    2.09563729188628
F         4.32097083707420   -0.55427337390585    3.92464893757071
72
 energy: -177.488037029862 gnorm: 0.028134791503 xtb: 6.4.1 (a3dbbd7)
C        -1.31230682593142    0.01337073488772    3.50352380039497
C        -0.37881876904530   -1.17039105485758    3.30194505637561
C         0.96716839672391   -0.70814188192177    3.26935424980987
C         0.96845205268871    0.74308973589495    3.28270342395755
C        -0.36502905595574    1.19554672996606    3.30831960267981
C         2.29512222591351   -2.53962504493696    0.56499445383434
C         3.16875474564592   -1.40667137972616    0.55356475623458
C         3.13618121353290   -0.74174158030478    1.92125339706313
C         1.92543202358813   -1.41019155994310    2.56138996583671
C         1.54309252339909   -2.53079825979493    1.79424983973404
C         3.15677264681260    1.44133761096234    0.59602093946272
C         2.31396182001560    2.62032153523238    0.58324270607319
C         1.55862841408823    2.60985980692690    1.80336166741675
C         1.94782432209694    1.43178268690244    2.54472669045193
C         2.97014632473408    0.76200481572553    1.83262682664318
C        -0.37931352698715    3.47018484073278    0.57734165624779
C        -1.74858115846904    3.01205634096092    0.58078198634224
C        -1.97575883573621    2.29906932210523    1.80153523098825
C        -0.75252850982288    2.30013823691192    2.55989452279078
C         0.23496707010761    3.02471263925366    1.80188461284505
C        -3.42515202107968    0.72873809523706    0.55961922615855
C        -3.43053146316469   -0.71028054068829    0.56065628891553
C        -2.80229110658464   -1.14246013575633    1.78981822416879
C        -2.44941941603289    0.01263781529725    2.52724531559204
C        -2.79297223824297    1.16093247319460    1.78957345117960
C        -1.76317174880946   -2.99299166671250    0.58942775109754
C        -0.38779860487941   -3.43195832295633    0.58943020257616
C         0.21943825583563   -2.98685623797095    1.80270237860185
C        -0.76115458431797   -2.26995077687466    2.56297357723329
C        -2.00298114934996   -2.28605822201785    1.80685409825372
C        -0.26246542459907   -2.98592315814737   -1.82677843206211
C         0.70830393343777   -2.30309381448062   -2.60208466583270
C         2.08581550476281   -2.44928368098525   -1.95632669249603
C         1.70833310248345   -3.00964261433404   -0.59401919198613
C         0.35178262980370   -3.42250471247445   -0.59533767734454
C         2.79406795067332   -1.12203611723512   -1.84414918714961
C         2.38525320597569    0.01196840893918   -2.55938338465444
C         2.77139851804796    1.19379682479689   -1.80500732394132
C         3.38878267843790    0.76036245357709   -0.59616739047347
C         3.36830807857136   -0.69654583078336   -0.60871650907883
C         1.95371217876179    2.31869935569953   -1.82040822950636
C         0.72713268934303    2.30125258418869   -2.57300844517294
C        -0.26126597966271    3.01968602690136   -1.82714696892157
C         0.34720902750158    3.47778028475278   -0.60128514075117
C         1.72254078213566    3.04270278836295   -0.59901890501040
C        -1.58616845761050    2.58658411643783   -1.82339932989230
C        -1.96506400523659    1.41969892495592   -2.58465062574004
C        -2.96426837712431    0.70059869561121   -1.83805303638266
C        -3.19479432713582    1.42063421332498   -0.61407062612864
C        -2.33876620595488    2.58803518428929   -0.60734727642215
C        -2.97381752866945   -0.68961032822916   -1.84002810416887
C        -1.97404079565044   -1.41181338497418   -2.58508666928547
C        -1.59855505288165   -2.57103238622237   -1.82366987550159
C        -2.35137091429564   -2.57090239923904   -0.60582338711639
C        -3.20692757764995   -1.40791733930707   -0.61481313054832
C        -1.01057734536698   -0.71580394671816   -3.29981633185836
C        -1.00877533355035    0.72353581091462   -3.30448785240125
C         0.36542800566143    1.16415164505528   -3.30365721531554
C         1.20270195387946    0.01081531718069   -3.31389485898764
C         0.35946600422178   -1.16390711552889   -3.30299714621958
C        -1.84001276803679    0.00777645305342    4.95501785606990
F        -0.84316044048851    0.00521153664467    5.84538419286873
F        -2.58930019468280   -1.07075745319596    5.20550986470142
F        -2.59336946747592    1.08079492973912    5.21465015630892
C         2.94704232898653   -3.45776554396376   -2.74185232839841
F         2.34203066138440   -4.64396150581251   -2.86655922677010
F         3.21045714563797   -3.02275138782461   -3.97823674742742
F         4.12088122686125   -3.67929542316271   -2.14293824146456
C         4.42021641454683   -1.07481645334194    2.71208260676786
F         4.61814190505677   -2.39097171631918    2.83587338908726
F         5.50730084432866   -0.56796073730413    2.12247569367226
F         4.37160518930274   -0.56971362593862    3.94867709163701
72
 energy: -177.489880972319 gnorm: 0.013329647422 xtb: 6.4.1 (a3dbbd7)
C        -1.32199042648337    0.01617151628933    3.53545080491837
C        -0.38516879942609   -1.16194726727846    3.29726934797508
C         0.96408195560632   -0.70686831684588    3.26190899812384
C         0.95925692669691    0.74397795161185    3.28174524519193
C        -0.37502375978434    1.19458781688483    3.30879974028005
C         2.29845755968945   -2.53718411391027    0.55903887747801
C         3.18443128075735   -1.41106957306575    0.56317883587851
C         3.15457462224439   -0.74870815841253    1.93290696363058
C         1.93291784094015   -1.40628601106032    2.56257744041506
C         1.54301897181830   -2.52184517621187    1.78657413243307
C         3.15135655579175    1.43306782121021    0.59169359041447
C         2.31042610107295    2.61339765249406    0.57832830666042
C         1.55363559630799    2.60395569501274    1.79728836908339
C         1.94013709095064    1.42493100693644    2.53979940248910
C         2.94954047688702    0.74738168530471    1.82192494140983
C        -0.38129534683780    3.47031337610541    0.57425699600005
C        -1.75170272998304    3.01538809962309    0.57951279641974
C        -1.97978447575467    2.30388018096624    1.80310744365081
C        -0.75766745634126    2.30088131805734    2.55989204663077
C         0.23221684363722    3.02108816648336    1.79816772481536
C        -3.42186871316785    0.73000531557182    0.56364316496231
C        -3.42785462008270   -0.70700189318668    0.56429265063133
C        -2.80251933119645   -1.13844403668607    1.79603123906272
C        -2.44549894622727    0.01580420418438    2.53991579263943
C        -2.79228163526964    1.16115032650221    1.79734826852811
C        -1.76314126057891   -2.98747386158182    0.58640951596969
C        -0.38628064068349   -3.42039629302983    0.58411111655436
C         0.21995634066345   -2.97124977684392    1.79649241292853
C        -0.76367465303260   -2.26203891338901    2.56092467892888
C        -2.00686240628987   -2.28391054277045    1.80657432812642
C        -0.25995349551062   -2.97849194922037   -1.83071496688249
C         0.71504139894929   -2.30060572459001   -2.60959052240124
C         2.09341057343190   -2.46412615321326   -1.97082044113640
C         1.71769883132899   -3.01113134226241   -0.60366008527227
C         0.35517645118362   -3.41105924097576   -0.59856284672572
C         2.78400941978687   -1.13193986849128   -1.83668229211808
C         2.38209242269906    0.00264118314932   -2.55848554614242
C         2.76697070493712    1.18661931311982   -1.80705259809531
C         3.38750161558631    0.75285530352979   -0.59966803674360
C         3.36724780167975   -0.70430118405918   -0.60617052181179
C         1.95223350866123    2.31343502996554   -1.82407710129119
C         0.72450217410252    2.30126263991598   -2.57802688447420
C        -0.26318607533909    3.02136954237053   -1.83177095692481
C         0.34617526582688    3.47817627866065   -0.60498533298596
C         1.72090099075400    3.03964335023853   -0.60348120351711
C        -1.58917251175392    2.58972269748536   -1.82646340115456
C        -1.96838736184497    1.42242780996311   -2.58752519448306
C        -2.96706419575753    0.70369936049245   -1.83784122228511
C        -3.19590846488364    1.42230569991269   -0.61190620370587
C        -2.34111215021148    2.59118522701683   -0.60850538116025
C        -2.97692867699887   -0.68664800661546   -1.84061754183287
C        -1.97650144136141   -1.40828577021413   -2.58838732949012
C        -1.59637317176272   -2.56606571939292   -1.82638171332934
C        -2.35135151291549   -2.56668431959567   -0.60852144110506
C        -3.20775818039820   -1.40452078813107   -0.61415677431970
C        -1.01211672556798   -0.71416723270437   -3.30285128230665
C        -1.01059734966913    0.72549167111693   -3.30700510727564
C         0.36405504932207    1.16520262456827   -3.30879796168838
C         1.20271125356088    0.01049602335073   -3.31964452885617
C         0.35923649285349   -1.16236492473397   -3.30677520038827
C        -1.85370938827801    0.00967194928844    4.97815054710622
F        -0.86260105796904    0.00731475530251    5.87573625824044
F        -2.60554608670187   -1.06796615617581    5.22871524170005
F        -2.61028384972747    1.08113463890567    5.23892605636418
C         2.95836466072095   -3.46599635922258   -2.75794552949140
F         2.35790082168751   -4.65511131116514   -2.88617559359281
F         3.22463109894368   -3.03350892239081   -3.99547641475652
F         4.13380089276897   -3.68944258958650   -2.16175011740456
C         4.43700466059424   -1.07279613515003    2.72397654934342
F         4.63846238769315   -2.38919573518218    2.84805694020182
F         5.52685870110895   -0.56806664431496    2.13567148210192
F         4.39451634105044   -0.56999558529790    3.96254562352266
72
 energy: -177.490188987583 gnorm: 0.008185020304 xtb: 6.4.1 (a3dbbd7)
C        -1.32235884497556    0.01565938128482    3.54388622799598
C        -0.38573836174088   -1.16129793536476    3.29465668253633
C         0.96363616624658   -0.70865949404319    3.26007290193402
C         0.95662106863114    0.74263434962694    3.28212400118498
C        -0.37662419634232    1.19325447872907    3.30765231103810
C         2.30084042878961   -2.54010317632215    0.55900904956576
C         3.19041302364593   -1.41624157554665    0.56623586723026
C         3.15708154879765   -0.75098403511098    1.93579590172734