63
 energy: -142.117322082948 gnorm: 0.000136776930 xtb: 6.4.1 (a3dbbd7)
C        -1.30995838142989    0.00189178168506    3.58110725293159
C        -0.38685954925466   -1.16438205332990    3.29042125682256
C         0.96704228713528   -0.71617940207221    3.26721509210673
C         0.96716525402029    0.72377843353508    3.27120662882102
C        -0.38734151230475    1.16879079793701    3.28911859738366
C         2.33189821177055   -2.58571833125995    0.58679273150886
C         3.17509465668761   -1.40308375827879    0.57741390020475
C         2.93377674117154   -0.68559833217402    1.80156346925671
C         1.93848114458675   -1.40826343825092    2.55111631322945
C         1.57067001055357   -2.57391392070617    1.79977194163738
C         3.17335939660144    1.41775021681320    0.59059930786419
C         2.32655388100157    2.58532667001314    0.58873957548288
C         1.56893306862081    2.58464647539674    1.81243995562721
C         1.94092165910923    1.42184603490952    2.56377009612516
C         2.93898717091021    0.70225622320092    1.81109984077391
C        -0.37040241358362    3.44402387965876    0.58484727058438
C        -1.73928507176268    2.99723931284760    0.58012123329725
C        -1.98330693323235    2.27865749729906    1.79863150962589
C        -0.74312195569567    2.27964665977571    2.56925270973648
C         0.24055904096216    2.99946305680879    1.81219157816515
C        -3.36960593825466    0.72117276758240    0.57747681150163
C        -3.37048896900353   -0.71852767268474    0.57717975416344
C        -2.78563925251182   -1.16527129929378    1.80044417020185
C        -2.63776551914141    0.00171146479513    2.75629750777655
C        -2.78512246144862    1.16740221116784    1.79869523228575
C        -1.74423841349189   -2.99603684139963    0.58142393677181
C        -0.37414390112282   -3.43900317121736    0.58458928544322
C         0.23938773224213   -2.99397576094710    1.81038971379662
C        -0.74120898939862   -2.27504370130611    2.56805490440104
C        -1.98474252859123   -2.27559285364911    1.80018538102523
C        -0.25246694968998   -3.00535690986617   -1.81942106486684
C         0.75313957790045   -2.27955319153928   -2.56193094493110
C         1.96374997688780   -2.30175078892715   -1.82200175026119
C         1.72919443101809   -2.98968899287102   -0.60449228039492
C         0.35411304769543   -3.44508197210612   -0.59388870475231
C         2.98970675316216   -1.23444632875590   -1.94600929548657
C         2.42025690871008    0.01029624268709   -2.58964258931663
C         2.77214761447126    1.15374870336352   -1.81681514889436
C         3.38756419256396    0.70875928429323   -0.59016323758769
C         3.42066254022842   -0.71646455859457   -0.59161621500046
C         1.96629652007780    2.29177009867474   -1.81670441349908
C         0.74731239675313    2.29689754774020   -2.57634861739790
C        -0.24701685131475    3.01719875926690   -1.82582768226489
C         0.36180107624385    3.45648246499810   -0.59366541196239
C         1.73376575520391    3.01085818721990   -0.59305590783992
C        -1.56698364227827    2.58636968218934   -1.83292142019931
C        -1.94112954937143    1.41737935890625   -2.59280457696732
C        -2.93546905228006    0.69609388446832   -1.83858041023901
C        -3.16286170948196    1.41510373643303   -0.61134322445702
C        -2.32604618066484    2.57992747835847   -0.61099530235478
C        -2.93402686136232   -0.69306931231809   -1.83937412774345
C        -1.94801710839458   -1.41522382605311   -2.59396396853275
C        -1.57259178185886   -2.58224202969266   -1.83136648441692
C        -2.33280067405680   -2.57943651545237   -0.60905060241148
C        -3.16678838028558   -1.41368952652418   -0.60970285306600
C        -0.97783284515907   -0.72168693348683   -3.31651800113977
C        -0.98027835122095    0.72232988497291   -3.31297474847969
C         0.38868198704313    1.16749399567692   -3.30228616078741
C         1.23840921790365    0.00589852103069   -3.29879718757168
C         0.38323298261094   -1.16560321686698   -3.31935791931931
Cl       -1.61430293145493    0.00474991487632    5.36755536950211
Cl       -4.10438668060140    0.00211275566058    3.82017229472427
Cl        4.43986698261278   -1.84543681548241   -2.89388183204274
