62
 energy: -137.523645495468 gnorm: 0.147322100950 xtb: 6.4.1 (a3dbbd7)
C        -1.29770965891222    0.00000000000000    3.53163224767276
C        -0.37107604425475   -1.17478800586359    3.31058196643012
C         0.97979757550459   -0.72157705231961    3.28110534952822
C         0.97979757550459    0.72157705231961    3.28110534952822
C        -0.37107604425475    1.17478800586360    3.31058196643013
C         2.33544184946295   -2.58264348698296    0.58346340581249
C         3.18207169571150   -1.41543014636129    0.58234433372313
C         2.94373959867916   -0.69404060100004    1.80708186552027
C         1.95046398470883   -1.41556779135961    2.56176558167067
C         1.57767488865866   -2.57871801508103    1.80912454278211
C         3.18207169571150    1.41543014636129    0.58234433372313
C         2.33544184946295    2.58264348698296    0.58346340581249
C         1.57767488865866    2.57871801508103    1.80912454278211
C         1.95046398470883    1.41556779135961    2.56176558167066
C         2.94373959867916    0.69404060100004    1.80708186552027
C        -0.36119281684147    3.44519252612879    0.58582996047390
C        -1.73469290191499    3.00153459982720    0.58916793337350
C        -1.97220713510261    2.29308475607878    1.81059639720294
C        -0.73400332666893    2.27691900303500    2.56853480078419
C         0.25309257506893    2.99789064535074    1.80898867763471
C        -3.39649784746455    0.71758744312072    0.57410478167568
C        -3.39649784746455   -0.71758744312072    0.57410478167568
C        -2.77168037603652   -1.14964415915414    1.80664876434809
C        -2.42168465399864    0.00000000000000    2.56054627302143
C        -2.77168037603652    1.14964415915414    1.80664876434809
C        -1.73469290191499   -3.00153459982719    0.58916793337351
C        -0.36119281684148   -3.44519252612879    0.58582996047390
C         0.25309257506893   -2.99789064535073    1.80898867763471
C        -0.73400332666892   -2.27691900303499    2.56853480078419
C        -1.97220713510261   -2.29308475607878    1.81059639720295
C        -0.24585893810850   -3.00970705822685   -1.82232538763502
C         0.74439012833927   -2.28841876480361   -2.57822875384061
C         1.97268106729833   -2.28861170675520   -1.82114897801170
C         1.74031203428013   -3.00832022201671   -0.59623578829480
C         0.36724813466371   -3.45114129717027   -0.59443426078026
C         2.79027372790168   -1.16551010025889   -1.82330670861298
C         2.41077011246349    0.00000000000000   -2.58030971859023
C         2.79027372790168    1.16551010025889   -1.82330670861298
C         3.40598095600767    0.72109250237888   -0.59875668403540
C         3.40598095600767   -0.72109250237888   -0.59875668403540
C         1.97268106729833    2.28861170675520   -1.82114897801170
C         0.74439012833927    2.28841876480360   -2.57822875384062
C        -0.24585893810850    3.00970705822685   -1.82232538763502
C         0.36724813466371    3.45114129717027   -0.59443426078026
C         1.74031203428013    3.00832022201671   -0.59623578829480
C        -1.56847069976934    2.58049680433801   -1.82122736601016
C        -1.94730857051169    1.41533687195356   -2.58360676406823
C        -2.94243160962768    0.69434475341889   -1.82977489504240
C        -3.17479380115303    1.41444285760430   -0.60326970185865
C        -2.32688654321742    2.58113588269429   -0.60086409487791
C        -2.94243160962768   -0.69434475341889   -1.82977489504240
C        -1.94730857051169   -1.41533687195356   -2.58360676406823
C        -1.56847069976934   -2.58049680433801   -1.82122736601016
C        -2.32688654321742   -2.58113588269429   -0.60086409487790
C        -3.17479380115303   -1.41444285760429   -0.60326970185865
C        -0.99138524268633   -0.72097607833148   -3.31029871234527
C        -0.99138524268633    0.72097607833148   -3.31029871234528
C         0.38054100031802    1.16548515734434   -3.30884687187952
C         1.22668597234242    0.00000000000000   -3.30783368151334
C         0.38054100031802   -1.16548515734434   -3.30884687187952
Cl       -1.93737486741132   -0.00000000000005    5.25509316806359
Cl       -0.35418161029195   -4.55939799308004   -2.75120869845769
62
 energy: -137.548726630791 gnorm: 0.068255063987 xtb: 6.4.1 (a3dbbd7)
C        -1.29868321566734   -0.00305168220664    3.53093067303978
C        -0.36994417532773   -1.17643124717129    3.30822442620126
C         0.98164353899215   -0.72170172695041    3.28139990567941
C         0.97861388316719    0.72104899570679    3.27969766112927
C        -0.37227433302433    1.17247712843903    3.30894199034450
C         2.34115412829184   -2.57982642511689    0.59120169532550
C         3.18683368612675   -1.41177119235852    0.58542956530089
C         2.94803070295637   -0.69136630719256    1.80920955139301
C         1.95451550903752   -1.41385747590579    2.56458674639480
C         1.58517702742022   -2.57888617712339    1.81538700106645
C         3.18284988264898    1.41823493363742    0.58329382590989
C         2.33569961828494    2.58412523057689    0.58405557447661
C         1.57750954295812    2.57906244958937    1.80895692589672
C         1.95033915230970    1.41645470114853    2.56135452078301
C         2.94516521015413    0.69603003407150    1.80869473536234
C        -0.36128680030262    3.44567558358191    0.58523340705806
C        -1.73446887932658    3.00205110011040    0.58794789958035
C        -1.97399790202690    2.29144139927012    1.81015315016122
C        -0.73543229857100    2.27477075829157    2.56711299475983
C         0.25157987189802    2.99633827365671    1.80734709911324
C        -3.39971821588306    0.72528298341500    0.57406251174062
C        -3.40128957244360   -0.71013295726063    0.57426272562386
C        -2.77173144605890   -1.14565635024842    1.80722572442118
C        -2.42097941052964   -0.00483157299551    2.55620360165531
C        -2.77328893981020    1.15246780217795    1.80534789109987
C        -1.73610499078829   -2.99680677197290    0.59770994618637
C        -0.35362206636939   -3.43372978057320    0.59387047812901
C         0.26001637411058   -3.00058353077675    1.81741776649394
C        -0.73067748116275   -2.27843768258575    2.56835385104203
C        -1.97121422019012   -2.29758950274145    1.80834577998917
C        -0.25154597809088   -3.10197952599722   -1.87257035017419
C         0.75329815830882   -2.27435870304657   -2.57213727683210
C         1.96980967299753   -2.27775985660973   -1.81547598462719
C         1.73896761005264   -2.99860087910651   -0.58806926002917
C         0.37467263357500   -3.44293549130297   -0.57723415547775
C         2.79544735956409   -1.15802547347565   -1.82272620562840
C         2.41708585280523    0.00484945330607   -2.58028879261207
C         2.79363526841216    1.16943773533593   -1.82238167130098
C         3.40848751214086    0.72503738631914   -0.59748904956160
C         3.40923715111757   -0.71726152757761   -0.59698650131702
C         1.97405253070839    2.29110001060853   -1.82057154033822
C         0.74518639090999    2.29067375082075   -2.57754269674176
C        -0.24472401662476    3.01468651057403   -1.82403064896711
C         0.36705517236256    3.45229903700447   -0.59565779743699
C         1.74069314308655    3.00948026002324   -0.59656241865391
C        -1.56751307217130    2.58488507471072   -1.82216004310230
C        -1.94808131476635    1.42057503247089   -2.58167923297013
C        -2.94933278355792    0.70355551093039   -1.82933863879492
C        -3.17908479438544    1.42205355366003   -0.60320507758965
C        -2.32616113324628    2.58502833621833   -0.60123129034000
C        -2.95589715159169   -0.68286049442648   -1.82885199482356
C        -1.95304964083882   -1.40448651433386   -2.57108726819315
C        -1.59423842749709   -2.57444443353257   -1.81532973137420
C        -2.32678655254709   -2.56524977382736   -0.60021428274382
C        -3.18573913501484   -1.40282016164901   -0.60219119427813
C        -0.99370392889286   -0.71610784295669   -3.30184426385410
C        -0.99123283707459    0.72298490327593   -3.30730896408386
C         0.38187936708303    1.16767058214557   -3.30763341189313
C         1.23086611263424    0.00520465968776   -3.30647254904895
C         0.38394363488704   -1.15677139623344   -3.29496741310323
Cl       -1.93539644022560   -0.00242396041132    5.25380493335451
Cl       -0.35929252431128   -4.68363474617796   -2.82057847528968
62
 energy: -137.555521607906 gnorm: 0.016973233036 xtb: 6.4.1 (a3dbbd7)
C        -1.29778282328274   -0.00374261668157    3.53000788430940
C        -0.36806690673009   -1.17713934866244    3.30753271152245
C         0.98438152767077   -0.72043833303381    3.28254819272699
C         0.97865116287372    0.72211757165765    3.28013274943306
C        -0.37184704863513    1.17243270476085    3.30733132743567
C         2.34133556928921   -2.57611507567165    0.59463961839983
C         3.18903300727973   -1.40830915190250    0.58862992595121
C         2.95232036512526   -0.68800174030347    1.81222081841015
C         1.95896232625203   -1.41177729367768    2.56837211520579
C         1.58943995073306   -2.57568847008867    1.81747670242571
C         3.18373051645821    1.42253910013478    0.58505220774513
C         2.33585827586172    2.58714897947687    0.58570115236444
C         1.57735479438790    2.58114343187703    1.81005055905258
C         1.95052074593897    1.41898762311903    2.56222416587912
C         2.94575322526128    0.69944926251410    1.81056305951509
C        -0.36165131211356    3.44840672751709    0.58587434317533
C        -1.73482133966617    3.00591610098790    0.58670623365991
C        -1.97437501463326    2.29076888217392    1.80902464775898
C        -0.73550072311443    2.27469086906592    2.56647944549228
C         0.25057587488094    2.99660926568541    1.80684809184048
C        -3.40471892509393    0.73388784383042    0.57410645884370
C        -3.39937379306385   -0.70289345466469    0.57430524742455
C        -2.77091809103432   -1.14026873964275    1.80996003223929
C        -2.41848551454125   -0.00817979970901    2.55122427484421
C        -2.77519128872401    1.15805883049228    1.80291689374944
C        -1.73743909244550   -2.99817188466417    0.60536319542131
C        -0.34815513593527   -3.43219829649834    0.59268805847214
C         0.26373349666616   -2.99751225477061    1.81636486413239
C        -0.72705305618891   -2.27852469826616    2.56852606058961
C        -1.96819265304781   -2.30106547765041    1.80359715958015
C        -0.25413231303221   -3.18719249038500   -1.91893937616166
C         0.75506073190196   -2.27460669559118   -2.57178713466580
C         1.95845463736154   -2.27059386952322   -1.81166242140010
C         1.72994249541709   -2.99203339063028   -0.58359617424204
C         0.37674561617169   -3.44657149190657   -0.57266578017353
C         2.79297442243538   -1.15360023834962   -1.81919462696349
C         2.41715031595105    0.00696565736524   -2.57495658040736
C         2.79586420494193    1.17316091283170   -1.82056852425630
C         3.41016480200182    0.72899289899360   -0.59537314181230
C         3.40897363655376   -0.71391179135419   -0.59406995679490
C         1.97469106807361    2.29435056034396   -1.81870343895173
C         0.74503792407976    2.29385466210231   -2.57540823042664
C        -0.24455232190372    3.02070324645560   -1.82387411749397
C         0.36664280040018    3.45559805403808   -0.59525489213946
C         1.74065726832698    3.01212604483930   -0.59554419360549
C        -1.56763468435286    2.59073560569039   -1.82264231196722
C        -1.94983482775965    1.42744348362969   -2.58027992161707
C        -2.95317624706473    0.71187849233677   -1.82922444621093
C        -3.18500411050379    1.43109348283937   -0.60406026392393
C        -2.32738014145035    2.59162868278058   -0.60107601830202
C        -2.95459064518682   -0.67460910711568   -1.82572535851332
C        -1.94943930077448   -1.40114460328695   -2.56187256351265
C        -1.59716043026425   -2.56679640189098   -1.80461169949456
C        -2.31550243650769   -2.55671428448186   -0.60398418495761
C        -3.18178489061466   -1.39329876352313   -0.59981381678069
C        -0.99697321024584   -0.71449703937671   -3.29953913972662
C        -0.99198095814600    0.72340297674555   -3.30090898994275
C         0.38093918959462    1.16911603764046   -3.30182699024274
C         1.22743406597560    0.00563771993046   -3.29609069349340
C         0.38367623301902   -1.15880445030716   -3.28535475804613
Cl       -1.93655736133910   -0.00642882740358    5.24815144745140
Cl       -0.36983163280557   -4.77741362392233   -2.87406352129464
62
 energy: -137.555899427401 gnorm: 0.009917365216 xtb: 6.4.1 (a3dbbd7)
C        -1.29706873742115   -0.00315157731206    3.53040232495464
C        -0.36693209262637   -1.17634270524222    3.30638270389571
C         0.98574092982971   -0.71934641305166    3.28316418255968
C         0.97929910044293    0.72304962506056    3.28075733241480
C        -0.37127295284374    1.17306639911008    3.30709302502778
C         2.33980862342844   -2.57427075835921    0.59367498898913
C         3.18834353408456   -1.40666254670436    0.58924395368013
C         2.95338575641594   -0.68637494664871    1.81334351406796
C         1.96043433183120   -1.41076876379385    2.56964870744363
C         1.58997933201783   -2.57399938728380    1.81678811830356
C         3.18444302790232    1.42488057733282    0.58640907843248
C         2.33624527976249    2.58926111636072    0.58693569635542
C         1.57748082896692    2.58273539261350    1.81115346579346
C         1.95109767045736    1.42055921054855    2.56321147417370
C         2.94671009076869    0.70134806779279    1.81194344999576
C        -0.36189930330459    3.45025906200309    0.58667395321661
C        -1.73526743475603    3.00853354947283    0.58672417890243
C        -1.97446245929624    2.29158146529153    1.80897863444418
C        -0.73514201949886    2.27532149601811    2.56669070996128
C         0.25044560653193    2.99748785986029    1.80737954606679
C        -3.40535417393297    0.73648260391684    0.57427960325951
C        -3.39739565916928   -0.70073488672940    0.57374539365684
C        -2.76938710752105   -1.13792709218644    1.81032787985402
C        -2.41673716556902   -0.00810998670041    2.54980536490280
C        -2.77640045595307    1.16109789833156    1.80272049809846
C        -1.73818366401788   -3.00137791452069    0.60764433116358
C        -0.34744354879179   -3.43723587476712    0.59029088481319
C         0.26455602436972   -2.99551390771424    1.81294626718788
C        -0.72535587900563   -2.27741972256570    2.56708827565674
C        -1.96681238900425   -2.30167739908469    1.80175868372681
C        -0.25336279429752   -3.20759546756107   -1.92956726888969
C         0.75406258001852   -2.28274806326979   -2.57639695022949
C         1.95427952642067   -2.27080037866592   -1.81148196592110
C         1.72656438511753   -2.99265214983992   -0.58374176909552
C         0.37621857888067   -3.45619314577940   -0.57642112006917
C         2.78941466871274   -1.15307985711211   -1.81647618520106
C         2.41491061368255    0.00715346665978   -2.57140288225213
C         2.79566344902140    1.17469254230899   -1.81916438887168
C         3.41017341002083    0.73080278556960   -0.59407570110131
C         3.40743067501358   -0.71231320925087   -0.59273645937693
C         1.97435770619087    2.29584149666764   -1.81719254924237
C         0.74453459275516    2.29457555260274   -2.57378187962874
C        -0.24483394621982    3.02291440299862   -1.82312319515280
C         0.36653436359741    3.45776701496092   -0.59438063810763
C         1.74067842257360    3.01412784598598   -0.59442043405411
C        -1.56799280212820    2.59326499931704   -1.82279353467837
C        -1.95057267623585    1.43017536249767   -2.58058870532018
C        -2.95270314470626    0.71411126073197   -1.82894572521442
C        -3.18603432895528    1.43412575409396   -0.60431677835951
C        -2.32842362592152    2.59485161313811   -0.60090822560937
C        -2.95064616734587   -0.67316339316249   -1.82464598965396
C        -1.94681017354460   -1.40272705146121   -2.56140483417065
C        -1.59237500173390   -2.56772623345211   -1.80285931847586
C        -2.31066208390419   -2.55795449142573   -0.60629300197649
C        -3.17663432702322   -1.39089707566422   -0.59909309005848
C        -0.99805819120721   -0.71429942170697   -3.30035502699259
C        -0.99293711402888    0.72361783496879   -3.29943780380295
C         0.37974701615268    1.16837874015600   -3.29786636161657
C         1.22426982142710    0.00356638163516   -3.29011509980332
C         0.38266339789868   -1.16321642858843   -3.28521182420826
Cl       -1.93872603890708   -0.00740617484975    5.24524419424912
Cl       -0.37663386473972   -4.79134294663173   -2.88130533058265
62
 energy: -137.556037478296 gnorm: 0.004779349670 xtb: 6.4.1 (a3dbbd7)
C        -1.29687399908325   -0.00298407509777    3.53140051316984
C        -0.36636885859665   -1.17609009673601    3.30606095461829
C         0.98643505487272   -0.71881197420751    3.28362223328920
C         0.97978798844395    0.72336069916664    3.28132528089311
C        -0.37094944226468    1.17315628500727    3.30708863841986
C         2.33864977341392   -2.57283023565548    0.59278769240925
C         3.18764793856387   -1.40570992323414    0.58944288991534
C         2.95391378063104   -0.68573181504410    1.81415339555802
C         1.96124863601186   -1.41028774715691    2.57060091905414
C         1.59019478950644   -2.57317942153530    1.81651031639636
C         3.18516915686480    1.42597383495736    0.58704774767638
C         2.33661084397580    2.59010129764691    0.58742581593597
C         1.57755556652992    2.58316249223625    1.81156157042066
C         1.95149927168629    1.42107277252014    2.56371787308587
C         2.94747753860238    0.70213298560596    1.81269997762104
C        -0.36210288483376    3.45067841044006    0.58686050135319
C        -1.73555653046801    3.00946207086664    0.58646300006112
C        -1.97447997645247    2.29130511631440    1.80860102591732
C        -0.73485476125489    2.27515516824935    2.56669598551062
C         0.25036806406732    2.99731180223579    1.80745469063113
C        -3.40568383663770    0.73720639974825    0.57425553448935
C        -3.39632745396614   -0.70004634397198    0.57336021916148
C        -2.76852990447669   -1.13680373975949    1.81087400207457
C        -2.41573335247688   -0.00854954767627    2.54924157649678
C        -2.77751013446831    1.16252343084309    1.80245285177801
C        -1.73905502612385   -3.00371213858673    0.60973741475394
C        -0.34715772071781   -3.44004360447796    0.58896267443945
C         0.26513621510695   -2.99406871663423    1.81068299989427
C        -0.72437118425613   -2.27662965289661    2.56619945895490
C        -1.96632134780537   -2.30247467353671    1.80119752632429
C        -0.25269744436120   -3.21681948088068   -1.93454204489896
C         0.75289547221256   -2.28776823966227   -2.57939420911838
C         1.95176621046323   -2.27046000773902   -1.81122267937786
C         1.72448530908832   -2.99254317544421   -0.58378077460865
C         0.37542176105260   -3.46179701253430   -0.57918571301230
C         2.78699746507213   -1.15271088709175   -1.81463389511730
C         2.41365754351828    0.00733571767027   -2.56964159024676
C         2.79569942110120    1.17558210806015   -1.81853991373269
C         3.41044217637366    0.73178092115573   -0.59363775538399
C         3.40637206924321   -0.71137551504259   -0.59200169443673
C         1.97411853047099    2.29644339080692   -1.81643256980700
C         0.74435596520068    2.29480055528006   -2.57321270044339
C        -0.24509322575772    3.02362469329672   -1.82285904253731
C         0.36653639730722    3.45863835686359   -0.59403353383616
C         1.74077278363314    3.01507352459688   -0.59394354399130
C        -1.56828673051868    2.59441304231710   -1.82329391260711
C        -1.95108771023089    1.43159846784249   -2.58135858853376
C        -2.95230683806919    0.71498508743915   -1.82914418930892
C        -3.18646612209059    1.43511625986665   -0.60473439315190
C        -2.32920493895000    2.59605106009183   -0.60107494809073
C        -2.94751861616925   -0.67268678318724   -1.82392284313082
C        -1.94477763813175   -1.40361301414715   -2.56189218015390
C        -1.58745026924175   -2.56766143490777   -1.80137005202837
C        -2.30720975661275   -2.55929244482324   -0.60771443587960
C        -3.17262893345058   -1.38948500674755   -0.59861427045443
C        -0.99879302109568   -0.71355908922314   -3.30189852056726
C        -0.99354673424446    0.72406798502878   -3.29952581140552
C         0.37906627289670    1.16770240240967   -3.29559979486385
C         1.22257206145672    0.00216180970076   -3.28675678033674
C         0.38209153994498   -1.16547598032534   -3.28540167135796
Cl       -1.94006227961678   -0.00736890136964    5.24335047117662
Cl       -0.38298690420600   -4.79080546201180   -2.88052532152995
62
 energy: -137.556077162095 gnorm: 0.002454237958 xtb: 6.4.1 (a3dbbd7)
C        -1.29712775565276   -0.00317710774097    3.53222131177541
C        -0.36640265495510   -1.17638652119971    3.30637041729110
C         0.98644569462713   -0.71888351423623    3.28367348206962
C         0.97983921214885    0.72316811428455    3.28142905172897
C        -0.37100183837559    1.17291821687513    3.30707983918756
C         2.33852292418037   -2.57246616146611    0.59254494363569
C         3.18749973311193   -1.40563693758888    0.58937989324084
C         2.95395627404647   -0.68584149276988    1.81435699445426
C         1.96140582212174   -1.41030543896491    2.57085241781864
C         1.59031376764600   -2.57323996145635    1.81663477210292
C         3.18536347475756    1.42591276774596    0.58699366705184
C         2.33664821607247    2.58988429259912    0.58731282660302
C         1.57747705683677    2.58288311587939    1.81142338842358
C         1.95147347398294    1.42083188362427    2.56362973388132
C         2.94763026875034    0.70201661840723    1.81270412585264
C        -0.36223399231973    3.45022484914732    0.58666205421647
C        -1.73564770676847    3.00911986853627    0.58621247363732
C        -1.97452309375704    2.29066288870767    1.80824087044435
C        -0.73483087744356    2.27471179889746    2.56656620228219
C         0.25026258178710    2.99681666429762    1.80728162590072
C        -3.40574388835618    0.73679573852581    0.57410968714295
C        -3.39630223295914   -0.70035215642980    0.57329149671477
C        -2.76848729433228   -1.13686271045523    1.81131686072711
C        -2.41568592637457   -0.00913764401594    2.54929744806240
C        -2.77794941252633    1.16247573606346    1.80216953535689
C        -1.73935909025674   -3.00421153239651    0.61064356453344
C        -0.34695144657024   -3.43998930817026    0.58886034119038
C         0.26541462624310   -2.99370583134895    1.81025429256964
C        -0.72421895079828   -2.27660040382654    2.56617089187506
C        -1.96644300674341   -2.30312782834329    1.80147763620809
C        -0.25264963367186   -3.21795719218808   -1.93539665694945
C         0.75244588661616   -2.28814956677626   -2.57960160532865
C         1.95137724587364   -2.26994932050985   -1.81101411117145
C         1.72412593178702   -2.99201806930665   -0.58365425924012
C         0.37510103276168   -3.46199032372938   -0.57964329073790
C         2.78668523360144   -1.15263340842002   -1.81432611354956
C         2.41372111757487    0.00743075598020   -2.56970537420207
C         2.79592870388976    1.17569866129030   -1.81864110126770
C         3.41066941306461    0.73184607459214   -0.59381932458443
C         3.40627019399659   -0.71128703298523   -0.59196580736828
C         1.97408280656840    2.29630894297117   -1.81645570887914
C         0.74444190167083    2.29469842921110   -2.57347306730468
C        -0.24521086920363    3.02326209875573   -1.82295668858082
C         0.36652155536710    3.45840770216053   -0.59411991601857
C         1.74076330875269    3.01495942963172   -0.59404299818353
C        -1.56837168403531    2.59430371723255   -1.82366340501363
C        -1.95118863513433    1.43164896485126   -2.58185980897760
C        -2.95230777926754    0.71490105736778   -1.82950980814692
C        -3.18646058564665    1.43476750475686   -0.60503673422060
C        -2.32942008195327    2.59568306545172   -0.60126817038427
C        -2.94670046343566   -0.67278663822521   -1.82371045953694
C        -1.94398533704799   -1.40343724309500   -2.56198000267917
C        -1.58512815418800   -2.56665470191247   -1.80024200816053
C        -2.30602274933110   -2.55951301110721   -0.60797603323606
C        -3.17155426464239   -1.38919846462908   -0.59851688230216
C        -0.99888694775419   -0.71304361893669   -3.30265354222774
C        -0.99357116589459    0.72429372882412   -3.30023595435892
C         0.37906758607691    1.16749471140406   -3.29550441732917
C         1.22258747308011    0.00187159433578   -3.28647162934079
C         0.38223422523670   -1.16546376104998   -3.28529304448268
Cl       -1.94027113128319   -0.00684261156084    5.24274936286336
Cl       -0.38668607086920   -4.78454747064682   -2.87722690754827
62
 energy: -137.556087707776 gnorm: 0.001342004794 xtb: 6.4.1 (a3dbbd7)
C        -1.29741760324729   -0.00334364251165    3.53263917083809
C        -0.36657545431069   -1.17667018465408    3.30667528602390
C         0.98627066105134   -0.71906309553118    3.28355695260340
C         0.97971068969057    0.72296314312933    3.28129977158954
C        -0.37115753917789    1.17275815647000    3.30704519827479
C         2.33882303060641   -2.57264900382306    0.59263454002637
C         3.18762752049283   -1.40583810096167    0.58929482255074
C         2.95384182308696   -0.68602664086740    1.81426650077906
C         1.96132012575144   -1.41041234767619    2.57074031920835
C         1.59037800505382   -2.57347697512972    1.81677993042692
C         3.18524565687349    1.42562795388054    0.58681298390774
C         2.33653353244798    2.58956033199035    0.58713729873228
C         1.57736458962154    2.58264211823940    1.81124193520994
C         1.95130261981183    1.42057907796757    2.56342816260388
C         2.94749080930810    0.70178741408917    1.81250403950144
C        -0.36230605804907    3.44983411100473    0.58649277465540
C        -1.73566771180830    3.00866048712841    0.58612740484207
C        -1.97459408618570    2.29033960484866    1.80809809118463
C        -0.73492859916658    2.27448717113228    2.56648714564962
C         0.25016467703701    2.99659231587711    1.80716872315712
C        -3.40567425849422    0.73633720232205    0.57399011952713
C        -3.39652858342311   -0.70076322518416    0.57334129925256
C        -2.76865502211999   -1.13722382887070    1.81149427299737
C        -2.41593174330146   -0.00945576330925    2.54945818518071
C        -2.77791729440493    1.16207063037793    1.80199219871573
C        -1.73925398409922   -3.00395476535529    0.61069297422470
C        -0.34679416680605   -3.43929314733074    0.58911760056076
C         0.26548275871460   -2.99383749500590    1.81054364740792
C        -0.72436026810558   -2.27683570269546    2.56642782096205
C        -1.96661713375700   -2.30344920798920    1.80182795612283
C        -0.25285992879448   -3.21711101831643   -1.93515813467117
C         0.75258826241931   -2.28711278179668   -2.57896388215821
C         1.95187577455992   -2.26979408032374   -1.81098686931555
C         1.72450267020402   -2.99178747234574   -0.58358712085332
C         0.37520850921347   -3.46071669148614   -0.57919227590963
C         2.78720254103342   -1.15271264190837   -1.81464486501735
C         2.41413319443413    0.00744294995034   -2.57019273150311
C         2.79608896316900    1.17554388152733   -1.81885072962933
C         3.41072960992755    0.73165163491541   -0.59401595048578
C         3.40653091670020   -0.71146902802312   -0.59213139543925
C         1.97412764953087    2.29607628017039   -1.81665906482053
C         0.74454997947545    2.29455707083361   -2.57377978653570
C        -0.24523176464000    3.02282143599368   -1.82307444027232
C         0.36647753756448    3.45802520014951   -0.59425228572624
C         1.74069282222144    3.01464069377362   -0.59422151758777
C        -1.56834608723479    2.59390176364932   -1.82377179007144
C        -1.95109085311794    1.43126007444356   -2.58198387820063
C        -2.95240438760732    0.71462218918250   -1.82973968590906
C        -3.18635458719290    1.43430876975132   -0.60516019514586
C        -2.32937182770082    2.59511593784806   -0.60134540763905
C        -2.94701576370546   -0.67300219996689   -1.82376581665389
C        -1.94390169322587   -1.40301590870128   -2.56174709555948
C        -1.58468581904149   -2.56577059414973   -1.79962975533247
C        -2.30608655378598   -2.55924417433434   -0.60774278157618
C        -3.17195886496177   -1.38942106257358   -0.59860056895437
C        -0.99868110784871   -0.71298028845810   -3.30269378243148
C        -0.99337147853978    0.72426020264120   -3.30070206764323
C         0.37928121137215    1.16754536216596   -3.29609963363196
C         1.22308577643014    0.00203014069071   -3.28717316968448
C         0.38260447595580   -1.16496200752659   -3.28520179249810
Cl       -1.94006070090503   -0.00648355602132    5.24274675761156
Cl       -0.38848344831688   -4.77956466639642   -2.87504903594091
62
 energy: -137.556089691620 gnorm: 0.000405500124 xtb: 6.4.1 (a3dbbd7)
C        -1.29757125931142   -0.00341644412632    3.53269913038999
C        -0.36667843423158   -1.17678060936095    3.30674237457578
C         0.98612320121521   -0.71917340871752    3.28342553830346
C         0.97955924684179    0.72287575244516    3.28112877613105
C        -0.37128463198569    1.17273691433533    3.30699609209689