63
 energy: -142.066555658936 gnorm: 0.140207998554 xtb: 6.4.1 (a3dbbd7)
C        -1.32333194775417    0.00617886347970    3.59125188963251
C        -0.38909456310608   -1.27772716531095    3.58793274117145
C         0.98734837171535   -0.72675165446744    3.28582848483634
C         0.97037352147027    0.69420630050098    3.25749094477592
C        -0.37633960723915    1.14742685553706    3.29074190055216
C         2.33092254703306   -2.58746567485154    0.56610397604514
C         3.16875994483946   -1.41579758165486    0.56774606192583
C         2.91978889080344   -0.69314490348597    1.79074016083681
C         1.93018806170321   -1.40549148670748    2.54814074589443
C         1.57476788296703   -2.59634073810083    1.79100274817011
C         3.18328087896891    1.41909085132624    0.57258499213333
C         2.33432229320876    2.58580968143883    0.57559918777772
C         1.57332139543398    2.57095369604789    1.79851755002390
C         1.94352282881158    1.40414426944103    2.54285112768194
C         2.93804115459266    0.69543633516321    1.79366637265872
C        -0.36752716666001    3.44413435035873    0.58029879258012
C        -1.74013210357057    3.00741588983283    0.58054459941955
C        -1.97818665379860    2.28654468588757    1.80361199533287
C        -0.73393250395930    2.25581684802015    2.55761528373596
C         0.24647420110131    2.98080949443068    1.80023381740862
C        -3.39591089216029    0.72883802558845    0.57533866561121
C        -3.37932885665645   -0.70504006359254    0.57786353554246
C        -2.74934612856665   -1.12865052488571    1.82052481704193
C        -2.40026274086307   -0.01382700939334    2.55826017594831
C        -2.77435746218519    1.16021035149421    1.80187148511327
C        -1.70577977915925   -3.00504292266898    0.57191390059864
C        -0.34657433486683   -3.46193150719564    0.56452064530943
C         0.25810980605866   -3.00738238851431    1.79111395103090
C        -0.74203335365356   -2.29289841924391    2.55243835495534
C        -1.91196172287597   -2.27950749485726    1.81757326885181
C        -0.23558165862281   -3.01371296632646   -1.83961821271520
C         0.75175047781152   -2.28700579367404   -2.59867644532734
C         1.98089777627659   -2.28868303835222   -1.84308617931945
C         1.74918768154887   -3.01946296828987   -0.62050040464920
C         0.38088379041600   -3.46658963937948   -0.62079308111870
C         2.79204993046375   -1.16413556659148   -1.83875967224219
C         2.41002754086118    0.00666527739579   -2.59106683151125
C         2.78807241943814    1.16926264052202   -1.83130610074559
C         3.40298548527550    0.72369088805355   -0.60835037131266
C         3.40110069057525   -0.71955382898331   -0.60923004493565
C         1.96912615256614    2.29475463280888   -1.82840259178522
C         0.74474441569639    2.29528025280401   -2.58515694980539
C        -0.24988429155059    3.01642431380723   -1.82795956514323
C         0.36353023978106    3.45499162487799   -0.59844520421847
C         1.73735095077191    3.01278425815446   -0.60243935985793
C        -1.56944867307335    2.59059487249377   -1.83048045584010
C        -1.94787757007795    1.42311330884846   -2.58910001301826
C        -2.94122296022124    0.70465889669871   -1.83002690890673
C        -3.17947337159538    1.42642572884929   -0.60816005298080
C        -2.33307692209202    2.59081264516620   -0.60600270171083
C        -2.93172079240255   -0.68656028280689   -1.82266620418654
C        -1.94059925011627   -1.40887980593779   -2.58138532694875
C        -1.55636984787224   -2.57670213587000   -1.82754179967090
C        -2.29848528094837   -2.57416283302738   -0.59738768824741
C        -3.15456863482430   -1.39758782868201   -0.59434922362650
C        -0.98936986995949   -0.71482485845558   -3.31408037280858
C        -0.99159024528376    0.72723605185279   -3.31429029098428
C         0.38014149579772    1.17201579903766   -3.31523274930469
C         1.22728121177112    0.00778684511203   -3.31823795360647
C         0.38205649969615   -1.16057927312445   -3.31917058806611
Cl       -2.09995733548554    0.29360223981566    5.20530702406437
Cl       -0.35034641589922   -2.11046483688082    5.19906768498811
Cl        2.98054462983133   -3.46835603770906   -2.78392505116018
63
 energy: -142.090820567308 gnorm: 0.061804725997 xtb: 6.4.1 (a3dbbd7)
C        -1.32417291811438    0.00659890440035    3.59098640888180
C        -0.39072075158347   -1.27757485335510    3.58807390583778
C         0.98575389277997   -0.72703522012094    3.28533508831801
C         0.96901005851142    0.69434461037177    3.25695268381787
C        -0.37635501325400    1.14708312010049    3.29008124554786
C         2.31859193478197   -2.58053135130158    0.57138827434059
C         3.16630070357456   -1.40936206392149    0.57043228033082
C         2.91914339163029   -0.69210261445012    1.78966765099629
C         1.92830835286891   -1.40588693221851    2.54853003691544
C         1.57160307440875   -2.59791547255710    1.79751089405701
C         3.18506702351861    1.42787521670946    0.57566075446024
C         2.33478426696183    2.59234584795770    0.57776643962909
C         1.57295493360228    2.57405465426767    1.79998814421051
C         1.94397103861092    1.40571876583681    2.54338800868072
C         2.93725065207701    0.69972497043163    1.79514028612524
C        -0.36683359588349    3.44594127997469    0.58074414255128
C        -1.73936228411145    3.00785953950045    0.58177000155595
C        -1.97670854672635    2.28793111570444    1.80437491982641
C        -0.73461734289860    2.25699831355727    2.55733656414944
C         0.24688422721686    2.98278003255336    1.80047777086744
C        -3.39620020021476    0.72871752328060    0.57657349803357
C        -3.38170968053409   -0.70542275833846    0.57880079755948
C        -2.75289857796681   -1.12961283314789    1.82071867104823
C        -2.40100232858060   -0.01273385152728    2.55749936690353
C        -2.77441473089083    1.15945901991176    1.80327927832245
C        -1.71208936814116   -3.00495397626577    0.57548098499166
C        -0.35244583383181   -3.46207251631983    0.57288910959912
C         0.25186255521275   -3.01002717936892    1.79716368399555
C        -0.74594488010719   -2.29306206506258    2.55407023774872
C        -1.91880065541499   -2.28045497740787    1.81903943021482
C        -0.24063059340377   -3.00371106170801   -1.83374118544137
C         0.73554395939713   -2.28144027016215   -2.59384082464752
C         2.03895000317075   -2.36052580246350   -1.89799683020939
C         1.73850591962926   -3.01732925821552   -0.60675226532376
C         0.37632256480702   -3.45684895408006   -0.61283348325601
C         2.81101655621946   -1.14544330175214   -1.84140790256297
C         2.40841870759124    0.01455198833626   -2.57871812192252
C         2.79243365630336    1.18322101613962   -1.82768573814623
C         3.40636087874506    0.73802816652521   -0.60589456212980
C         3.39401555125013   -0.70607017780236   -0.60887879967362
C         1.97067041672661    2.30334653530698   -1.82672876956546
C         0.74412638048120    2.29974532528271   -2.58332647109311
C        -0.24885411750003    3.01807843474648   -1.82756645157251
C         0.36366320981611    3.45818179493077   -0.59769190692249
C         1.73800416337554    3.01921329218223   -0.60044242846832
C        -1.57054500550382    2.59119241364823   -1.82877323128044
C        -1.94939252810592    1.42292242699959   -2.58686759830743
C        -2.94404078184292    0.70469887263314   -1.82899681604599
C        -3.17945021027272    1.42557012082759   -0.60695083514094
C        -2.33179910470741    2.59100375105793   -0.60551789781889
C        -2.93737301471536   -0.68668708628532   -1.82206223692012
C        -1.94911657071962   -1.40969797942954   -2.58185855067195
C        -1.56593600265673   -2.57531941749415   -1.82725799406591
C        -2.30387357990722   -2.57355627273164   -0.59619498258606
C        -3.15978358934467   -1.39788434837217   -0.59401225347060
C        -0.99735813714874   -0.71399222671373   -3.31425769102213
C        -0.99402056649725    0.72724330775960   -3.31194016021351
C         0.37928992705019    1.17173073223288   -3.31247778536123
C         1.22411976969557    0.01195387141750   -3.31336299726455
C         0.37251288547081   -1.15601904776838   -3.30808693137004
Cl       -2.10002534486176    0.29491094542770    5.20498677753577
Cl       -0.35009682673483   -2.11022837057303    5.19912478017413
Cl        3.05841225687726   -3.56666812327327   -2.86063992885730
63
 energy: -142.097052702557 gnorm: 0.014557479006 xtb: 6.4.1 (a3dbbd7)
C        -1.32574909154282    0.00873484953849    3.59167969981088
C        -0.39316103139566   -1.27548939474945    3.58758922273994
C         0.98370739335688   -0.72518492364582    3.28454105289150
C         0.96672481560122    0.69665324559878    3.25790115165368
C        -0.37706385821383    1.14872636522311    3.29091481681203
C         2.31281176403362   -2.57826248714118    0.56703008947391
C         3.16799287012280   -1.40730953147917    0.57202541498079
C         2.91763925820353   -0.69073132343950    1.78614552658601
C         1.92546355167031   -1.40356345287144    2.54710216166773
C         1.56718974924591   -2.59163091118810    1.79336703913308
C         3.18296330786719    1.43259587629858    0.57760159373721
C         2.33506056177350    2.59871289524127    0.58042754015556
C         1.57193123776670    2.57848002196710    1.80239835561664
C         1.94338479650864    1.40811728059856    2.54452046332194
C         2.93505312509467    0.70372347897083    1.79715607989921
C        -0.36735469076575    3.44929152940015    0.58252706423906
C        -1.73979183167619    3.00955859816989    0.58442581597749
C        -1.97571218054383    2.28994127635349    1.80626252576680
C        -0.73635676531331    2.26012608135604    2.55881970899083
C         0.24640921046798    2.98631728614982    1.80224321773461
C        -3.39790000798075    0.72980085326645    0.57900551873209
C        -3.38565144420716   -0.70461562042059    0.58113386575259
C        -2.75728501958525   -1.12930052693381    1.82187411801064
C        -2.40286390657117   -0.01012489710840    2.55811367064881
C        -2.77495196566328    1.15962328200727    1.80592472193824
C        -1.71616631766287   -3.00331841062842    0.57801258836604
C        -0.35424992763933   -3.45831411746080    0.57553041759126
C         0.24609955576537   -3.00661483938097    1.79727408040671
C        -0.74977078842546   -2.29215420391915    2.55529664833147
C        -1.92544530797309   -2.27999623182147    1.81972119538536
C        -0.23677313592893   -2.99168145908580   -1.83098885180605
C         0.73394998216459   -2.28427204926782   -2.59572543618106
C         2.08895553701057   -2.42675114031737   -1.94725063107226
C         1.73898857468151   -3.02078152193786   -0.60565025551602
C         0.37986190542205   -3.44533071353498   -0.60956293322591
C         2.80908493720372   -1.13825417363965   -1.83793716496102
C         2.40438069118726    0.01011629477523   -2.56888833057835
C         2.78889946611887    1.18636722550705   -1.82329868186666
C         3.40186504873250    0.74183372337799   -0.60344647983763
C         3.38417486072572   -0.70469834800012   -0.61188241403364
C         1.96934913077957    2.30686590728765   -1.82337611141847
C         0.74210616280727    2.30332424807038   -2.58027816200072
C        -0.24873436981771    3.01947779404588   -1.82574538071322
C         0.36291248135376    3.46244040731686   -0.59563563373563
C         1.73807108713812    3.02565341899662   -0.59813375891718
C        -1.57246587118808    2.59230147779394   -1.82533483076012
C        -1.95080268089898    1.42332114751230   -2.58351649269518
C        -2.94711906265270    0.70539555069544   -1.82682477398336
C        -3.18022888112800    1.42542482415603   -0.60427284197479
C        -2.33122239552421    2.59191349669668   -0.60346228945290
C        -2.94288956402523   -0.68622646568062   -1.82093512334526
C        -1.95224376256156   -1.40872339805945   -2.57799147354411
C        -1.56792233067624   -2.57143569182646   -1.82498920073185
C        -2.30679075568237   -2.57141082024221   -0.59492195676310
C        -3.16454797368263   -1.39739438455379   -0.59239852726392
C        -0.99652218132030   -0.71336263677546   -3.30583582278303
C        -0.99476745872185    0.72729370123623   -3.30663020808746
C         0.37998730090480    1.16959662164196   -3.30739817866646
C         1.22328211277315    0.01308985533657   -3.31314240339475
C         0.37265372478204   -1.15875006076336   -3.30128699930806
Cl       -2.10180946159084    0.29830442265142    5.20496113161898
Cl       -0.35076146779884   -2.10942054462436    5.19781982788741
Cl        3.12140151728049   -3.63516321091597   -2.92013649134573
63
 energy: -142.097375274635 gnorm: 0.008631518877 xtb: 6.4.1 (a3dbbd7)
C        -1.32656612530883    0.01005625378936    3.59178768044767
C        -0.39435917718794   -1.27383579250366    3.58692667746450
C         0.98251878357140   -0.72379681666461    3.28318931302242
C         0.96575056277919    0.69815699303538    3.25865470915273
C        -0.37753755490495    1.15015689735650    3.29180990318171
C         2.31435745465714   -2.58008458210729    0.56355213915630
C         3.17044509468823   -1.40801015935026    0.57295819322139
C         2.91752641899293   -0.69006250670738    1.78490511926533
C         1.92372009346687   -1.40185177206972    2.54475397979508
C         1.56546714645941   -2.58805031020229    1.78876434794195
C         3.18144816246913    1.43305001641124    0.57793399010859
C         2.33502759767132    2.60038623070171    0.58142663443395
C         1.57172869921072    2.58045720264972    1.80369474906572
C         1.94300177220290    1.40916854286341    2.54517458557241
C         2.93414742403238    0.70482376958724    1.79802107850607
C        -0.36778825764028    3.45104697283876    0.58364081742302
C        -1.74028387304449    3.01057345196587    0.58589392808060
C        -1.97575034198829    2.29085968242092    1.80744331953462
C        -0.73717271342964    2.26201146328486    2.56001346035830
C         0.24623270825554    2.98828198387508    1.80355817216901
C        -3.39936280848637    0.73051665027744    0.58026094989899
C        -3.38801276475785   -0.70414810719770    0.58231014811397
C        -2.75949417959331   -1.12906800638742    1.82265540750926
C        -2.40417682143771   -0.00893767380604    2.55866625691652
C        -2.77558655637974    1.16005142130943    1.80727870409434
C        -1.71681964136560   -3.00179909708825    0.57828947874209
C        -0.35392881331265   -3.45540932498414    0.57395181327285
C         0.24456626801300   -3.00377114311386    1.79547645646770
C        -0.75089573539835   -2.29106575610583    2.55532415524744
C        -1.92751480928946   -2.27932040051489    1.81971807160224
C        -0.23380389969707   -2.98939477085864   -1.83191751318421
C         0.73883916122721   -2.29041024894584   -2.60129761004232
C         2.09959674541045   -2.44344393124869   -1.95885520060452
C         1.74444821586833   -3.02689335060823   -0.61015123950096
C         0.38273719222761   -3.44302722460324   -0.61037681267117
C         2.80490811179994   -1.14084802377239   -1.83677070374698
C         2.40328948317085    0.00569703777671   -2.56787374303238
C         2.78558201024716    1.18451827932434   -1.82151690163213
C         3.39843171901449    0.74033114371476   -0.60255258498318
C         3.38221730261011   -0.70783637545048   -0.61349436617344
C         1.96818506021493    2.30655365364452   -1.82171214051926
C         0.74095419332072    2.30400587105118   -2.57886537218252
C        -0.24914126147343    3.01982042482290   -1.82459624191119
C         0.36244066379106    3.46415961772521   -0.59457395170553
C         1.73782950805701    3.02733491932756   -0.59720027931890
C        -1.57337954989299    2.59280422703946   -1.82352556231875
C        -1.95087599997582    1.42325139962676   -2.58134407457197
C        -2.94804813296415    0.70578955039367   -1.82524640116096
C        -3.18113455584208    1.42578697122452   -0.60272330720835
C        -2.33142474304715    2.59243960777439   -0.60205520546008
C        -2.94450586201448   -0.68579637866609   -1.82014669756103
C        -1.95177497720298   -1.40807053708989   -2.57570414751154
C        -1.56620248100322   -2.56972206019827   -1.82337835798416
C        -2.30696715738057   -2.56988203702028   -0.59444092566656
C        -3.16636049380450   -1.39703309580264   -0.59156713794723
C        -0.99395388168617   -0.71381424209512   -3.30099252978151
C        -0.99409043528214    0.72672595798717   -3.30298067912047
C         0.38049326674605    1.16886921853093   -3.30552010780790
C         1.22339071399967    0.01309251815485   -3.31517046260974
C         0.37536363047018   -1.16189306984610   -3.30236234591746
Cl       -2.10184194913574    0.29849944065531    5.20546982455520
Cl       -0.35274225590956   -2.10625677349439    5.19796048141617
Cl        3.13413287537763   -3.64288825681308   -2.93008345600714
63
 energy: -142.097481770988 gnorm: 0.004732504037 xtb: 6.4.1 (a3dbbd7)
C        -1.32708602841204    0.01048147980195    3.59211631872133
C        -0.39472055024961   -1.27348606140944    3.58727218094956
C         0.98202449036626   -0.72341646546073    3.28274059981646
C         0.96534087835608    0.69865298422882    3.25954216158792
C        -0.37770489387164    1.15055266262097    3.29233240038841
C         2.31537181001079   -2.58098818299066    0.56182983507338
C         3.17241730157685   -1.40853956344405    0.57439306685950
C         2.91797836653857   -0.68989537614595    1.78489512580748
C         1.92268390782436   -1.40103271398303    2.54330860165171
C         1.56444224407460   -2.58611773068315    1.78599255536677
C         3.18077249535941    1.43285548988769    0.57817547391940
C         2.33508093441308    2.60061517323833    0.58180713864440
C         1.57182913189173    2.58105070459062    1.80437038226630
C         1.94292571209502    1.40930962943620    2.54576480135652
C         2.93382903728595    0.70509759576678    1.79888149088782
C        -0.36775544043237    3.45158007432718    0.58391564612180
C        -1.74031927137531    3.01074774384783    0.58633012981526
C        -1.97543010217368    2.29091324045673    1.80771239476742
C        -0.73742847954303    2.26254564788513    2.56036758225582
C         0.24640321650175    2.98890547413739    1.80406127698177
C        -3.40009585916588    0.73070137796065    0.58061651385880
C        -3.38940719780969   -0.70412616823406    0.58289215798839
C        -2.76077194729931   -1.12928471809954    1.82311354812060
C        -2.40453428241830   -0.00840893707206    2.55867691186171
C        -2.77559448146622    1.15989518878175    1.80771519682417
C        -1.71712519241185   -3.00070870568106    0.57856053658625
C        -0.35379298474749   -3.45312514451092    0.57284947149265
C         0.24383780878709   -3.00208814690677    1.79465150240436
C        -0.75130270901668   -2.29053110040656    2.55573871001609
C        -1.92851459098899   -2.27909959920849    1.82001109346036
C        -0.23232838075623   -2.98761147298032   -1.83224521381735
C         0.74213404475371   -2.29373300889186   -2.60453241321795
C         2.10397184901938   -2.45096986941616   -1.96387560208667
C         1.74793305267450   -3.03007317925263   -0.61301648488348
C         0.38415590312145   -3.44110190124139   -0.61058227299000
C         2.80047215354386   -1.14277496220411   -1.83517550024201
C         2.40228000705100    0.00271558308298   -2.56759504503487
C         2.78326979148789    1.18294824178820   -1.82030344388372
C         3.39603948131506    0.73898325806757   -0.60192924454421
C         3.38103772445015   -0.71028847507339   -0.61405097247077
C         1.96766097636479    2.30604705994855   -1.82105629107990
C         0.74029727957290    2.30432694981311   -2.57855563514073
C        -0.24927144748378    3.01981004239324   -1.82440015677495
C         0.36237710807269    3.46473906303623   -0.59434315296147
C         1.73781779211308    3.02763343333218   -0.59690493932990
C        -1.57383569476989    2.59296889725385   -1.82294175361270
C        -1.95090765818052    1.42316436867610   -2.58060656191017
C        -2.94841068879928    0.70593843028081   -1.82459701306973
C        -3.18165124968930    1.42586950030879   -0.60214669981018
C        -2.33139562202341    2.59254216915427   -0.60165219529730
C        -2.94554026195668   -0.68552576938784   -1.81992790181079
C        -1.95162001771116   -1.40767369207673   -2.57472670919778
C        -1.56505707026610   -2.56848094873706   -1.82212247206058
C        -2.30698911622569   -2.56883015121292   -0.59408719600979
C        -3.16748465141361   -1.39690553776137   -0.59133763344687
C        -0.99252943956510   -0.71422494966007   -3.29831582164338
C        -0.99360387432386    0.72628269144783   -3.30105483260063
C         0.38073721999630    1.16874797387213   -3.30527099232772
C         1.22319833814852    0.01361543157486   -3.31720503644596
C         0.37679560198903   -1.16331880772915   -3.30309072023780
Cl       -2.10494082472283    0.30366931059962    5.20373299351317
Cl       -0.34859548615834   -2.10904788696133    5.19682330334099
Cl        3.13791006685809   -3.63964209895105   -2.93107270887257
63
 energy: -142.097498739683 gnorm: 0.003148265639 xtb: 6.4.1 (a3dbbd7)
C        -1.32618963255996    0.01017155323485    3.59065569085100
C        -0.39467632267822   -1.27257355086610    3.58593930527486
C         0.98253318192782   -0.72315022426314    3.28264825146183
C         0.96591558538957    0.69899987896969    3.25962899581712
C        -0.37699600952093    1.15080089474654    3.29238874079236
C         2.31551330725439   -2.58104295639782    0.56134728981508
C         3.17359352704883   -1.40875566155994    0.57548867684806
C         2.91887303079803   -0.68998009372197    1.78525530736505
C         1.92270911084936   -1.40085812071907    2.54286880482532
C         1.56395630428328   -2.58538760211792    1.78490875692998
C         3.18097106200930    1.43265038510170    0.57795887256874
C         2.33543401324772    2.60038834749033    0.58144788805888
C         1.57235927491239    2.58119920349867    1.80423430596837
C         1.94365337237403    1.40941173033193    2.54573376185386
C         2.93429625800533    0.70511965251976    1.79918789012472
C        -0.36738166118556    3.45148857078825    0.58366877350835
C        -1.73997994552905    3.01047202000034    0.58628230738607
C        -1.97484020280516    2.29061486359613    1.80764845981036
C        -0.73710584870906    2.26275192861261    2.56036387246203
C         0.24694992957301    2.98900657878387    1.80392818510764
C        -3.40025257131992    0.73060434124033    0.58051900550175
C        -3.39010212161956   -0.70431602063595    0.58283897601361
C        -2.76135836795975   -1.12972069035656    1.82286269528422
C        -2.40459958872198   -0.00847801991444    2.55826924983377
C        -2.77540118547915    1.15954755269055    1.80782966142266
C        -1.71729535366590   -3.00037035635807    0.57852602807345
C        -0.35382643303934   -3.45203520578962    0.57233397657924
C         0.24351262995526   -3.00168046205105    1.79468431651014
C        -0.75164346141686   -2.29072213937199    2.55604171712158
C        -1.92893410337859   -2.27925230632961    1.81988566170457
C        -0.23190365533131   -2.98635331149497   -1.83218774012688
C         0.74351411427751   -2.29466689485754   -2.60560287706253
C         2.10572822242190   -2.45389478848721   -1.96589535192961
C         1.74925369559863   -3.03075264536810   -0.61414486432381
C         0.38455118289112   -3.43971544928443   -0.61038540610783
C         2.79678523890132   -1.14351880643268   -1.83368843509182
C         2.40136672577765    0.00116619568955   -2.56748959513861
C         2.78217135783888    1.18211025913301   -1.81991233638258
C         3.39495728270047    0.73828384003893   -0.60193517460515
C         3.38013738564004   -0.71155042304225   -0.61419637123913
C         1.96763198367425    2.30570237568267   -1.82129963551952
C         0.73999290873624    2.30444436662201   -2.57897931099332
C        -0.24916481043302    3.01962833243360   -1.82476802173634
C         0.36258931670473    3.46467630397421   -0.59464631876329
C         1.73803017949909    3.02739442804039   -0.59725167221782
C        -1.57393398207090    2.59290957145622   -1.82301185572812
C        -1.95094808582098    1.42309762097059   -2.58075220085343
C        -2.94843342229551    0.70590584395635   -1.82454613310546
C        -3.18171123626327    1.42575437267113   -0.60209662177108
C        -2.33110412786409    2.59239975684637   -0.60173010725548
C        -2.94613834117263   -0.68544754633547   -1.82016222065238
C        -1.95177066121267   -1.40755750238880   -2.57472651582678
C        -1.56461337096357   -2.56790962820391   -1.82159531298740
C        -2.30703469437830   -2.56839973670130   -0.59413395816506
C        -3.16807727674786   -1.39697734535084   -0.59162930667262
C        -0.99208592180939   -0.71452325191838   -3.29740624482047
C        -0.99346405285036    0.72602373660487   -3.30061056561120
C         0.38075067534688    1.16882024232824   -3.30595090985357
C         1.22282361867727    0.01416375605333   -3.31868619447765
C         0.37710175889623   -1.16364174445732   -3.30325348048225
Cl       -2.09841104953947    0.28998895249318    5.20703219644869
Cl       -0.35884094469893   -2.09743227610812    5.20113575095779
Cl        3.13784243801678   -3.63217714989115   -2.92840014688538
63
 energy: -142.097532942219 gnorm: 0.001963083266 xtb: 6.4.1 (a3dbbd7)
C        -1.32662102094133    0.01012247530224    3.59164073719966
C        -0.39452886782454   -1.27351357025208    3.58698953835014
C         0.98247007405179   -0.72374834540560    3.28295701690575
C         0.96581593564531    0.69844634323159    3.25982126437561
C        -0.37713547716020    1.15031618528406    3.29231554988485
C         2.31504304682416   -2.58079074955313    0.56185806834417
C         3.17329032125072   -1.40874195306662    0.57562762255132
C         2.91894433675362   -0.69034660815289    1.78564511011533
C         1.92276098253461   -1.40132006969906    2.54318242555169
C         1.56412218915012   -2.58605138708312    1.78548359382879
C         3.18119547701435    1.43240193842273    0.57809781119466
C         2.33540770378978    2.59987726567135    0.58140602828326
C         1.57232490426669    2.58059325871034    1.80413216674306
C         1.94354231232747    1.40888538354280    2.54579576730881
C         2.93432510979581    0.70473317210835    1.79931777307331
C        -0.36720513727125    3.45109123999666    0.58347770437627
C        -1.73981563788666    3.01025994883440    0.58600134349055
C        -1.97470396687938    2.29045139962033    1.80737545529783
C        -0.73699697728427    2.26217966139279    2.56002397063502
C         0.24701460840744    2.98847337424961    1.80369719950297
C        -3.39985515295319    0.73039812803899    0.58029048571385
C        -3.38965164091555   -0.70447247895420    0.58280423296334
C        -2.76098364159334   -1.12983054234098    1.82292428913176
C        -2.40408712184142   -0.00852050532323    2.55814933095096
C        -2.77503124045214    1.15936448136836    1.80754461173952
C        -1.71723329787275   -3.00050498108341    0.57866358154429
C        -0.35396451666125   -3.45239918393293    0.57257230901172
C         0.24364736040926   -3.00208136611612    1.79500501449384
C        -0.75134421752393   -2.29089739271348    2.55624326423783
C        -1.92861364588040   -2.27936174769206    1.82011681429963
C        -0.23241184069090   -2.98640341515061   -1.83192559765281
C         0.74269373790809   -2.29361532115263   -2.60459555119807
C         2.10507305965099   -2.45249870830881   -1.96502318525185
C         1.74831554391761   -3.02968535980241   -0.61344299456589
C         0.38405144827840   -3.43978273126668   -0.61011882263424
C         2.79625690803168   -1.14297785898346   -1.83319960964272
C         2.40117399839185    0.00162621108219   -2.56726958994803
C         2.78259543976396    1.18232634591360   -1.81997210809258
C         3.39532627107668    0.73844522332165   -0.60193607466181
C         3.37995419963168   -0.71118819681392   -0.61382644466648
C         1.96787075955725    2.30568890376961   -1.82153295820751
C         0.74014036242050    2.30434627407266   -2.57925382139806
C        -0.24899434127503    3.01949386723741   -1.82499908739623
C         0.36274595479070    3.46428933260333   -0.59479489150119
C         1.73811381904847    3.02694911446905   -0.59730881736155
C        -1.57376864855070    2.59278788110222   -1.82332306526384
C        -1.95096661443052    1.42307657039151   -2.58118258068653
C        -2.94827289075529    0.70576209877858   -1.82478576519704
C        -3.18147762984495    1.42559752608609   -0.60233667048086
C        -2.33096467218340    2.59228621436874   -0.60201361206787
C        -2.94604395082095   -0.68557281289728   -1.82025076622243
C        -1.95199415555942   -1.40770366439558   -2.57506766063693
C        -1.56495545071403   -2.56818159256047   -1.82170867805338
C        -2.30704483518200   -2.56859450886570   -0.59410292728368
C        -3.16785192552214   -1.39708143967337   -0.59169454339995
C        -0.99253272598964   -0.71454537942523   -3.29800852536199
C        -0.99362610819906    0.72606075769696   -3.30123645616174
C         0.38064787438218    1.16890985439845   -3.30643054978826
C         1.22265209097088    0.01426176493377   -3.31851153558884
C         0.37653888804721   -1.16316460579951   -3.30286074016965
Cl       -2.10439185368801    0.30102488710277    5.20367033260899
Cl       -0.34976763663829   -2.10641366767408    5.19818319362691