64
 energy: -146.695153042206 gnorm: 0.053821018976 xtb: 6.4.1 (a3dbbd7)
C        -1.32634999241483    0.00280025864151    3.59338874403911
C        -0.39769195481622   -1.14862387312129    3.28845825570209
C         0.95831988403068   -0.70266892700371    3.25039866556589
C         0.94882828110510    0.71638289129329    3.26174855169975
C        -0.41456900950059    1.16374692186528    3.29719884710744
C         2.34308337576122   -2.56359237582467    0.56215654032545
C         3.44452057866524   -1.54110781697535    0.64503901213561
C         2.93312241613067   -0.69413193270152    1.78552467102595
C         1.92451509856251   -1.39157735554225    2.51629965056325
C         1.56584250003685   -2.54292976526652    1.76862091126226
C         3.16800104569199    1.39499824660860    0.53817488931374
C         2.30525240153800    2.53775385776497    0.54678470064240
C         1.55596548819306    2.53477610015248    1.76804946683551
C         1.91434323532459    1.37720687315259    2.51851546696911
C         2.92060028616313    0.66610290147426    1.79029337488685
C        -0.38899855543968    3.40683698000860    0.57829065893734
C        -1.75220788263901    2.96475122834078    0.57686591209064
C        -2.00306785806995    2.25792872532650    1.79595894556062
C        -0.75409851690587    2.25626436299722    2.56407096667907
C         0.23274118195059    2.94540138458831    1.78516928078905
C        -3.38833165310791    0.71893316223168    0.58032665353161
C        -3.38585690717674   -0.70632475160085    0.58026858200059
C        -2.80564719323411   -1.15032371174012    1.81465999578930
C        -2.66588934162728    0.00525292863843    2.77208842701976
C        -2.80879685543284    1.16118239873201    1.81568695684253
C        -1.74268545085641   -2.94685533604768    0.57876259842578
C        -0.37997682808060   -3.38812302543445    0.58397396924426
C         0.23841869213651   -2.94040146223101    1.78793282477634
C        -0.74423165371935   -2.24785138866995    2.56518805528715
C        -1.99995307900214   -2.24548654644211    1.80120081274001
C        -0.22887699838535   -2.95857622883078   -1.81505708613131
C         0.75614576672717   -2.24131719606095   -2.57028881887504
C         1.98345129602037   -2.24344319341802   -1.83432204013199
C         1.74288367617354   -2.97366536125583   -0.58557496280004
C         0.36858238395093   -3.38226297817608   -0.58212760616135
C         2.80080100655585   -1.15499450900164   -1.83321621982263
C         2.39282129765028    0.00405202829628   -2.57249227491463
C         2.76556788390413    1.15650911519077   -1.82031943261024
C         3.40480746542391    0.71456725927452   -0.61505492147572
C         3.70539839001661   -0.76034182140137   -0.69370495444768
C         1.94629579048526    2.27580133127577   -1.82623935382791
C         0.73062746311083    2.28661931429503   -2.58621748102078
C        -0.27097167568618    3.00568428649745   -1.83839287488553
C         0.33618305310590    3.42366292654416   -0.60393550538846
C         1.70707205855127    2.99067783593536   -0.61390502375323
C        -1.58466393930510    2.57865471839712   -1.83930855332723
C        -1.96214000177910    1.42082738747005   -2.60826229645552
C        -2.94374342943443    0.70132887549625   -1.83164262554286
C        -3.16933064923952    1.40861433614920   -0.60307923437069
C        -2.33513766158999    2.56868442759039   -0.61391705473694
C        -2.93689070753490   -0.68285471106016   -1.82904872020370
C        -1.94710441709435   -1.39445036792347   -2.59885206385745
C        -1.55131388267958   -2.54131586124643   -1.82739324772251
C        -2.31876430952942   -2.54544860567834   -0.61144090543401
C        -3.16028922568058   -1.39267627648811   -0.60396126555087
C        -0.99760127883136   -0.70305993463469   -3.32625148935203
C        -1.00874065687090    0.73764855625100   -3.33402757429168
C         0.36911969509505    1.16983650926730   -3.32081962924046
C         1.21619391141706    0.01054387192965   -3.30741383762496
C         0.37085121818214   -1.14200863572524   -3.31799754304824
Cl       -1.64230424091003   -0.01787554896412    5.38492969657544
Cl       -4.11929367478990    0.00064660097172    3.86482332202809
Cl        4.94880237914126   -2.38081616723680    1.22781063429178
Cl        5.42422364370703   -0.94938165155657   -1.25437245054486
64
 energy: -146.699756055129 gnorm: 0.024727661948 xtb: 6.4.1 (a3dbbd7)
C        -1.31746119087710    0.00217067658597    3.58950336092155
C        -0.39463049526617   -1.15934252824045    3.28896204867487
C         0.96091863887043   -0.70681199375012    3.25675210438085
C         0.95771770882486    0.72083122672906    3.26829032785706
C        -0.40226579230722    1.16856157673499    3.29633960051677
C         2.33469115450447   -2.57180251586838    0.56814562511261
C         3.43745366312386   -1.54194923681356    0.65018631294700
C         2.93617375377079   -0.68685811082731    1.79387378246187
C         1.92955284827907   -1.39248828635920    2.52298812484222
C         1.56461714909742   -2.55274308512416    1.77537780025863
C         3.16897113865768    1.41111325761785    0.55278308458376
C         2.31315848271140    2.56376551221909    0.56114486689658
C         1.55986709214797    2.55959147243149    1.78392708020558
C         1.92687691026231    1.39725951781457    2.53434047913625
C         2.92879301900001    0.67973757689727    1.79956098103939
C        -0.38219510756975    3.43104076567981    0.57724867380699
C        -1.74853327762358    2.98630869679468    0.57605259488250
C        -1.99438513285580    2.27115558992452    1.79611866243174
C        -0.74923492814630    2.26993689357219    2.56530020795462
C         0.23513860899588    2.97656005612310    1.79477816831970
C        -3.38276363784989    0.71980448005946    0.57804427774257
C        -3.38193294453107   -0.71408460103811    0.57826225338029
C        -2.79830492846350   -1.16127134814115    1.80767890247976
C        -2.65388911236852    0.00241614037272    2.76261109254816
C        -2.79946302822730    1.16607073356837    1.80802597090345
C        -1.74386621289999   -2.97749147229076    0.57734703847524
C        -0.37709589797760   -3.41813378905693    0.58092969311809
C         0.23731502820002   -2.96873047802069    1.79319231525171
C        -0.74526290490220   -2.26570854642945    2.56721728756186
C        -1.99321952419946   -2.26573372373905    1.79934160203278
C        -0.24033311699541   -2.97897427696690   -1.82251061029872
C         0.74752042910686   -2.25913867878371   -2.57822277669027
C         1.97501734937033   -2.25692274387258   -1.83446756796175
C         1.73773198198243   -2.98756739792014   -0.58868237495770
C         0.36625214747570   -3.41330083956872   -0.59222498501102
C         2.78809258157106   -1.15755867372634   -1.83132771474109
C         2.38738713128146    0.00318235032388   -2.56873978502087
C         2.76384781423396    1.16298660506883   -1.81392189167415
C         3.39876144195364    0.72526142692648   -0.60692662918881
C         3.69193237433777   -0.75619874562593   -0.68714824718284
C         1.94947310738408    2.29052943767269   -1.82576637209466
C         0.73038851769139    2.29684668289106   -2.59150630712161
C        -0.26555024404884    3.01633128201656   -1.83781712861210
C         0.34512176024792    3.44849026675643   -0.60524585406691
C         1.71586500418844    3.01046696816487   -0.61041075459093
C        -1.58463440976731    2.58776155723975   -1.84029607743221
C        -1.96233170253487    1.42245714499093   -2.60377118873343
C        -2.94929966530109    0.69938884829256   -1.83831711847971
C        -3.17199582761650    1.41396798731869   -0.60893096521932
C        -2.33771451448321    2.57951369906946   -0.61501065649786
C        -2.94467186665110   -0.68807195337478   -1.83717651464489
C        -1.95338814473882   -1.40452795841832   -2.59966307321859
C        -1.56470704426593   -2.56269226455954   -1.83383678358254
C        -2.32762769749415   -2.56576625662179   -0.61360126121652
C        -3.16670233729196   -1.40573114573766   -0.60922570464847
C        -1.00096627653815   -0.70970397063910   -3.33036971313169
C        -1.00611436169646    0.73390753928514   -3.33235074186041
C         0.36777799502983    1.17611669483286   -3.32495535232461
C         1.21177351889431    0.01009459184875   -3.31253239601673
C         0.36854848784592   -1.14917168013075   -3.32395560683467
Cl       -1.61065631137662   -0.01409375181143    5.38204344605518
Cl       -4.12399592155536    0.00304654284484    3.82862363429746
Cl        4.92567130724928   -2.39319011221541    1.24921669256726
Cl        5.40064877527518   -0.93072234760800   -1.27527294745608
64
 energy: -146.700157674515 gnorm: 0.010439379143 xtb: 6.4.1 (a3dbbd7)
C        -1.31338324738468    0.00206882219231    3.57960494866863
C        -0.39249992025464   -1.16498964776011    3.28654083529659
C         0.96148927015751   -0.70962501312841    3.25967807471663
C         0.96173642881133    0.72283504513810    3.27010476562386
C        -0.39394253621428    1.17151904432516    3.29301445784024
C         2.32683296355119   -2.57534480678424    0.57126368188709
C         3.42816073258665   -1.53795777350729    0.64872032845257
C         2.93546158753586   -0.68171985700633    1.79766622366798
C         1.93242968819291   -1.39201303314473    2.52621812817680
C         1.56320555619818   -2.55655899125226    1.77804102845431
C         3.16841096006668    1.42006420953923    0.56123238046192
C         2.31799815639428    2.57874953226408    0.56974370556732
C         1.56169856681535    2.57278001243634    1.79335486024482
C         1.93421320531783    1.40917100899201    2.54407646189760
C         2.93148960719728    0.68739404410784    1.80290281737959
C        -0.37832289090834    3.44422671406687    0.57653080995799
C        -1.74615328621533    2.99835713160668    0.57565329435852
C        -1.98777567231597    2.27781741498576    1.79562821916335
C        -0.74662091506218    2.27777262850870    2.56490310860601
C         0.23652380587640    2.99488968684642    1.80072841886848
C        -3.37823872814201    0.72041041014872    0.57695248264000
C        -3.37799397365099   -0.71860251890127    0.57728232214953
C        -2.79269679224196   -1.16704770525130    1.80140508144307
C        -2.64216477072723    0.00120206447566    2.75431964188391
C        -2.79205440413994    1.16852355015724    1.80069943919420
C        -1.74451767806342   -2.99523448099673    0.57684199910737
C        -0.37478080511950   -3.43465873511381    0.57964879837537
C         0.23681181752983   -2.98574216450386    1.79649128816439
C        -0.74613195827387   -2.27427120943985    2.56622674300830
C        -1.98860562162395   -2.27678468504571    1.79756505216319
C        -0.24681718841770   -2.99004205387223   -1.82646245733237
C         0.74249906498447   -2.26925744486036   -2.58237733060843
C         1.96899987461468   -2.26413155003054   -1.83314741009097
C         1.73396186890440   -2.99481344486333   -0.59097596348702
C         0.36504655981520   -3.43172354343819   -0.59799895433448
C         2.77748744608287   -1.15786763784552   -1.82985200432636
C         2.38361149153617    0.00208011476006   -2.56555731074492
C         2.76203515628193    1.16612307593770   -1.80887405459921
C         3.39260314215995    0.73164973784114   -0.60236215144527
C         3.67894267818033   -0.75406834173513   -0.68140710616689
C         1.95158927084125    2.29866270720874   -1.82477759942966
C         0.72875045316618    2.30103683362523   -2.59207256780967
C        -0.26289017321842    3.02088259130394   -1.83619064618042
C         0.35038707858630    3.46179165278254   -0.60547508319283
C         1.72128264594803    3.02031073797568   -0.60853342403132
C        -1.58462256109289    2.59154638582581   -1.83964354979775
C        -1.96186497482392    1.42309312124796   -2.60023629373633
C        -2.94966613102789    0.69773591106439   -1.84086271659124
C        -3.17395165059562    1.41700870063001   -0.61169550920554
C        -2.33928525371216    2.58373163886224   -0.61433325343138
C        -2.94598522159630   -0.69060324921383   -1.84102106513574
C        -1.95537333688599   -1.40961843079065   -2.59910187156677
C        -1.57186462336001   -2.57450137923468   -1.83674563029506
C        -2.33268565654015   -2.57618307255173   -0.61390557518684
C        -3.17010426056828   -1.41347250172962   -0.61168693230963
C        -1.00165043742521   -0.71297570776012   -3.33145809519167
C        -1.00422823222917    0.73133619700915   -3.33037754920110
C         0.36626313211355    1.17870496444522   -3.32437677717805
C         1.20989846912123    0.00963391260468   -3.31532419002870
C         0.36870982680276   -1.15232621024177   -3.32569858697304
Cl       -1.64331356716131   -0.00743550225202    5.36163978185150
Cl       -4.09197641409219    0.00373099820984    3.84169637848898
Cl        4.93126563967405   -2.37961099719806    1.21113705757773
Cl        5.39023010118537   -0.94746762628328   -1.24495796259596
64
 energy: -146.700512979900 gnorm: 0.004077966553 xtb: 6.4.1 (a3dbbd7)
C        -1.31458835671996    0.00223224388412    3.58201674062999
C        -0.39250678749080   -1.16370816349283    3.28519399785803
C         0.96083262573315   -0.70991779582577    3.25888209000040
C         0.96153981295885    0.72216226486552    3.26825249376775
C        -0.39262819770865    1.17028427633996    3.29109674297578
C         2.32494505234475   -2.57361212023271    0.57211041049519
C         3.43077901824944   -1.53904404801079    0.64891497737319
C         2.93415198596375   -0.68209406039848    1.79647303668329
C         1.93227492133316   -1.39119925172014    2.52560510334576
C         1.56213299388680   -2.55497520417368    1.77749493989125
C         3.16847666505922    1.41940199556881    0.56136249615048
C         2.31866491805165    2.57848632087117    0.57028304464589
C         1.56175850387041    2.57169307564961    1.79384740594581
C         1.93521592565603    1.40899382909095    2.54422950290788
C         2.93144257856165    0.68659120950121    1.80131429310956
C        -0.37821623584885    3.44360412439982    0.57712575575661
C        -1.74583800142504    2.99777425104584    0.57643862607077
C        -1.98663982055429    2.27658288880534    1.79624794788117
C        -0.74681545100106    2.27713561821376    2.56495484751725
C         0.23667914142983    2.99474963363945    1.80171847234547
C        -3.37655370829889    0.72019985888443    0.57688205409500
C        -3.37614645528608   -0.71883958146581    0.57711396822483
C        -2.79141016763747   -1.16576975398350    1.79989959605262
C        -2.64411420584268    0.00123543432312    2.75616928845629
C        -2.79016667992008    1.16693523261843    1.79881863326582
C        -1.74445750439576   -2.99541582763740    0.57766600086089
C        -0.37418409059513   -3.43414112147144    0.58050202331544
C         0.23629967295380   -2.98602442995174    1.79740599513574
C        -0.74706676903681   -2.27284419777118    2.56591241479481
C        -1.98836006736061   -2.27630035146045    1.79792036674581
C        -0.24625756954552   -2.98986040963863   -1.82574758602188
C         0.74304690265979   -2.26928368837720   -2.58144564782828
C         1.96914936647590   -2.26378865338009   -1.83136187612722
C         1.73431114927291   -2.99423825763260   -0.59068963919514
C         0.36574461073052   -3.43216806834419   -0.59734033803204
C         2.77537817658444   -1.15609795933972   -1.82839025758182
C         2.38256526001194    0.00184275186940   -2.56420883886732
C         2.76084146551471    1.16587297593250   -1.80746102254411
C         3.39034601841566    0.73094678066063   -0.60269572084805
C         3.68172045330003   -0.75462906355423   -0.68204529725179
C         1.95148942546800    2.29883581418492   -1.82399705948471
C         0.72745028734557    2.30043874645697   -2.59056012857838
C        -0.26318577628217    3.02012962502600   -1.83490136622181
C         0.35053889987733    3.46138408824281   -0.60448078168678
C         1.72162187297758    3.01933151629367   -0.60818731361332
C        -1.58471803725127    2.59081594795156   -1.83861434572268
C        -1.96150131179142    1.42298612451645   -2.59945257465523
C        -2.94802456286324    0.69721792308080   -1.84047955960009
C        -3.17405551715628    1.41692636477247   -0.61150498376667
C        -2.33929656185167    2.58232964734164   -0.61304536374236
C        -2.94394331893856   -0.69057007130396   -1.84100299520411
C        -1.95405663268621   -1.40961130641778   -2.59833535031758
C        -1.57110757255463   -2.57472549079061   -1.83597410523451
C        -2.33241464560380   -2.57565012909485   -0.61302493641389
C        -3.16962609026914   -1.41404400495822   -0.61156133388245
C        -1.00066215550633   -0.71289434710232   -3.33066565981274
C        -1.00389997635376    0.73089777803831   -3.32969204827603
C         0.36559461297297    1.17846518065763   -3.32268933140881
C         1.21007493473299    0.00962274181102   -3.31510651049229
C         0.36999732582998   -1.15185559647574   -3.32426278764951
Cl       -1.61274458729952   -0.00397203195079    5.36899560151945
Cl       -4.11403505708763    0.00354530438786    3.81613608371972
Cl        4.91602135957111   -2.39486582664773    1.23515725763038
Cl        5.38599929751385   -0.92731947093313   -1.27319445597353
64
 energy: -146.700553697361 gnorm: 0.002236617976 xtb: 6.4.1 (a3dbbd7)
C        -1.31535114573266    0.00212632455965    3.58225508334359
C        -0.39262930475380   -1.16326315145396    3.28581180278402
C         0.96053920263629   -0.70965182451710    3.25847142162350
C         0.96034009486177    0.72169494683752    3.26747651020532
C        -0.39379204277043    1.17014577694773    3.29116096384539
C         2.32567419617947   -2.57311156343611    0.57134527315907
C         3.43146465861138   -1.53890934665632    0.64855000707644
C         2.93444198914745   -0.68274005962489    1.79633126412290
C         1.93206466148550   -1.39111350589834    2.52503557739018
C         1.56242241204599   -2.55384529779138    1.77651852691692
C         3.16867086084987    1.41816951365054    0.56002887853473
C         2.31769723130381    2.57583928107293    0.56865944982978
C         1.56110795216038    2.56892650044919    1.79202509023431
C         1.93370899345307    1.40696942535170    2.54251109061300
C         2.93094606860880    0.68539494479178    1.80054908518249
C        -0.37906539359106    3.44102044228443    0.57700844319135
C        -1.74635920286393    2.99557169487412    0.57634764905199
C        -1.98789749940741    2.27573345385273    1.79643841256667
C        -0.74761059335317    2.27616899098508    2.56487614007728
C         0.23634600850849    2.99152840845139    1.80059019877864
C        -3.37721014725726    0.72025143047992    0.57732671633305
C        -3.37661843269900   -0.71815128341107    0.57752824828268
C        -2.79244559000743   -1.16508422854847    1.80056723563984
C        -2.64443548255904    0.00146530739590    2.75682503593163
C        -2.79167050062943    1.16691869525676    1.79967630893120
C        -1.74431832632986   -2.99217042013766    0.57764510506724
C        -0.37436461875734   -3.43070915795424    0.58065546811454
C         0.23653591093821   -2.98306240800709    1.79663583983370
C        -0.74701805614878   -2.27141214405897    2.56593879796947
C        -1.98915868996961   -2.27471709487396    1.79820020301765
C        -0.24510751073574   -2.98752279862715   -1.82514847037802
C         0.74389950171448   -2.26731806890128   -2.58084126146760
C         1.97028050333718   -2.26278771485800   -1.83179685951369
C         1.73499161519398   -2.99313655005823   -0.59082450499970
C         0.36597361331815   -3.42884470056687   -0.59643430010389
C         2.77695045806779   -1.15607035769250   -1.82920794768520
C         2.38328680282665    0.00176583689070   -2.56467434111918
C         2.76122093129952    1.16524937871779   -1.80806309020819
C         3.39121510679983    0.73036248001573   -0.60357186595636
C         3.68225260125708   -0.75502473871767   -0.68214109502338
C         1.95119138825987    2.29732944377556   -1.82409941805480
C         0.72738645929084    2.29946129304404   -2.59037362452041
C        -0.26382835421360    3.01889513176007   -1.83515703408910
C         0.34943850230090    3.45871048312650   -0.60444279003106
C         1.72056528518091    3.01707245208635   -0.60877381992550
C        -1.58485762937755    2.58989601886642   -1.83873845519680
C        -1.96160958576364    1.42287843233116   -2.59998947776705
C        -2.94779702142211    0.69751592226596   -1.84005213208671
C        -3.17398026989661    1.41650277894472   -0.61087867352047
C        -2.33922424995714    2.58111887197608   -0.61302505917708
C        -2.94333983148948   -0.68988472617917   -1.84039162355573
C        -1.95345662501434   -1.40833636360837   -2.59830377559945
C        -1.56963895784243   -2.57232974954302   -1.83540678182150
C        -2.33149086513168   -2.57322067861244   -0.61286439895750
C        -3.16900414038492   -1.41268675633588   -0.61097323574786
C        -1.00040616762223   -0.71207200947469   -3.33046210558485
C        -1.00417425611724    0.73131007758450   -3.33003610773142
C         0.36572879826814    1.17797794285192   -3.32272513540057
C         1.21063220301772    0.00962030749113   -3.31481873665944
C         0.37031246335045   -1.15093988112283   -3.32381152043121
Cl       -1.61745657552484   -0.00412247452308    5.36842163657373
Cl       -4.11009101268967    0.00288172769399    3.82209280206193
Cl        4.91821710507912   -2.39348178885552    1.23239678192373
Cl        5.38776786380484   -0.93056158722928   -1.26785041276104
64
 energy: -146.700557885298 gnorm: 0.000776121621 xtb: 6.4.1 (a3dbbd7)
C        -1.31563100133769    0.00211905752433    3.58212298550866
C        -0.39257955485893   -1.16338792712827    3.28588779910077
C         0.96041202630203   -0.70976416610157    3.25849880738508
C         0.96013157458519    0.72157351628247    3.26718742325337
C        -0.39356630306695    1.17017108914120    3.29079465953066
C         2.32521138817683   -2.57303403508005    0.57133682284104
C         3.43134269942440   -1.53864103885750    0.64820735696977
C         2.93451111768140   -0.68266424685880    1.79651854391242
C         1.93219131304198   -1.39100056810107    2.52502835785576
C         1.56235835145197   -2.55353927988463    1.77632270633938
C         3.16881336475676    1.41830816852865    0.56017061584226
C         2.31776536007609    2.57585277447824    0.56869678708836
C         1.56100388405378    2.56866824472037    1.79203471504977
C         1.93371510274983    1.40697275215540    2.54251682022412
C         2.93105186178552    0.68541701248360    1.80042917502207
C        -0.37909033116328    3.44087287238926    0.57699107769644
C        -1.74638264077587    2.99555670397231    0.57640576955645
C        -1.98790486208714    2.27586344534744    1.79665382321705
C        -0.74778310761234    2.27634667758821    2.56492609192982
C         0.23636737383997    2.99152818273694    1.80070060243567
C        -3.37706259758752    0.72032855533919    0.57748587901449
C        -3.37646233642937   -0.71819480943223    0.57767006650917
C        -2.79240677654843   -1.16509260412418    1.80032601479505
C        -2.64437626764318    0.00143496079001    2.75700893149119
C        -2.79169478406728    1.16697378372275    1.79948253746816
C        -1.74436434683204   -2.99217594955716    0.57772950208055
C        -0.37426310600434   -3.43047241797329    0.58074961894331
C         0.23650559498448   -2.98306655076785    1.79667191948461
C        -0.74720569439224   -2.27138241679606    2.56598590479124
C        -1.98920448162504   -2.27490077839904    1.79831957104156
C        -0.24510120172371   -2.98739554221911   -1.82509117821806
C         0.74392502115883   -2.26734831107459   -2.58083734392283
C         1.97037052960678   -2.26302088679709   -1.83177577075137
C         1.73503413909390   -2.99328237154860   -0.59101373910161
C         0.36599100341483   -3.42890815859073   -0.59635268485985
C         2.77679540618486   -1.15604220893884   -1.82936052398092
C         2.38330882864921    0.00157517027756   -2.56455330007291
C         2.76125516019264    1.16517460526554   -1.80787006772514
C         3.39100619456594    0.73052449614353   -0.60361616623415
C         3.68214264276286   -0.75509061531665   -0.68192277609009
C         1.95125955182532    2.29730768232507   -1.82399400933690
C         0.72722400416916    2.29936539578709   -2.59031987451613
C        -0.26385022792186    3.01866943986279   -1.83505557204635
C         0.34941170392221    3.45854270492123   -0.60431642422492
C         1.72060074377488    3.01678434719747   -0.60883502945041
C        -1.58487086237446    2.58977685583604   -1.83868035229048
C        -1.96159009335221    1.42289136556646   -2.59989067475383
C        -2.94772266529403    0.69749806084934   -1.84008511395285
C        -3.17406117696877    1.41658351392825   -0.61077761344653
C        -2.33929405605339    2.58088656444591   -0.61284643532131
C        -2.94317156430233   -0.68978696777223   -1.84044854272735
C        -1.95331751454572   -1.40820055619967   -2.59816171240948
C        -1.56951175183688   -2.57225267163639   -1.83528215229800
C        -2.33150099231313   -2.57295090569639   -0.61270569249738
C        -3.16897773456966   -1.41273775239350   -0.61087244811943
C        -1.00032902548771   -0.71200242153210   -3.33039872467098
C        -1.00411221599846    0.73124368602497   -3.32999438671890
C         0.36567577630205    1.17798388262976   -3.32268184296616
C         1.21074109248596    0.00951466624200   -3.31487513948975
C         0.37053822248920   -1.15083667166764   -3.32366926522156
Cl       -1.61799207363418   -0.00335086223155    5.36778552895261
Cl       -4.10982586371876    0.00254504974510    3.82198812562724
Cl        4.91863553409009   -2.39286483537827    1.22968638486851
Cl        5.38777400767242   -0.93127547080496   -1.26601337527773
64
 energy: -146.700552686366 gnorm: 0.001674596202 xtb: 6.4.1 (a3dbbd7)
C        -1.31603980531757    0.00210814578720    3.58192300120967
C        -0.39250731942244   -1.16356779325497    3.28599659622173
C         0.96022543126968   -0.70992701485920    3.25853828228808
C         0.95982587703090    0.72139798915247    3.26676659145769
C        -0.39323804485796    1.17020876540159    3.29026315212875
C         2.32453305717596   -2.57292374113679    0.57132176242406
C         3.43113992337652   -1.53823297358257    0.64769569770481
C         2.93460863554971   -0.68254794370242    1.79679174941700
C         1.93237552213189   -1.39083317265764    2.52501654430697
C         1.56226342457513   -2.55309128534662    1.77603489543854
C         3.16901940479380    1.41851281337400    0.56038000826608
C         2.31786457344335    2.57587597011802    0.56875419128365
C         1.56085256888670    2.56829441693778    1.79205194421814
C         1.93372329754126    1.40698136176628    2.54253015750832
C         2.93120330098616    0.68545346743030    1.80025653216466
C        -0.37912583341052    3.44065751706157    0.57696792138123
C        -1.74641423854448    2.99553299080260    0.57649158155332
C        -1.98791274091118    2.27605000295036    1.79696876513746
C        -0.74803397084763    2.27660503216222    2.56499949633915
C         0.23639832621942    2.99152951113466    1.80086400418308
C        -3.37684321522193    0.72043941689975    0.57771808653597
C        -3.37623204453115   -0.71825909722818    0.57787720722681
C        -2.79235102745256   -1.16510404041992    1.79997544344202
C        -2.64429080409974    0.00139149242565    2.75727636403644
C        -2.79172644644860    1.16705137539097    1.79919865453012
C        -1.74443258522149   -2.99218420004249    0.57785361602676
C        -0.37411744115887   -3.43012865751385    0.58088879887647
C         0.23646118253203   -2.98307350200159    1.79672536211161
C        -0.74747946139379   -2.27133690447239    2.56605358172387
C        -1.98927098681466   -2.27516635081151    1.79849440491389
C        -0.24509406138027   -2.98721309766295   -1.82500774902857
C         0.74395902995607   -2.26739548539734   -2.58083199950488
C         1.97049685607851   -2.26336333709301   -1.83174363997479
C         1.73509021688226   -2.99349692185759   -0.59129003290953
C         0.36601240695174   -3.42900399745205   -0.59623361510747
C         2.77656262979536   -1.15600371377050   -1.82958159889283
C         2.38334021778605    0.00129562018442   -2.56437327513412
C         2.76130543895330    1.16506490412371   -1.80758489670267
C         3.39070218470923    0.73076386552608   -0.60367729926829
C         3.68196217446652   -0.75518471957230   -0.68160040599542
C         1.95136139230334    2.29727549601041   -1.82383803969782
C         0.72698826998994    2.29922310620557   -2.59023776566533
C        -0.26387988123248    3.01833835522974   -1.83490504111019
C         0.34937423342652    3.45829783232210   -0.60413048564280
C         1.72065378960634    3.01636509738884   -0.60892260773989
C        -1.58488756406875    2.58960068172346   -1.83859286377209
C        -1.96155821412065    1.42290852847333   -2.59974450168306
C        -2.94760950313303    0.69747108323111   -1.84013142343971
C        -3.17417688143908    1.41669938491925   -0.61062941552622
C        -2.33939281116107    2.58054492009747   -0.61258419844592
C        -2.94292217960800   -0.68964483515806   -1.84053047713726
C        -1.95311292619093   -1.40800332181469   -2.59795371207565
C        -1.56932797771914   -2.57214193697633   -1.83509997791483
C        -2.33151641506015   -2.57255797936282   -0.61247334699283
C        -3.16893879684199   -1.41281240825877   -0.61072459790363
C        -1.00021410723470   -0.71190202300838   -3.33030523700494