63
 energy: -142.064229788295 gnorm: 0.136564497442 xtb: 6.4.1 (a3dbbd7)
C        -1.32333194775417    0.00617886347970    3.59125188963251
C        -0.38909456310608   -1.27772716531095    3.58793274117145
C         0.98734837171535   -0.72675165446744    3.28582848483634
C         0.97037352147027    0.69420630050098    3.25749094477592
C        -0.37633960723915    1.14742685553706    3.29074190055216
C         2.33092254703306   -2.58746567485154    0.56610397604514
C         3.16875994483946   -1.41579758165486    0.56774606192583
C         2.91978889080344   -0.69314490348597    1.79074016083681
C         1.93018806170321   -1.40549148670748    2.54814074589443
C         1.57476788296703   -2.59634073810083    1.79100274817011
C         3.18328087896891    1.41909085132624    0.57258499213333
C         2.33432229320876    2.58580968143883    0.57559918777772
C         1.57332139543398    2.57095369604789    1.79851755002390
C         1.94352282881158    1.40414426944103    2.54285112768194
C         2.93804115459266    0.69543633516321    1.79366637265872
C        -0.36752716666001    3.44413435035873    0.58029879258012
C        -1.74013210357057    3.00741588983283    0.58054459941955
C        -1.97818665379860    2.28654468588757    1.80361199533287
C        -0.73393250395930    2.25581684802015    2.55761528373596
C         0.24647420110131    2.98080949443068    1.80023381740862
C        -3.39591089216029    0.72883802558845    0.57533866561121
C        -3.37932885665645   -0.70504006359254    0.57786353554246
C        -2.74934612856665   -1.12865052488571    1.82052481704193
C        -2.40026274086307   -0.01382700939334    2.55826017594831
C        -2.77435746218519    1.16021035149421    1.80187148511327
C        -1.70577977915925   -3.00504292266898    0.57191390059864
C        -0.34657433486683   -3.46193150719564    0.56452064530943
C         0.25810980605866   -3.00738238851431    1.79111395103090
C        -0.74203335365356   -2.29289841924391    2.55243835495534
C        -1.91196172287597   -2.27950749485726    1.81757326885181
C        -0.23558165862281   -3.01371296632646   -1.83961821271520
C         0.75175047781152   -2.28700579367404   -2.59867644532734
C         1.98089777627659   -2.28868303835222   -1.84308617931945
C         1.74918768154887   -3.01946296828987   -0.62050040464920
C         0.38088379041600   -3.46658963937948   -0.62079308111870
C         2.79204993046375   -1.16413556659148   -1.83875967224219
C         2.41002754086118    0.00666527739579   -2.59106683151125
C         2.78807241943814    1.16926264052202   -1.83130610074559
C         3.40298548527550    0.72369088805355   -0.60835037131266
C         3.40110069057525   -0.71955382898331   -0.60923004493565
C         1.96912615256614    2.29475463280888   -1.82840259178522
C         0.74474441569639    2.29528025280401   -2.58515694980539
C        -0.24988429155059    3.01642431380723   -1.82795956514323
C         0.36353023978106    3.45499162487799   -0.59844520421847
C         1.73735095077191    3.01278425815446   -0.60243935985793
C        -1.56944867307335    2.59059487249377   -1.83048045584010
C        -1.94787757007795    1.42311330884846   -2.58910001301826
C        -2.94122296022124    0.70465889669871   -1.83002690890673
C        -3.17947337159538    1.42642572884929   -0.60816005298080
C        -2.33307692209202    2.59081264516620   -0.60600270171083
C        -2.93172079240255   -0.68656028280689   -1.82266620418654
C        -1.94059925011627   -1.40887980593779   -2.58138532694875
C        -1.55636984787224   -2.57670213587000   -1.82754179967090
C        -2.29848528094837   -2.57416283302738   -0.59738768824741
C        -3.15456863482430   -1.39758782868201   -0.59434922362650
C        -0.98936986995949   -0.71482485845558   -3.31408037280858
C        -0.99159024528376    0.72723605185279   -3.31429029098428
C         0.38014149579772    1.17201579903766   -3.31523274930469
C         1.22728121177112    0.00778684511203   -3.31823795360647
C         0.38205649969615   -1.16057927312445   -3.31917058806611
Cl       -2.09995733548554    0.29360223981566    5.20530702406437
Cl       -0.35034641589922   -2.11046483688082    5.19906768498811
Cl        3.54220157306082   -3.89454118546957    0.88305307392659
63
 energy: -142.087751616205 gnorm: 0.059881283853 xtb: 6.4.1 (a3dbbd7)
C        -1.32539940078254    0.00845587566210    3.59400154346610
C        -0.39166174849682   -1.27529250900153    3.59323276638821
C         0.98358287679275   -0.72173942703127    3.29100480768284
C         0.96832877125245    0.69739527555366    3.25928983171135
C        -0.37845046574577    1.14968558599529    3.29252453367259
C         2.40262841685816   -2.66307298421687    0.58681953329834
C         3.16604094605727   -1.39833695625982    0.56878815888939
C         2.91342082878870   -0.68597515424853    1.78604916187100
C         1.92353626348334   -1.39912354811830    2.54631024096637
C         1.56413795686268   -2.58664278923974    1.80048169152077
C         3.18510154104120    1.42705949553504    0.57481026384627
C         2.33449639814271    2.59077272517387    0.57708138202598
C         1.57291817225522    2.57537682236783    1.79985875806971
C         1.94260830045080    1.40834888085990    2.54377852847624
C         2.93815624973690    0.70409924522830    1.79427264361563
C        -0.36823771983471    3.44490051104260    0.58071470942770
C        -1.74081245179976    3.00819130488426    0.58178938082854
C        -1.97848659074384    2.28849113825166    1.80396703694605
C        -0.73517278224378    2.25741134425405    2.55771613051727
C         0.24582256749300    2.98278151168870    1.80059703508149
C        -3.39467094542474    0.72741615919421    0.57499505791545
C        -3.38014096238653   -0.70554488989254    0.57701686921142
C        -2.74879956099493   -1.12741263875860    1.81837078041584
C        -2.39975482659870   -0.01204590583990    2.55844427949326
C        -2.77357204617900    1.15958343394775    1.80261248827177
C        -1.70612364490429   -3.00252953602428    0.56964833633744
C        -0.35106722720194   -3.45382039663083    0.56033404012269
C         0.25311388271940   -2.99304803870656    1.79228387814591
C        -0.74569725811367   -2.29036086467982    2.55804790945405
C        -1.91152667774008   -2.27611804940348    1.81548197593052
C        -0.24528140024236   -3.01236143785840   -1.85265033048271
C         0.74127098791254   -2.28629458019526   -2.60881090351500
C         1.96639010517655   -2.28413488356256   -1.84387200310196
C         1.74202945580216   -3.03080340018735   -0.64174235939048
C         0.37516946220796   -3.45355903890970   -0.62988091157942
C         2.78666467378920   -1.15975284138406   -1.84029470599312
C         2.40802523076323    0.00706402875116   -2.59035436931949
C         2.78670044351160    1.17172587644545   -1.83060280509652
C         3.40378674985903    0.73168714665393   -0.60756108971829
C         3.39087574002137   -0.70879450910351   -0.60621800211001
C         1.96800803111200    2.29606337543075   -1.82775698366394
C         0.74333547354427    2.29669185259583   -2.58536196006574
C        -0.25032935536888    3.01633633069993   -1.82837480275095
C         0.36311737849160    3.45532657246919   -0.59809568694096
C         1.73669071093387    3.01475071501699   -0.60189146572176
C        -1.57040635813351    2.59059695875765   -1.82992322673590
C        -1.94922764186414    1.42381326952355   -2.58967328846449
C        -2.94260152188213    0.70502758784761   -1.83099891242396
C        -3.17919730273274    1.42628774326070   -0.60805355494851
C        -2.33351854235268    2.59027328982596   -0.60605354113765
C        -2.93462886877795   -0.68540239722789   -1.82522923463748
C        -1.94570666340811   -1.40668241403382   -2.58696076420411
C        -1.56436476000016   -2.57587143835274   -1.83508959218437
C        -2.30481071312488   -2.57392879075030   -0.60333025174654
C        -3.15664881840527   -1.39905043470343   -0.59737733415108
C        -0.99413523440291   -0.71248992301732   -3.31916856687028
C        -0.99392665428244    0.72908313099597   -3.31632741470443
C         0.37861788950812    1.17257959646105   -3.31640066515051
C         1.22377458614417    0.00920428552122   -3.32109586798195
C         0.37659315723012   -1.15828411657199   -3.32645590882064
Cl       -2.10066291621287    0.29528011459727    5.20862294795068
Cl       -0.34854223426862   -2.10815740962622    5.20401067066062
Cl        3.63755722012394   -3.99845948289285    0.92209574238214
63
 energy: -142.093841190642 gnorm: 0.014017531681 xtb: 6.4.1 (a3dbbd7)
C        -1.32863999110820    0.01212473621649    3.59614875385931
C        -0.39351874325405   -1.27080521666256    3.59316846060905
C         0.98082045239324   -0.71965013402168    3.28960056984588
C         0.96535331529964    0.69882585538245    3.25841512521090
C        -0.38096360083837    1.15296955174207    3.29386789314030
C         2.46876429329749   -2.73149194862735    0.60706421805789
C         3.16972266667181   -1.39853205636070    0.57004807302573
C         2.90619913531363   -0.68768109419714    1.77617870791298
C         1.91722176322565   -1.39992807075215    2.53813559835826
C         1.56520250852056   -2.58862270139897    1.80513917098402
C         3.18084350442003    1.42954702507245    0.57592820913958
C         2.33350799931136    2.59536476655441    0.57807671845105
C         1.57087764131658    2.57895112306556    1.80048126047231
C         1.94012803614486    1.41002350707471    2.54241017692983
C         2.93372971994040    0.70563033390680    1.79160918308629
C        -0.37052052378763    3.44722209681440    0.58095306762790
C        -1.74299371563599    3.01048632838622    0.58242932197745
C        -1.97987597155572    2.29155257715093    1.80390346945320
C        -0.73763376638904    2.26052109325299    2.55811641205696
C         0.24369343152224    2.98578943683469    1.80075735826560
C        -3.39499618603136    0.72801075251320    0.57411854264678
C        -3.38152020643476   -0.70379986785896    0.57616146971779
C        -2.74927375353502   -1.12527061288982    1.81691051797607
C        -2.40126220526660   -0.00885601432765    2.55898963365769
C        -2.77370675761501    1.16025217458630    1.80266287682696
C        -1.70207117741898   -2.99727834684400    0.56699115091504
C        -0.35182699914153   -3.45068223238090    0.55851652154278
C         0.25835276386919   -2.98631066164091    1.79158910581241
C        -0.74213933656833   -2.28339191922745    2.55466361232415
C        -1.90886941648630   -2.27015016670826    1.81172207497716
C        -0.24817305659032   -3.00660522467007   -1.85427538603446
C         0.73641522556135   -2.28170507940576   -2.60816781458121
C         1.96010782597466   -2.28161340917429   -1.83588369832614
C         1.73828754449921   -3.02776838608364   -0.64614100777908
C         0.37927228729866   -3.44249732170948   -0.62999330521114
C         2.78593609225609   -1.15856145344559   -1.84214792025082
C         2.40422873598180    0.00570875607808   -2.58785925734744
C         2.78203979683809    1.17244999914116   -1.82910854233465
C         3.39538187736315    0.73049602144748   -0.60520695425039
C         3.38583355240930   -0.71017179020939   -0.60141806759386
C         1.96525578874127    2.29748308875459   -1.82720152021474
C         0.74018699686734    2.29928904060392   -2.58565179335007
C        -0.25248587103759    3.01754358012535   -1.82890441617974
C         0.36124174318427    3.45675748767366   -0.59781731213296
C         1.73457441453988    3.01750618735435   -0.60151893314954
C        -1.57297785989140    2.59238325664089   -1.82982958310497
C        -1.95204849406378    1.42615875946720   -2.59069581549507
C        -2.94540753686581    0.70700425651539   -1.83212673082383
C        -3.18074812111355    1.42826205503637   -0.60838243132997
C        -2.33528704167676    2.59137273257360   -0.60637332187025
C        -2.93854872143949   -0.68289865915487   -1.82774296917891
C        -1.95084896695463   -1.40432462590358   -2.59141931593598
C        -1.56808675714359   -2.57246631210340   -1.83778139809376
C        -2.30934667771448   -2.57155447974900   -0.60715378551861
C        -3.15842867544551   -1.39843671057450   -0.59942806078107
C        -0.99893387776840   -0.70975944337845   -3.32357310989531
C        -0.99767835433072    0.73198894577757   -3.31855815889142
C         0.37590414419268    1.17420422554386   -3.31714150399612
C         1.21967634691906    0.01181876352014   -3.32282278881164
C         0.37241141124294   -1.15493784221822   -3.32821036315138
Cl       -2.10320631300846    0.29831634274725    5.21095099462296
Cl       -0.35119410826965   -2.10351330409130    5.20385955441542
Cl        3.71097894268015   -4.08007937372056    0.94241407269619
63
 energy: -142.094163836576 gnorm: 0.008503907586 xtb: 6.4.1 (a3dbbd7)
C        -1.32930543849022    0.01342795665482    3.59572358709883
C        -0.39333315291864   -1.26959280890835    3.59203615662438
C         0.98063975126344   -0.71967097277612    3.28736360963016
C         0.96373166851109    0.69881733587556    3.25643428591568
C        -0.38196202876951    1.15456300898942    3.29366821691637
C         2.48538951091387   -2.74760364644342    0.61334304841487
C         3.17643655343510   -1.40555471208613    0.57159099252724
C         2.90508531180800   -0.69043175158256    1.77329063091911
C         1.91652963947213   -1.40232772493976    2.53560725398500
C         1.57165109244296   -2.59611147069649    1.80747732299542
C         3.17781689969427    1.42895314247591    0.57595323908132
C         2.33234705145417    2.59673369768143    0.57807994993358
C         1.56953589491700    2.58027703889977    1.80028575379064
C         1.93815945132360    1.40986795681763    2.54070262013209
C         2.93033510689735    0.70406016946529    1.78996044633509
C        -0.37188947976880    3.44913759331230    0.58088824840985
C        -1.74434692666143    3.01206616921845    0.58232110325720
C        -1.98102908575434    2.29350301035595    1.80386900386350
C        -0.73893959716284    2.26243642636925    2.55825090111587
C         0.24249070386238    2.98782596824809    1.80074683777125
C        -3.39564502041338    0.72908947234037    0.57359031439638
C        -3.38224671177107   -0.70232162949179    0.57574896622431
C        -2.74912787048418   -1.12378926638428    1.81628580943356
C        -2.40194838549785   -0.00690195480789    2.55874483310279
C        -2.77436376798857    1.16145442217566    1.80246268508942
C        -1.70042671661043   -2.99509301230217    0.56615557303087
C        -0.35201935017929   -3.45174840307114    0.55909356496530
C         0.26276254080602   -2.98816397166837    1.79179501056691
C        -0.73873962028924   -2.27989051180521    2.55105618079942
C        -1.90677723758509   -2.26687627377157    1.80975509978678
C        -0.24759761631998   -3.00349856513005   -1.85149529212304
C         0.73619583458289   -2.27909940084615   -2.60477385855295
C         1.96137860117732   -2.28209836052536   -1.83172924236813
C         1.73951985436699   -3.02489023919931   -0.64231965792823
C         0.38264695430939   -3.44115379353758   -0.62748286544509
C         2.78769824487158   -1.15873570286541   -1.84322602201532
C         2.40286039757140    0.00499397668609   -2.58690922323944
C         2.77893434243725    1.17162397693920   -1.82754571428462
C         3.39055841186132    0.72762441302498   -0.60354155569501
C         3.38753169083170   -0.71397319793649   -0.59977895269374
C         1.96347369182508    2.29759961327993   -1.82662095969119
C         0.73863018938038    2.30048165466077   -2.58572158852861
C        -0.25382263503917    3.01863161901223   -1.82923608750514
C         0.35996341083001    3.45821307734011   -0.59790464296325
C         1.73296596600083    3.01862614994612   -0.60142950914815
C        -1.57442387834705    2.59362069578907   -1.83019730919457
C        -1.95347612576999    1.42738040446371   -2.59143265378376
C        -2.94697727543641    0.70810656147911   -1.83278627980695
C        -3.18196676107367    1.42963903879451   -0.60887318890412
C        -2.33643575990011    2.59244277294502   -0.60672800825053
C        -2.94033614507199   -0.68182328948184   -1.82859141577105
C        -1.95236431739948   -1.40351769263683   -2.59222328804827
C        -1.56828871716230   -2.57075438921076   -1.83729724967105
C        -2.31041508453326   -2.57021437512556   -0.60749265523162
C        -3.15919991023599   -1.39742662370501   -0.59972043231178
C        -1.00032141847761   -0.70887784626235   -3.32436830824298
C        -0.99919031927102    0.73313247631509   -3.31942418219999
C         0.37477169303780    1.17500592563916   -3.31714613647514
C         1.21834934263920    0.01292941682561   -3.32270051281014
C         0.37136265420856   -1.15378308954975   -3.32705103260904
Cl       -2.10349388559504    0.29957967459617    5.21044377759933
Cl       -0.35332172224446   -2.10418877992582    5.20193942235790
Cl        3.72291667890489   -4.09506096187934    0.94052999040384
63
 energy: -142.094273306119 gnorm: 0.004670400789 xtb: 6.4.1 (a3dbbd7)
C        -1.32954960092845    0.01408658813579    3.59556458261982
C        -0.39320772981986   -1.26901792102810    3.59122764417530
C         0.98058304721683   -0.71939505039406    3.28610104959142
C         0.96279681403334    0.69889111105356    3.25502693648233
C        -0.38239223914710    1.15545027025577    3.29361800586954
C         2.49283283760355   -2.75459066598759    0.61645285408540
C         3.17999928931026   -1.40997491951115    0.57223461291831
C         2.90384250938486   -0.69154899436625    1.77142547722420
C         1.91561246061138   -1.40315954507049    2.53400326321331
C         1.57557412452833   -2.60072786586039    1.80839528934896
C         3.17639847867790    1.42884780598144    0.57576527244158
C         2.33193043773383    2.59776900576396    0.57796661358847
C         1.56908294945917    2.58128400990561    1.80007579257505
C         1.93696899495673    1.40984594084447    2.53951990020897
C         2.92781608812117    0.70321178005461    1.78877338514997
C        -0.37233352023635    3.45016365751337    0.58083444768665
C        -1.74473873556773    3.01263702406496    0.58229169713750
C        -1.98142694022970    2.29438958158518    1.80398213313000
C        -0.73944949393114    2.26353882642179    2.55849870802601
C         0.24211261166277    2.98915272088028    1.80083432949351
C        -3.39582198963245    0.72943317675441    0.57347076132781
C        -3.38265157437828   -0.70171259173534    0.57569872518640
C        -2.74918111641226   -1.12322705364097    1.81630615527742
C        -2.40236446695915   -0.00597519638133    2.55883573041142
C        -2.77461254239547    1.16193112011631    1.80256339778964
C        -1.70011884091839   -2.99447034372848    0.56599008252310
C        -0.35300051484528   -3.45308615758393    0.55982592997121
C         0.26494427987022   -2.98895999382174    1.79161343527996
C        -0.73695096120002   -2.27762033489509    2.54877511307186
C        -1.90575515699784   -2.26515360008516    1.80883472295717
C        -0.24703182331305   -3.00157705670000   -1.84931581692589
C         0.73627219420109   -2.27753347225156   -2.60223386395342
C         1.96267594310937   -2.28225204485258   -1.82896727598453
C         1.73978840270725   -3.02141077577200   -0.63871564272119
C         0.38451916670960   -3.44067020444858   -0.62533066430715
C         2.78928314916120   -1.15846819766549   -1.84443600553825
C         2.40275423200015    0.00472321907856   -2.58688643964609
C         2.77736417550353    1.17103258198764   -1.82663456900735
C         3.38796044887402    0.72601857649489   -0.60247045567297
C         3.38837472738482   -0.71589973927997   -0.59903689610046
C         1.96292330141151    2.29765034066869   -1.82642678776230
C         0.73820893413805    2.30096367774134   -2.58583284951885
C        -0.25416461474602    3.01904485273561   -1.82948311995520
C         0.35956927647717    3.45908755280528   -0.59803585469237
C         1.73227966879807    3.01924912084611   -0.60149624466932
C        -1.57473553447412    2.59388885639010   -1.83035636841998
C        -1.95372567471514    1.42754705515909   -2.59171399890413
C        -2.94736042434241    0.70823315106572   -1.83294623071542
C        -3.18226013231816    1.43002876509950   -0.60903108411523
C        -2.33658115537734    2.59258453997324   -0.60684297400025
C        -2.94100160605595   -0.68171768576676   -1.82879387945037
C        -1.95268229046864   -1.40352928021185   -2.59222840137615
C        -1.56820331061760   -2.57029203491732   -1.83670673572751
C        -2.31111923970144   -2.56999811100167   -0.60727591850764
C        -3.15956875662198   -1.39716515946999   -0.59953638719121
C        -1.00052738628277   -0.70887641550751   -3.32438912606533
C        -0.99948740373142    0.73330387791536   -3.31978626562504
C         0.37466667728829    1.17517616313361   -3.31716990622574
C         1.21813360992663    0.01343345191357   -3.32272802889974
C         0.37123866261431   -1.15351745677065   -3.32629495553821
Cl       -2.10254173445274    0.29848484217155    5.21085517211903
Cl       -0.35636149766966   -2.10501531369326    5.20049029968639
Cl        3.72333768842811   -4.09786966404818    0.93469783763093
63
 energy: -142.094311546293 gnorm: 0.002487315220 xtb: 6.4.1 (a3dbbd7)
C        -1.32991463177755    0.01433996099002    3.59617522683354
C        -0.39321386631378   -1.26913411021622    3.59148817939058
C         0.98050552865161   -0.71926558749894    3.28608904901681
C         0.96241278458683    0.69885825313203    3.25479580366486
C        -0.38260136038438    1.15555440670421    3.29374374414243
C         2.49473912997073   -2.75643690069862    0.61723031438410
C         3.18027828344399   -1.41095406759887    0.57224484887968
C         2.90290694757766   -0.69147270184077    1.77075109479766
C         1.91479092950830   -1.40292697751062    2.53337753371621
C         1.57644629978690   -2.60176366455459    1.80830699682458
C         3.17626780208158    1.42904374409365    0.57577736289920
C         2.33199846571597    2.59821116444418    0.57805726849319
C         1.56910135767524    2.58161368023824    1.80008948165038
C         1.93654568048165    1.40979286920099    2.53930627206750
C         2.92681352228987    0.70307416127018    1.78853260006503
C        -0.37224848968682    3.45023122454845    0.58080434431219
C        -1.74462857155867    3.01251387362737    0.58225418808126
C        -1.98136299300525    2.29442177836407    1.80400298510762
C        -0.73951117484986    2.26367517886846    2.55859458323168
C         0.24214777098492    2.98944771798481    1.80090887584552
C        -3.39565293145158    0.72922609048914    0.57351571962861
C        -3.38266263536866   -0.70180329581094    0.57586258661872
C        -2.74928106173230   -1.12332952902642    1.81670847340665
C        -2.40245385189719   -0.00580533991135    2.55908597133000
C        -2.77450076362204    1.16181604020473    1.80265781669414
C        -1.70044838423032   -2.99482369487402    0.56629135018163
C        -0.35383104729996   -3.45371756398126    0.56028658484831
C         0.26529201815062   -2.98841935127925    1.79128601003094
C        -0.73648279590540   -2.27669786392858    2.54818583153347
C        -1.90561719984474   -2.26487452759292    1.80895558939472
C        -0.24679539732391   -3.00104645032670   -1.84857701361468
C         0.73632315503684   -2.27715723365891   -2.60131286938377
C         1.96305915009108   -2.28198935510053   -1.82775475488881
C         1.73916152740531   -3.01873251952225   -0.63684779294431
C         0.38491431772979   -3.44024460765492   -0.62433831468752
C         2.79002754161225   -1.15807878936070   -1.84504161638498
C         2.40331738514495    0.00473327867737   -2.58716245952147
C         2.77727580609845    1.17087790250884   -1.82636683952686
C         3.38741439739222    0.72570979897766   -0.60197124093865
C         3.38823009099098   -0.71603913648860   -0.59875885224120
C         1.96318119604813    2.29764747435447   -1.82640613987545
C         0.73844639916980    2.30088393341201   -2.58583824953673
C        -0.25395443597931    3.01889624114279   -1.82956751751269
C         0.35970590832371    3.45919246891272   -0.59807951796577
C         1.73227971240345    3.01932240737702   -0.60146060204768
C        -1.57445923836161    2.59357153973145   -1.83035499855462
C        -1.95338653018643    1.42714544894281   -2.59166041365005
C        -2.94705352033157    0.70783957449629   -1.83283160148234
C        -3.18202076242986    1.42978027129933   -0.60901380996417
C        -2.33630555286910    2.59224952926646   -0.60687167303856
C        -2.94084249559627   -0.68208384939554   -1.82861060584672
C        -1.95236935323366   -1.40388917619858   -2.59192160237809
C        -1.56810344299478   -2.57061543809042   -1.83639425597154
C        -2.31139861065366   -2.57041551016468   -0.60691551326694
C        -3.15952202215565   -1.39742531426675   -0.59922855225114
C        -1.00017656734474   -0.70925296289775   -3.32410193380820
C        -0.99916659903600    0.73296536969665   -3.31972804525181
C         0.37504496312880    1.17493633743279   -3.31714084415740
C         1.21849317412604    0.01347085121334   -3.32280302272342
C         0.37155065260812   -1.15374220484079   -3.32612657424669
Cl       -2.10407528784010    0.30232277361118    5.21011849067635
Cl       -0.35456163475489   -2.10933335563271    5.19852720365073
Cl        3.71886848521983   -4.09522386722657    0.92862145724532
63
 energy: -142.094312222789 gnorm: 0.002182352463 xtb: 6.4.1 (a3dbbd7)
C        -1.32939786083885    0.01417404408424    3.59550978043118
C        -0.39324623583400   -1.26858401951626    3.59077892375393
C         0.98086534903748   -0.71891468437188    3.28649740052574
C         0.96278102666802    0.69913899463230    3.25471968762200
C        -0.38223004790098    1.15566594400522    3.29376184417180
C         2.49479438006744   -2.75655125288606    0.61716700085158
C         3.17945950190303   -1.41030468640852    0.57205889813564
C         2.90269216077740   -0.69094336406648    1.77070890788120
C         1.91466639956221   -1.40238834750647    2.53347828892616
C         1.57604278204982   -2.60115794312410    1.80814219550372
C         3.17679232305967    1.42939953209899    0.57564766380301
C         2.33236427039340    2.59843834982712    0.57796845944202
C         1.56946158077287    2.58183881599323    1.79996562496217
C         1.93695466228997    1.41006881215291    2.53928397947763
C         2.92704414159540    0.70339343271923    1.78855242132976
C        -0.37199134333556    3.44997731686129    0.58068968731937
C        -1.74436046359410    3.01218376253180    0.58221401109826
C        -1.98110438944810    2.29415032107244    1.80399937923099
C        -0.73927747943774    2.26372698897518    2.55865098422291
C         0.24242731816173    2.98945335166854    1.80083595050449
C        -3.39548645218500    0.72893157250275    0.57356151135547
C        -3.38266196603098   -0.70209309585014    0.57585744130835
C        -2.74946198766568   -1.12366926672609    1.81682078780394
C        -2.40262556195133   -0.00606603875987    2.55916892292260
C        -2.77444606148606    1.16157333439949    1.80278432326246
C        -1.70088756736910   -2.99555215185081    0.56652179765928
C        -0.35426171399229   -3.45393373364590    0.56054259744089
C         0.26496381702159   -2.98769712455249    1.79121179860338
C        -0.73678162918361   -2.27668863330329    2.54829972623029
C        -1.90591249424594   -2.26526916066468    1.80915815345184
C        -0.24673213677348   -3.00121835509793   -1.84866553039764
C         0.73636176671739   -2.27736513204470   -2.60133119527365
C         1.96292608323631   -2.28159458407836   -1.82742121670054
C         1.73829299885368   -3.01690649400818   -0.63611830269357
C         0.38467805284003   -3.43983034495154   -0.62407274717728
C         2.79026916821998   -1.15778472194890   -1.84524172809463
C         2.40396490282596    0.00479077447757   -2.58751971480826
C         2.77780510046127    1.17095597174805   -1.82659626034391
C         3.38784285504568    0.72598083554707   -0.60200817698535
C         3.38791281560865   -0.71551163057070   -0.59874574598706
C         1.96363451656728    2.29762736248294   -1.82662195991249
C         0.73879399116195    2.30062880680629   -2.58593051909773
C        -0.25364910095789    3.01858064259518   -1.82967429973000
C         0.35998103807357    3.45898778904026   -0.59820008025180
C         1.73255917658145    3.01924771476972   -0.60159625533985
C        -1.57410696486810    2.59316519983248   -1.83035358591620
C        -1.95298659813847    1.42669090843266   -2.59157103370935
C        -2.94663194175833    0.70742552018569   -1.83272455904242
C        -3.18169317411292    1.42942135925635   -0.60898423817610
C        -2.33598234275772    2.59187473640897   -0.60689111603365
C        -2.94045737422696   -0.68246674218517   -1.82849012829964
C        -1.95196471855445   -1.40425186250574   -2.59174651460240
C        -1.56803171014355   -2.57111666667005   -1.83639678688388
C        -2.31146502648340   -2.57095677951229   -0.60678824730433
C        -3.15938187094401   -1.39780979878792   -0.59916478857579
C        -0.99976473273678   -0.70963637993318   -3.32391981347529
C        -0.99877306266516    0.73255734938611   -3.31960647385433
C         0.37544313449116    1.17459435746390   -3.31719582635335
C         1.21893033535375    0.01331304811842   -3.32295150080394
C         0.37192301900351   -1.15406877382694   -3.32627428382638
Cl       -2.09862296447503    0.29249656015212    5.21313137363503
Cl       -0.36287975077276   -2.10199862602204    5.20116371284076