 Entering Gaussian System, Link 0=g16
 Input=dihept_10_addons_10.gjf
 Output=dihept_10_addons_10.log
 Initial command:
 /home/mkliu/g16/l1.exe "/data/scratch/Gau-37883.inp" -scrdir="/data/scratch/"
 Entering Link 1 = /home/mkliu/g16/l1.exe PID=     37884.
  
 Copyright (c) 1988,1990,1992,1993,1995,1998,2003,2009,2016,
            Gaussian, Inc.  All Rights Reserved.
  
 This is part of the Gaussian(R) 16 program.  It is based on
 the Gaussian(R) 09 system (copyright 2009, Gaussian, Inc.),
 the Gaussian(R) 03 system (copyright 2003, Gaussian, Inc.),
 the Gaussian(R) 98 system (copyright 1998, Gaussian, Inc.),
 the Gaussian(R) 94 system (copyright 1995, Gaussian, Inc.),
 the Gaussian 92(TM) system (copyright 1992, Gaussian, Inc.),
 the Gaussian 90(TM) system (copyright 1990, Gaussian, Inc.),
 the Gaussian 88(TM) system (copyright 1988, Gaussian, Inc.),
 the Gaussian 86(TM) system (copyright 1986, Carnegie Mellon
 University), and the Gaussian 82(TM) system (copyright 1983,
 Carnegie Mellon University). Gaussian is a federally registered
 trademark of Gaussian, Inc.
  
 This software contains proprietary and confidential information,
 including trade secrets, belonging to Gaussian, Inc.
  
 This software is provided under written license and may be
 used, copied, transmitted, or stored only in accord with that
 written license.
  
 The following legend is applicable only to US Government
 contracts under FAR:
  
                    RESTRICTED RIGHTS LEGEND
  
 Use, reproduction and disclosure by the US Government is
 subject to restrictions as set forth in subparagraphs (a)
 and (c) of the Commercial Computer Software - Restricted
 Rights clause in FAR 52.227-19.
  
 Gaussian, Inc.
 340 Quinnipiac St., Bldg. 40, Wallingford CT 06492
  
  
 ---------------------------------------------------------------
 Warning -- This program may not be used in any manner that
 competes with the business of Gaussian, Inc. or will provide
 assistance to any competitor of Gaussian, Inc.  The licensee
 of this program is prohibited from giving any competitor of
 Gaussian, Inc. access to this program.  By using this program,
 the user acknowledges that Gaussian, Inc. is engaged in the
 business of creating and licensing software in the field of
 computational chemistry and represents and warrants to the
 licensee that it is not a competitor of Gaussian, Inc. and that
 it will not use this program in any manner prohibited above.
 ---------------------------------------------------------------
  

 Cite this work as:
 Gaussian 16, Revision A.03,
 M. J. Frisch, G. W. Trucks, H. B. Schlegel, G. E. Scuseria, 
 M. A. Robb, J. R. Cheeseman, G. Scalmani, V. Barone, 
 G. A. Petersson, H. Nakatsuji, X. Li, M. Caricato, A. V. Marenich, 
 J. Bloino, B. G. Janesko, R. Gomperts, B. Mennucci, H. P. Hratchian, 
 J. V. Ortiz, A. F. Izmaylov, J. L. Sonnenberg, D. Williams-Young, 
 F. Ding, F. Lipparini, F. Egidi, J. Goings, B. Peng, A. Petrone, 
 T. Henderson, D. Ranasinghe, V. G. Zakrzewski, J. Gao, N. Rega, 
 G. Zheng, W. Liang, M. Hada, M. Ehara, K. Toyota, R. Fukuda, 
 J. Hasegawa, M. Ishida, T. Nakajima, Y. Honda, O. Kitao, H. Nakai, 
 T. Vreven, K. Throssell, J. A. Montgomery, Jr., J. E. Peralta, 
 F. Ogliaro, M. J. Bearpark, J. J. Heyd, E. N. Brothers, K. N. Kudin, 
 V. N. Staroverov, T. A. Keith, R. Kobayashi, J. Normand, 
 K. Raghavachari, A. P. Rendell, J. C. Burant, S. S. Iyengar, 
 J. Tomasi, M. Cossi, J. M. Millam, M. Klene, C. Adamo, R. Cammi, 
 J. W. Ochterski, R. L. Martin, K. Morokuma, O. Farkas, 
 J. B. Foresman, and D. J. Fox, Gaussian, Inc., Wallingford CT, 2016.
 
 ******************************************
 Gaussian 16:  ES64L-G16RevA.03 25-Dec-2016
                20-Jul-2022 
 ******************************************
 %mem=10GB
 %chk=dihept_10_addons_10.chk
 %nprocshared=48
 Will use up to   48 processors via shared memory.
 -------------------------------------------------
 #P opt b3lyp/6-311G(d, p) empiricaldispersion=GD3
 -------------------------------------------------
 1/18=20,19=15,26=3,38=1/1,3;
 2/9=110,12=2,17=6,18=5,40=1/2;
 3/5=4,6=6,7=101,11=2,25=1,30=1,71=1,74=-5,124=31/1,2,3;
 4//1;
 5/5=2,38=5/2;
 6/7=2,8=2,9=2,10=2,28=1/1;
 7//1,2,3,16;
 1/18=20,19=15,26=3/3(2);
 2/9=110/2;
 99//99;
 2/9=110/2;
 3/5=4,6=6,7=101,11=2,25=1,30=1,71=1,74=-5,124=31/1,2,3;
 4/5=5,16=3,69=1/1;
 5/5=2,38=5/2;
 7//1,2,3,16;
 1/18=20,19=15,26=3/3(-5);
 2/9=110/2;
 6/7=2,8=2,9=2,10=2,19=2,28=1/1;
 99/9=1/99;
 Leave Link    1 at Wed Jul 20 08:49:20 2022, MaxMem=  1342177280 cpu:               3.0 elap:               0.1
 (Enter /home/mkliu/g16/l101.exe)
 -----
 force
 -----
 Symbolic Z-matrix:
 Charge =  0 Multiplicity = 1
 C                     12.78441   12.08765   21.89547 
 C                     12.79186   13.01719   22.90234 
 C                     12.70989   14.40028   22.56421 
 C                     12.6248   14.83733   21.24544 
 C                     13.51976   15.13433   23.47669 
 C                     14.11322   14.23023   24.39395 
 C                     15.63381   17.33841   18.74053 
 C                     13.52551   12.84504   24.21802 
 C                     15.39297   14.48477   24.82938 
 C                     16.91069   17.00353   17.88306 
 C                     16.06679   15.68563   24.46824 
 C                     15.47242   16.55077   23.58229 
 C                     14.20327   16.25768   23.01753 
 C                     19.17825   14.04083   22.5593 
 C                     16.24625   17.22341   22.56191 
 C                     19.1669   15.41349   22.54979 
 C                     19.23847   16.05557   21.30361 
 C                     17.44196   11.58979   19.31785 
 C                     17.68817   11.29309   20.738 
 C                     18.4525   12.03295   21.62352 
 C                     18.16123   17.12996   18.78775 
 C                     17.55383   17.35864   20.13901 
 C                     16.15835   17.43209   20.14858 
 C                     15.47912   17.29817   21.35718 
 C                     14.18495   16.66522   21.62731 
 C                     13.38431   15.96478   20.74183 
 C                     13.65871   15.69638   19.32121 
 C                     14.68686   16.17154   18.53345 
 C                     15.28656   15.27946   17.59687 
 C                     16.66644   15.59772   17.45111 
 C                     17.58822   14.59716   17.45029 
 C                     17.15824   13.24782   17.59521 
 C                     19.00965   14.72518   17.8812 
 C                     15.81989   12.9205   17.43368 
 C                     14.85069   13.97252   17.43455 
 C                     13.70218   13.51638   18.13453 
 C                     19.23963   13.42442   18.73733 
 C                     13.10654   14.38784   19.0377 
 C                     12.50005   13.85911   20.219 
 C                     17.99902   12.57631   18.53051 
 C                     12.59853   12.50257   20.53451 
 C                     13.38647   11.64929   19.68586 
 C                     13.91555   12.13768   18.50524 
 C                     15.27186   11.81254   18.13313 
 C                     19.189    13.27123   21.35388 
 C                     19.37706   13.93828   20.14572 
 C                     16.0924   11.14679   19.03505 
 C                     19.41803   15.33511   20.13736 
 C                     15.51678   10.58455   20.21632 
 C                     19.23872   15.96038   18.7868 
 C                     16.50277   10.62793   21.242 
 C                     16.07522   10.74733   22.56122 
 C                     16.87383   11.49361   23.47371 
 C                     18.04896   12.08332   23.01412 
 C                     18.44538   13.32373   23.57965 
 C                     18.25814   17.11969   21.30448 
 C                     17.61337   17.09979   22.55117 
 C                     18.41618   16.27982   23.54842 
 C                     17.56747   15.49708   24.58765 
 C                     17.6325   13.98611   24.46685 
 C                     16.38082   13.41249   24.8285 
 C                     16.02207   12.15825   24.39225 
 C                     14.59328   11.686    24.21707 
 C                     14.70375   10.9419   22.90064 
 C                     13.7759   11.01143   21.89459 
 C                     14.1731   10.79342   20.53311 
 H                     15.16418   18.27988   18.43562 
 H                     16.99142   17.66904   17.01986 
 H                     18.70794   18.03246   18.49539 
 H                     20.18269   16.43167   18.49408 
 H                     19.67884   14.75194   17.01747 
 H                     20.13926   12.8796   18.4312 
 H                     12.81036   12.63371   25.01999 
 H                     14.3248   10.98984   25.01865 
 H                     19.11896   16.92682   24.08379 
 H                     17.89109   15.7944   25.59204 
 
 ITRead=  0  0  0  0  0  0  0  0  0  0  0  0  0  0  0  0  0  0  0  0
 ITRead=  0  0  0  0  0  0  0  0  0  0  0  0  0  0  0  0  0  0  0  0
 ITRead=  0  0  0  0  0  0  0  0  0  0  0  0  0  0  0  0  0  0  0  0
 ITRead=  0  0  0  0  0  0  0  0  0  0  0  0  0  0  0  0
 MicOpt= -1 -1 -1 -1 -1 -1 -1 -1 -1 -1 -1 -1 -1 -1 -1 -1 -1 -1 -1 -1
 MicOpt= -1 -1 -1 -1 -1 -1 -1 -1 -1 -1 -1 -1 -1 -1 -1 -1 -1 -1 -1 -1
 MicOpt= -1 -1 -1 -1 -1 -1 -1 -1 -1 -1 -1 -1 -1 -1 -1 -1 -1 -1 -1 -1
 MicOpt= -1 -1 -1 -1 -1 -1 -1 -1 -1 -1 -1 -1 -1 -1 -1 -1
 NAtoms=     76 NQM=       76 NQMF=       0 NMMI=      0 NMMIF=      0
                NMic=       0 NMicF=      0.
                    Isotopes and Nuclear Properties:
 (Nuclear quadrupole moments (NQMom) in fm**2, nuclear magnetic moments (NMagM)
  in nuclear magnetons)

  Atom         1           2           3           4           5           6           7           8           9          10
 IAtWgt=          12          12          12          12          12          12          12          12          12          12
 AtmWgt=  12.0000000  12.0000000  12.0000000  12.0000000  12.0000000  12.0000000  12.0000000  12.0000000  12.0000000  12.0000000
 NucSpn=           0           0           0           0           0           0           0           0           0           0
 AtZEff=  -0.0000000  -0.0000000  -0.0000000  -0.0000000  -0.0000000  -0.0000000  -0.0000000  -0.0000000  -0.0000000  -0.0000000
 NQMom=    0.0000000   0.0000000   0.0000000   0.0000000   0.0000000   0.0000000   0.0000000   0.0000000   0.0000000   0.0000000
 NMagM=    0.0000000   0.0000000   0.0000000   0.0000000   0.0000000   0.0000000   0.0000000   0.0000000   0.0000000   0.0000000
 AtZNuc=   6.0000000   6.0000000   6.0000000   6.0000000   6.0000000   6.0000000   6.0000000   6.0000000   6.0000000   6.0000000

  Atom        11          12          13          14          15          16          17          18          19          20
 IAtWgt=          12          12          12          12          12          12          12          12          12          12
 AtmWgt=  12.0000000  12.0000000  12.0000000  12.0000000  12.0000000  12.0000000  12.0000000  12.0000000  12.0000000  12.0000000
 NucSpn=           0           0           0           0           0           0           0           0           0           0
 AtZEff=  -0.0000000  -0.0000000  -0.0000000  -0.0000000  -0.0000000  -0.0000000  -0.0000000  -0.0000000  -0.0000000  -0.0000000
 NQMom=    0.0000000   0.0000000   0.0000000   0.0000000   0.0000000   0.0000000   0.0000000   0.0000000   0.0000000   0.0000000
 NMagM=    0.0000000   0.0000000   0.0000000   0.0000000   0.0000000   0.0000000   0.0000000   0.0000000   0.0000000   0.0000000
 AtZNuc=   6.0000000   6.0000000   6.0000000   6.0000000   6.0000000   6.0000000   6.0000000   6.0000000   6.0000000   6.0000000

  Atom        21          22          23          24          25          26          27          28          29          30
 IAtWgt=          12          12          12          12          12          12          12          12          12          12
 AtmWgt=  12.0000000  12.0000000  12.0000000  12.0000000  12.0000000  12.0000000  12.0000000  12.0000000  12.0000000  12.0000000
 NucSpn=           0           0           0           0           0           0           0           0           0           0
 AtZEff=  -0.0000000  -0.0000000  -0.0000000  -0.0000000  -0.0000000  -0.0000000  -0.0000000  -0.0000000  -0.0000000  -0.0000000
 NQMom=    0.0000000   0.0000000   0.0000000   0.0000000   0.0000000   0.0000000   0.0000000   0.0000000   0.0000000   0.0000000
 NMagM=    0.0000000   0.0000000   0.0000000   0.0000000   0.0000000   0.0000000   0.0000000   0.0000000   0.0000000   0.0000000
 AtZNuc=   6.0000000   6.0000000   6.0000000   6.0000000   6.0000000   6.0000000   6.0000000   6.0000000   6.0000000   6.0000000

  Atom        31          32          33          34          35          36          37          38          39          40
 IAtWgt=          12          12          12          12          12          12          12          12          12          12
 AtmWgt=  12.0000000  12.0000000  12.0000000  12.0000000  12.0000000  12.0000000  12.0000000  12.0000000  12.0000000  12.0000000
 NucSpn=           0           0           0           0           0           0           0           0           0           0
 AtZEff=  -0.0000000  -0.0000000  -0.0000000  -0.0000000  -0.0000000  -0.0000000  -0.0000000  -0.0000000  -0.0000000  -0.0000000
 NQMom=    0.0000000   0.0000000   0.0000000   0.0000000   0.0000000   0.0000000   0.0000000   0.0000000   0.0000000   0.0000000
 NMagM=    0.0000000   0.0000000   0.0000000   0.0000000   0.0000000   0.0000000   0.0000000   0.0000000   0.0000000   0.0000000
 AtZNuc=   6.0000000   6.0000000   6.0000000   6.0000000   6.0000000   6.0000000   6.0000000   6.0000000   6.0000000   6.0000000

  Atom        41          42          43          44          45          46          47          48          49          50
 IAtWgt=          12          12          12          12          12          12          12          12          12          12
 AtmWgt=  12.0000000  12.0000000  12.0000000  12.0000000  12.0000000  12.0000000  12.0000000  12.0000000  12.0000000  12.0000000
 NucSpn=           0           0           0           0           0           0           0           0           0           0
 AtZEff=  -0.0000000  -0.0000000  -0.0000000  -0.0000000  -0.0000000  -0.0000000  -0.0000000  -0.0000000  -0.0000000  -0.0000000
 NQMom=    0.0000000   0.0000000   0.0000000   0.0000000   0.0000000   0.0000000   0.0000000   0.0000000   0.0000000   0.0000000
 NMagM=    0.0000000   0.0000000   0.0000000   0.0000000   0.0000000   0.0000000   0.0000000   0.0000000   0.0000000   0.0000000
 AtZNuc=   6.0000000   6.0000000   6.0000000   6.0000000   6.0000000   6.0000000   6.0000000   6.0000000   6.0000000   6.0000000

  Atom        51          52          53          54          55          56          57          58          59          60
 IAtWgt=          12          12          12          12          12          12          12          12          12          12
 AtmWgt=  12.0000000  12.0000000  12.0000000  12.0000000  12.0000000  12.0000000  12.0000000  12.0000000  12.0000000  12.0000000
 NucSpn=           0           0           0           0           0           0           0           0           0           0
 AtZEff=  -0.0000000  -0.0000000  -0.0000000  -0.0000000  -0.0000000  -0.0000000  -0.0000000  -0.0000000  -0.0000000  -0.0000000
 NQMom=    0.0000000   0.0000000   0.0000000   0.0000000   0.0000000   0.0000000   0.0000000   0.0000000   0.0000000   0.0000000
 NMagM=    0.0000000   0.0000000   0.0000000   0.0000000   0.0000000   0.0000000   0.0000000   0.0000000   0.0000000   0.0000000
 AtZNuc=   6.0000000   6.0000000   6.0000000   6.0000000   6.0000000   6.0000000   6.0000000   6.0000000   6.0000000   6.0000000

  Atom        61          62          63          64          65          66          67          68          69          70
 IAtWgt=          12          12          12          12          12          12           1           1           1           1
 AtmWgt=  12.0000000  12.0000000  12.0000000  12.0000000  12.0000000  12.0000000   1.0078250   1.0078250   1.0078250   1.0078250
 NucSpn=           0           0           0           0           0           0           1           1           1           1
 AtZEff=  -0.0000000  -0.0000000  -0.0000000  -0.0000000  -0.0000000  -0.0000000  -0.0000000  -0.0000000  -0.0000000  -0.0000000
 NQMom=    0.0000000   0.0000000   0.0000000   0.0000000   0.0000000   0.0000000   0.0000000   0.0000000   0.0000000   0.0000000
 NMagM=    0.0000000   0.0000000   0.0000000   0.0000000   0.0000000   0.0000000   2.7928460   2.7928460   2.7928460   2.7928460
 AtZNuc=   6.0000000   6.0000000   6.0000000   6.0000000   6.0000000   6.0000000   1.0000000   1.0000000   1.0000000   1.0000000

  Atom        71          72          73          74          75          76
 IAtWgt=           1           1           1           1           1           1
 AtmWgt=   1.0078250   1.0078250   1.0078250   1.0078250   1.0078250   1.0078250
 NucSpn=           1           1           1           1           1           1
 AtZEff=  -0.0000000  -0.0000000  -0.0000000  -0.0000000  -0.0000000  -0.0000000
 NQMom=    0.0000000   0.0000000   0.0000000   0.0000000   0.0000000   0.0000000
 NMagM=    2.7928460   2.7928460   2.7928460   2.7928460   2.7928460   2.7928460
 AtZNuc=   1.0000000   1.0000000   1.0000000   1.0000000   1.0000000   1.0000000
 Leave Link  101 at Wed Jul 20 08:49:20 2022, MaxMem=  1342177280 cpu:              29.3 elap:               0.6
 (Enter /home/mkliu/g16/l103.exe)

 GradGradGradGradGradGradGradGradGradGradGradGradGradGradGradGradGradGrad
 Berny optimization.
 Initialization pass.
                           ----------------------------
                           !    Initial Parameters    !
                           ! (Angstroms and Degrees)  !
 --------------------------                            --------------------------
 ! Name  Definition              Value          Derivative Info.                !
 --------------------------------------------------------------------------------
 ! R1    R(1,2)                  1.3704         estimate D2E/DX2                !
 ! R2    R(1,41)                 1.4349         estimate D2E/DX2                !
 ! R3    R(1,65)                 1.4633         estimate D2E/DX2                !
 ! R4    R(2,3)                  1.4262         estimate D2E/DX2                !
 ! R5    R(2,8)                  1.5162         estimate D2E/DX2                !
 ! R6    R(3,4)                  1.3919         estimate D2E/DX2                !
 ! R7    R(3,5)                  1.4239         estimate D2E/DX2                !
 ! R8    R(4,26)                 1.4497         estimate D2E/DX2                !
 ! R9    R(4,39)                 1.4234         estimate D2E/DX2                !
 ! R10   R(5,6)                  1.4181         estimate D2E/DX2                !
 ! R11   R(5,13)                 1.3928         estimate D2E/DX2                !
 ! R12   R(6,8)                  1.515          estimate D2E/DX2                !
 ! R13   R(6,9)                  1.3756         estimate D2E/DX2                !
 ! R14   R(7,10)                 1.5741         estimate D2E/DX2                !
 ! R15   R(7,23)                 1.5055         estimate D2E/DX2                !
 ! R16   R(7,28)                 1.517          estimate D2E/DX2                !
 ! R17   R(7,67)                 1.0954         estimate D2E/DX2                !
 ! R18   R(8,63)                 1.5759         estimate D2E/DX2                !
 ! R19   R(8,73)                 1.0951         estimate D2E/DX2                !
 ! R20   R(9,11)                 1.4236         estimate D2E/DX2                !
 ! R21   R(9,61)                 1.458          estimate D2E/DX2                !
 ! R22   R(10,21)                1.5486         estimate D2E/DX2                !
 ! R23   R(10,30)                1.4908         estimate D2E/DX2                !
 ! R24   R(10,68)                1.093          estimate D2E/DX2                !
 ! R25   R(11,12)                1.3736         estimate D2E/DX2                !
 ! R26   R(11,59)                1.5172         estimate D2E/DX2                !
 ! R27   R(12,13)                1.4197         estimate D2E/DX2                !
 ! R28   R(12,15)                1.4465         estimate D2E/DX2                !
 ! R29   R(13,25)                1.4488         estimate D2E/DX2                !
 ! R30   R(14,16)                1.3727         estimate D2E/DX2                !
 ! R31   R(14,45)                1.4302         estimate D2E/DX2                !
 ! R32   R(14,55)                1.4465         estimate D2E/DX2                !
 ! R33   R(15,24)                1.4302         estimate D2E/DX2                !
 ! R34   R(15,57)                1.3727         estimate D2E/DX2                !
 ! R35   R(16,17)                1.4037         estimate D2E/DX2                !
 ! R36   R(16,58)                1.5203         estimate D2E/DX2                !
 ! R37   R(17,48)                1.3826         estimate D2E/DX2                !
 ! R38   R(17,56)                1.4469         estimate D2E/DX2                !
 ! R39   R(18,19)                1.4716         estimate D2E/DX2                !
 ! R40   R(18,40)                1.3796         estimate D2E/DX2                !
 ! R41   R(18,47)                1.4483         estimate D2E/DX2                !
 ! R42   R(19,20)                1.3841         estimate D2E/DX2                !
 ! R43   R(19,51)                1.4497         estimate D2E/DX2                !
 ! R44   R(20,45)                1.4658         estimate D2E/DX2                !
 ! R45   R(20,54)                1.4488         estimate D2E/DX2                !
 ! R46   R(21,22)                1.499          estimate D2E/DX2                !
 ! R47   R(21,50)                1.5902         estimate D2E/DX2                !
 ! R48   R(21,69)                1.0949         estimate D2E/DX2                !
 ! R49   R(22,23)                1.3974         estimate D2E/DX2                !
 ! R50   R(22,56)                1.3826         estimate D2E/DX2                !
 ! R51   R(23,24)                1.3928         estimate D2E/DX2                !
 ! R52   R(24,25)                1.4658         estimate D2E/DX2                !
 ! R53   R(25,26)                1.3841         estimate D2E/DX2                !
 ! R54   R(26,27)                1.4716         estimate D2E/DX2                !
 ! R55   R(27,28)                1.3796         estimate D2E/DX2                !
 ! R56   R(27,38)                1.4483         estimate D2E/DX2                !
 ! R57   R(28,29)                1.4257         estimate D2E/DX2                !
 ! R58   R(29,30)                1.4236         estimate D2E/DX2                !
 ! R59   R(29,35)                1.3872         estimate D2E/DX2                !
 ! R60   R(30,31)                1.3604         estimate D2E/DX2                !
 ! R61   R(31,32)                1.4236         estimate D2E/DX2                !
 ! R62   R(31,33)                1.4908         estimate D2E/DX2                !
 ! R63   R(32,34)                1.3872         estimate D2E/DX2                !
 ! R64   R(32,40)                1.4257         estimate D2E/DX2                !
 ! R65   R(33,37)                1.5741         estimate D2E/DX2                !
 ! R66   R(33,50)                1.5486         estimate D2E/DX2                !
 ! R67   R(33,71)                1.093          estimate D2E/DX2                !
 ! R68   R(34,35)                1.4304         estimate D2E/DX2                !
 ! R69   R(34,44)                1.4203         estimate D2E/DX2                !
 ! R70   R(35,36)                1.4203         estimate D2E/DX2                !
 ! R71   R(36,38)                1.3892         estimate D2E/DX2                !
 ! R72   R(36,43)                1.4435         estimate D2E/DX2                !
 ! R73   R(37,40)                1.517          estimate D2E/DX2                !
 ! R74   R(37,46)                1.5055         estimate D2E/DX2                !
 ! R75   R(37,72)                1.0954         estimate D2E/DX2                !
 ! R76   R(38,39)                1.4293         estimate D2E/DX2                !
 ! R77   R(39,41)                1.3962         estimate D2E/DX2                !
 ! R78   R(41,42)                1.4384         estimate D2E/DX2                !
 ! R79   R(42,43)                1.3829         estimate D2E/DX2                !
 ! R80   R(42,66)                1.4384         estimate D2E/DX2                !
 ! R81   R(43,44)                1.4435         estimate D2E/DX2                !
 ! R82   R(44,47)                1.3892         estimate D2E/DX2                !
 ! R83   R(45,46)                1.3928         estimate D2E/DX2                !
 ! R84   R(46,48)                1.3974         estimate D2E/DX2                !
 ! R85   R(47,49)                1.4293         estimate D2E/DX2                !
 ! R86   R(48,50)                1.499          estimate D2E/DX2                !
 ! R87   R(49,51)                1.4234         estimate D2E/DX2                !
 ! R88   R(49,66)                1.3962         estimate D2E/DX2                !
 ! R89   R(50,70)                1.0949         estimate D2E/DX2                !
 ! R90   R(51,52)                1.3919         estimate D2E/DX2                !
 ! R91   R(52,53)                1.4239         estimate D2E/DX2                !
 ! R92   R(52,64)                1.4262         estimate D2E/DX2                !
 ! R93   R(53,54)                1.3928         estimate D2E/DX2                !
 ! R94   R(53,62)                1.4181         estimate D2E/DX2                !
 ! R95   R(54,55)                1.4197         estimate D2E/DX2                !
 ! R96   R(55,60)                1.3736         estimate D2E/DX2                !
 ! R97   R(56,57)                1.4037         estimate D2E/DX2                !
 ! R98   R(57,58)                1.5203         estimate D2E/DX2                !
 ! R99   R(58,59)                1.5534         estimate D2E/DX2                !
 ! R100  R(58,75)                1.095          estimate D2E/DX2                !
 ! R101  R(59,60)                1.5172         estimate D2E/DX2                !
 ! R102  R(59,76)                1.0963         estimate D2E/DX2                !
 ! R103  R(60,61)                1.4236         estimate D2E/DX2                !
 ! R104  R(61,62)                1.3756         estimate D2E/DX2                !
 ! R105  R(62,63)                1.515          estimate D2E/DX2                !
 ! R106  R(63,64)                1.5162         estimate D2E/DX2                !
 ! R107  R(63,74)                1.0951         estimate D2E/DX2                !
 ! R108  R(64,65)                1.3704         estimate D2E/DX2                !
 ! R109  R(65,66)                1.4349         estimate D2E/DX2                !
 ! A1    A(2,1,41)             120.0957         estimate D2E/DX2                !
 ! A2    A(2,1,65)             119.7122         estimate D2E/DX2                !
 ! A3    A(41,1,65)            107.4501         estimate D2E/DX2                !
 ! A4    A(1,2,3)              118.9021         estimate D2E/DX2                !
 ! A5    A(1,2,8)              124.2763         estimate D2E/DX2                !
 ! A6    A(3,2,8)              110.0996         estimate D2E/DX2                !
 ! A7    A(2,3,4)              122.1847         estimate D2E/DX2                !
 ! A8    A(2,3,5)              108.381          estimate D2E/DX2                !
 ! A9    A(4,3,5)              118.6901         estimate D2E/DX2                !
 ! A10   A(3,4,26)             122.773          estimate D2E/DX2                !
 ! A11   A(3,4,39)             118.2161         estimate D2E/DX2                !
 ! A12   A(26,4,39)            109.2615         estimate D2E/DX2                !
 ! A13   A(3,5,6)              108.8975         estimate D2E/DX2                !
 ! A14   A(3,5,13)             118.9252         estimate D2E/DX2                !
 ! A15   A(6,5,13)             121.4709         estimate D2E/DX2                !
 ! A16   A(5,6,8)              110.2106         estimate D2E/DX2                !
 ! A17   A(5,6,9)              118.4327         estimate D2E/DX2                !
 ! A18   A(8,6,9)              124.5326         estimate D2E/DX2                !
 ! A19   A(10,7,23)            103.8917         estimate D2E/DX2                !
 ! A20   A(10,7,28)            105.567          estimate D2E/DX2                !
 ! A21   A(10,7,67)            112.2715         estimate D2E/DX2                !
 ! A22   A(23,7,28)            113.1433         estimate D2E/DX2                !
 ! A23   A(23,7,67)            110.8688         estimate D2E/DX2                !
 ! A24   A(28,7,67)            110.8238         estimate D2E/DX2                !
 ! A25   A(2,8,6)              100.6417         estimate D2E/DX2                !
 ! A26   A(2,8,63)             114.2571         estimate D2E/DX2                !
 ! A27   A(2,8,73)             109.9622         estimate D2E/DX2                !
 ! A28   A(6,8,63)             114.1851         estimate D2E/DX2                !
 ! A29   A(6,8,73)             110.1661         estimate D2E/DX2                !
 ! A30   A(63,8,73)            107.5166         estimate D2E/DX2                !
 ! A31   A(6,9,11)             121.0753         estimate D2E/DX2                !
 ! A32   A(6,9,61)             119.6093         estimate D2E/DX2                !
 ! A33   A(11,9,61)            107.4303         estimate D2E/DX2                !
 ! A34   A(7,10,21)            108.6291         estimate D2E/DX2                !
 ! A35   A(7,10,30)            103.035          estimate D2E/DX2                !
 ! A36   A(7,10,68)            111.1367         estimate D2E/DX2                !
 ! A37   A(21,10,30)           112.2438         estimate D2E/DX2                !
 ! A38   A(21,10,68)           110.6114         estimate D2E/DX2                !
 ! A39   A(30,10,68)           110.9439         estimate D2E/DX2                !
 ! A40   A(9,11,12)            119.3488         estimate D2E/DX2                !
 ! A41   A(9,11,59)            110.0833         estimate D2E/DX2                !
 ! A42   A(12,11,59)           123.8527         estimate D2E/DX2                !
 ! A43   A(11,12,13)           120.8894         estimate D2E/DX2                !
 ! A44   A(11,12,15)           121.0899         estimate D2E/DX2                !
 ! A45   A(13,12,15)           107.0744         estimate D2E/DX2                !
 ! A46   A(5,13,12)            118.2985         estimate D2E/DX2                !
 ! A47   A(5,13,25)            122.4786         estimate D2E/DX2                !
 ! A48   A(12,13,25)           109.5686         estimate D2E/DX2                !
 ! A49   A(16,14,45)           122.1612         estimate D2E/DX2                !
 ! A50   A(16,14,55)           119.7626         estimate D2E/DX2                !
 ! A51   A(45,14,55)           109.3638         estimate D2E/DX2                !
 ! A52   A(12,15,24)           109.3638         estimate D2E/DX2                !
 ! A53   A(12,15,57)           119.7626         estimate D2E/DX2                !
 ! A54   A(24,15,57)           122.1611         estimate D2E/DX2                !
 ! A55   A(14,16,17)           117.5889         estimate D2E/DX2                !
 ! A56   A(14,16,58)           124.7037         estimate D2E/DX2                !
 ! A57   A(17,16,58)           110.3452         estimate D2E/DX2                !
 ! A58   A(16,17,48)           121.1409         estimate D2E/DX2                !
 ! A59   A(16,17,56)           107.5378         estimate D2E/DX2                !
 ! A60   A(48,17,56)           118.1492         estimate D2E/DX2                !
 ! A61   A(19,18,40)           128.856          estimate D2E/DX2                !
 ! A62   A(19,18,47)           106.4201         estimate D2E/DX2                !
 ! A63   A(40,18,47)           118.9159         estimate D2E/DX2                !
 ! A64   A(18,19,20)           127.0165         estimate D2E/DX2                !
 ! A65   A(18,19,51)           106.9305         estimate D2E/DX2                !
 ! A66   A(20,19,51)           118.3191         estimate D2E/DX2                !
 ! A67   A(19,20,45)           127.6878         estimate D2E/DX2                !
 ! A68   A(19,20,54)           118.6094         estimate D2E/DX2                !
 ! A69   A(45,20,54)           106.6869         estimate D2E/DX2                !
 ! A70   A(10,21,22)           102.2306         estimate D2E/DX2                !
 ! A71   A(10,21,50)           119.1265         estimate D2E/DX2                !
 ! A72   A(10,21,69)           108.3307         estimate D2E/DX2                !
 ! A73   A(22,21,50)           112.7854         estimate D2E/DX2                !
 ! A74   A(22,21,69)           108.4977         estimate D2E/DX2                !
 ! A75   A(50,21,69)           105.5299         estimate D2E/DX2                !
 ! A76   A(21,22,23)           114.7597         estimate D2E/DX2                !
 ! A77   A(21,22,56)           121.8092         estimate D2E/DX2                !
 ! A78   A(23,22,56)           120.7988         estimate D2E/DX2                !
 ! A79   A(7,23,22)            109.7703         estimate D2E/DX2                !
 ! A80   A(7,23,24)            129.4698         estimate D2E/DX2                !
 ! A81   A(22,23,24)           119.1997         estimate D2E/DX2                !
 ! A82   A(15,24,23)           118.3197         estimate D2E/DX2                !
 ! A83   A(15,24,25)           107.2039         estimate D2E/DX2                !
 ! A84   A(23,24,25)           129.1983         estimate D2E/DX2                !
 ! A85   A(13,25,24)           106.6869         estimate D2E/DX2                !
 ! A86   A(13,25,26)           118.6094         estimate D2E/DX2                !
 ! A87   A(24,25,26)           127.6879         estimate D2E/DX2                !
 ! A88   A(4,26,25)            118.3191         estimate D2E/DX2                !
 ! A89   A(4,26,27)            106.9305         estimate D2E/DX2                !
 ! A90   A(25,26,27)           127.0165         estimate D2E/DX2                !
 ! A91   A(26,27,28)           128.856          estimate D2E/DX2                !
 ! A92   A(26,27,38)           106.4201         estimate D2E/DX2                !
 ! A93   A(28,27,38)           118.9159         estimate D2E/DX2                !
 ! A94   A(7,28,27)            130.706          estimate D2E/DX2                !
 ! A95   A(7,28,29)            107.963          estimate D2E/DX2                !
 ! A96   A(27,28,29)           118.2333         estimate D2E/DX2                !
 ! A97   A(28,29,30)           109.5787         estimate D2E/DX2                !
 ! A98   A(28,29,35)           122.2899         estimate D2E/DX2                !
 ! A99   A(30,29,35)           120.2112         estimate D2E/DX2                !
 ! A100  A(10,30,29)           109.8738         estimate D2E/DX2                !
 ! A101  A(10,30,31)           125.6402         estimate D2E/DX2                !
 ! A102  A(29,30,31)           119.4982         estimate D2E/DX2                !
 ! A103  A(30,31,32)           119.4982         estimate D2E/DX2                !
 ! A104  A(30,31,33)           125.6402         estimate D2E/DX2                !
 ! A105  A(32,31,33)           109.8738         estimate D2E/DX2                !
 ! A106  A(31,32,34)           120.2112         estimate D2E/DX2                !
 ! A107  A(31,32,40)           109.5787         estimate D2E/DX2                !
 ! A108  A(34,32,40)           122.2899         estimate D2E/DX2                !
 ! A109  A(31,33,37)           103.035          estimate D2E/DX2                !
 ! A110  A(31,33,50)           112.2438         estimate D2E/DX2                !
 ! A111  A(31,33,71)           110.9439         estimate D2E/DX2                !
 ! A112  A(37,33,50)           108.6291         estimate D2E/DX2                !
 ! A113  A(37,33,71)           111.1367         estimate D2E/DX2                !
 ! A114  A(50,33,71)           110.6114         estimate D2E/DX2                !
 ! A115  A(32,34,35)           118.6907         estimate D2E/DX2                !
 ! A116  A(32,34,44)           119.9333         estimate D2E/DX2                !
 ! A117  A(35,34,44)           108.1801         estimate D2E/DX2                !
 ! A118  A(29,35,34)           118.6907         estimate D2E/DX2                !
 ! A119  A(29,35,36)           119.9333         estimate D2E/DX2                !
 ! A120  A(34,35,36)           108.1801         estimate D2E/DX2                !
 ! A121  A(35,36,38)           117.7534         estimate D2E/DX2                !
 ! A122  A(35,36,43)           108.2877         estimate D2E/DX2                !
 ! A123  A(38,36,43)           119.7058         estimate D2E/DX2                !
 ! A124  A(33,37,40)           105.567          estimate D2E/DX2                !
 ! A125  A(33,37,46)           103.8917         estimate D2E/DX2                !
 ! A126  A(33,37,72)           112.2715         estimate D2E/DX2                !
 ! A127  A(40,37,46)           113.1433         estimate D2E/DX2                !
 ! A128  A(40,37,72)           110.8238         estimate D2E/DX2                !
 ! A129  A(46,37,72)           110.8688         estimate D2E/DX2                !
 ! A130  A(27,38,36)           122.0436         estimate D2E/DX2                !
 ! A131  A(27,38,39)           109.5251         estimate D2E/DX2                !
 ! A132  A(36,38,39)           119.1571         estimate D2E/DX2                !
 ! A133  A(4,39,38)            107.7332         estimate D2E/DX2                !
 ! A134  A(4,39,41)            119.9054         estimate D2E/DX2                !
 ! A135  A(38,39,41)           121.0811         estimate D2E/DX2                !
 ! A136  A(18,40,32)           118.2332         estimate D2E/DX2                !
 ! A137  A(18,40,37)           130.706          estimate D2E/DX2                !
 ! A138  A(32,40,37)           107.963          estimate D2E/DX2                !
 ! A139  A(1,41,39)            120.2925         estimate D2E/DX2                !
 ! A140  A(1,41,42)            108.4867         estimate D2E/DX2                !
 ! A141  A(39,41,42)           118.7929         estimate D2E/DX2                !
 ! A142  A(41,42,43)           120.2499         estimate D2E/DX2                !
 ! A143  A(41,42,66)           107.7585         estimate D2E/DX2                !
 ! A144  A(43,42,66)           120.2499         estimate D2E/DX2                !
 ! A145  A(36,43,42)           120.0005         estimate D2E/DX2                !
 ! A146  A(36,43,44)           106.7268         estimate D2E/DX2                !
 ! A147  A(42,43,44)           120.0005         estimate D2E/DX2                !
 ! A148  A(34,44,43)           108.2877         estimate D2E/DX2                !
 ! A149  A(34,44,47)           117.7534         estimate D2E/DX2                !
 ! A150  A(43,44,47)           119.7058         estimate D2E/DX2                !
 ! A151  A(14,45,20)           107.2039         estimate D2E/DX2                !
 ! A152  A(14,45,46)           118.3197         estimate D2E/DX2                !
 ! A153  A(20,45,46)           129.1983         estimate D2E/DX2                !
 ! A154  A(37,46,45)           129.4699         estimate D2E/DX2                !
 ! A155  A(37,46,48)           109.7702         estimate D2E/DX2                !
 ! A156  A(45,46,48)           119.1997         estimate D2E/DX2                !
 ! A157  A(18,47,44)           122.0436         estimate D2E/DX2                !
 ! A158  A(18,47,49)           109.5251         estimate D2E/DX2                !
 ! A159  A(44,47,49)           119.1571         estimate D2E/DX2                !
 ! A160  A(17,48,46)           120.7988         estimate D2E/DX2                !
 ! A161  A(17,48,50)           121.8092         estimate D2E/DX2                !
 ! A162  A(46,48,50)           114.7597         estimate D2E/DX2                !
 ! A163  A(47,49,51)           107.7332         estimate D2E/DX2                !
 ! A164  A(47,49,66)           121.0811         estimate D2E/DX2                !
 ! A165  A(51,49,66)           119.9054         estimate D2E/DX2                !
 ! A166  A(21,50,33)           119.1264         estimate D2E/DX2                !
 ! A167  A(21,50,48)           112.7854         estimate D2E/DX2                !
 ! A168  A(21,50,70)           105.5299         estimate D2E/DX2                !
 ! A169  A(33,50,48)           102.2306         estimate D2E/DX2                !
 ! A170  A(33,50,70)           108.3307         estimate D2E/DX2                !
 ! A171  A(48,50,70)           108.4977         estimate D2E/DX2                !
 ! A172  A(19,51,49)           109.2615         estimate D2E/DX2                !
 ! A173  A(19,51,52)           122.773          estimate D2E/DX2                !
 ! A174  A(49,51,52)           118.2161         estimate D2E/DX2                !
 ! A175  A(51,52,53)           118.6901         estimate D2E/DX2                !
 ! A176  A(51,52,64)           122.1847         estimate D2E/DX2                !
 ! A177  A(53,52,64)           108.381          estimate D2E/DX2                !
 ! A178  A(52,53,54)           118.9252         estimate D2E/DX2                !
 ! A179  A(52,53,62)           108.8975         estimate D2E/DX2                !
 ! A180  A(54,53,62)           121.4709         estimate D2E/DX2                !
 ! A181  A(20,54,53)           122.4786         estimate D2E/DX2                !
 ! A182  A(20,54,55)           109.5686         estimate D2E/DX2                !
 ! A183  A(53,54,55)           118.2985         estimate D2E/DX2                !
 ! A184  A(14,55,54)           107.0744         estimate D2E/DX2                !
 ! A185  A(14,55,60)           121.0899         estimate D2E/DX2                !
 ! A186  A(54,55,60)           120.8895         estimate D2E/DX2                !
 ! A187  A(17,56,22)           118.1492         estimate D2E/DX2                !
 ! A188  A(17,56,57)           107.5378         estimate D2E/DX2                !
 ! A189  A(22,56,57)           121.1409         estimate D2E/DX2                !
 ! A190  A(15,57,56)           117.5889         estimate D2E/DX2                !
 ! A191  A(15,57,58)           124.7037         estimate D2E/DX2                !
 ! A192  A(56,57,58)           110.3452         estimate D2E/DX2                !
 ! A193  A(16,58,57)            97.8867         estimate D2E/DX2                !
 ! A194  A(16,58,59)           114.9672         estimate D2E/DX2                !
 ! A195  A(16,58,75)           109.933          estimate D2E/DX2                !
 ! A196  A(57,58,59)           114.9672         estimate D2E/DX2                !
 ! A197  A(57,58,75)           109.933          estimate D2E/DX2                !
 ! A198  A(59,58,75)           108.7406         estimate D2E/DX2                !
 ! A199  A(11,59,58)           115.1597         estimate D2E/DX2                !
 ! A200  A(11,59,60)            99.2007         estimate D2E/DX2                !
 ! A201  A(11,59,76)           109.2917         estimate D2E/DX2                !
 ! A202  A(58,59,60)           115.1597         estimate D2E/DX2                !
 ! A203  A(58,59,76)           108.3597         estimate D2E/DX2                !
 ! A204  A(60,59,76)           109.2916         estimate D2E/DX2                !
 ! A205  A(55,60,59)           123.8527         estimate D2E/DX2                !
 ! A206  A(55,60,61)           119.3488         estimate D2E/DX2                !
 ! A207  A(59,60,61)           110.0833         estimate D2E/DX2                !
 ! A208  A(9,61,60)            107.4303         estimate D2E/DX2                !
 ! A209  A(9,61,62)            119.6093         estimate D2E/DX2                !
 ! A210  A(60,61,62)           121.0752         estimate D2E/DX2                !
 ! A211  A(53,62,61)           118.4327         estimate D2E/DX2                !
 ! A212  A(53,62,63)           110.2106         estimate D2E/DX2                !
 ! A213  A(61,62,63)           124.5326         estimate D2E/DX2                !
 ! A214  A(8,63,62)            114.1851         estimate D2E/DX2                !
 ! A215  A(8,63,64)            114.2571         estimate D2E/DX2                !
 ! A216  A(8,63,74)            107.5166         estimate D2E/DX2                !
 ! A217  A(62,63,64)           100.6417         estimate D2E/DX2                !
 ! A218  A(62,63,74)           110.1661         estimate D2E/DX2                !
 ! A219  A(64,63,74)           109.9622         estimate D2E/DX2                !
 ! A220  A(52,64,63)           110.0996         estimate D2E/DX2                !
 ! A221  A(52,64,65)           118.9021         estimate D2E/DX2                !
 ! A222  A(63,64,65)           124.2763         estimate D2E/DX2                !
 ! A223  A(1,65,64)            119.7122         estimate D2E/DX2                !
 ! A224  A(1,65,66)            107.4501         estimate D2E/DX2                !
 ! A225  A(64,65,66)           120.0957         estimate D2E/DX2                !
 ! A226  A(42,66,49)           118.7929         estimate D2E/DX2                !
 ! A227  A(42,66,65)           108.4867         estimate D2E/DX2                !
 ! A228  A(49,66,65)           120.2925         estimate D2E/DX2                !
 ! D1    D(41,1,2,3)            -4.4923         estimate D2E/DX2                !
 ! D2    D(41,1,2,8)          -152.8471         estimate D2E/DX2                !
 ! D3    D(65,1,2,3)           132.3788         estimate D2E/DX2                !
 ! D4    D(65,1,2,8)           -15.9759         estimate D2E/DX2                !
 ! D5    D(2,1,41,39)            3.6317         estimate D2E/DX2                !
 ! D6    D(2,1,41,42)          145.2109         estimate D2E/DX2                !
 ! D7    D(65,1,41,39)        -137.8764         estimate D2E/DX2                !
 ! D8    D(65,1,41,42)           3.7028         estimate D2E/DX2                !
 ! D9    D(2,1,65,64)            0.0            estimate D2E/DX2                !
 ! D10   D(2,1,65,66)         -141.6829         estimate D2E/DX2                !
 ! D11   D(41,1,65,64)         141.6829         estimate D2E/DX2                !
 ! D12   D(41,1,65,66)           0.0            estimate D2E/DX2                !
 ! D13   D(1,2,3,4)             -0.1083         estimate D2E/DX2                !
 ! D14   D(1,2,3,5)           -143.8987         estimate D2E/DX2                !
 ! D15   D(8,2,3,4)            152.3976         estimate D2E/DX2                !
 ! D16   D(8,2,3,5)              8.6072         estimate D2E/DX2                !
 ! D17   D(1,2,8,6)            138.013          estimate D2E/DX2                !
 ! D18   D(1,2,8,63)            15.2005         estimate D2E/DX2                !
 ! D19   D(1,2,8,73)          -105.7907         estimate D2E/DX2                !
 ! D20   D(3,2,8,6)            -12.7057         estimate D2E/DX2                !
 ! D21   D(3,2,8,63)          -135.5182         estimate D2E/DX2                !
 ! D22   D(3,2,8,73)           103.4906         estimate D2E/DX2                !
 ! D23   D(2,3,4,26)          -136.7281         estimate D2E/DX2                !
 ! D24   D(2,3,4,39)             5.5199         estimate D2E/DX2                !
 ! D25   D(5,3,4,26)             3.5502         estimate D2E/DX2                !
 ! D26   D(5,3,4,39)           145.7982         estimate D2E/DX2                !
 ! D27   D(2,3,5,6)             -0.1422         estimate D2E/DX2                !
 ! D28   D(2,3,5,13)           144.9055         estimate D2E/DX2                !
 ! D29   D(4,3,5,6)           -145.3964         estimate D2E/DX2                !
 ! D30   D(4,3,5,13)            -0.3487         estimate D2E/DX2                !
 ! D31   D(3,4,26,25)           -2.6688         estimate D2E/DX2                !
 ! D32   D(3,4,26,27)          148.8428         estimate D2E/DX2                !
 ! D33   D(39,4,26,25)        -147.8152         estimate D2E/DX2                !
 ! D34   D(39,4,26,27)           3.6964         estimate D2E/DX2                !
 ! D35   D(3,4,39,38)         -150.3321         estimate D2E/DX2                !
 ! D36   D(3,4,39,41)           -6.3163         estimate D2E/DX2                !
 ! D37   D(26,4,39,38)          -3.3782         estimate D2E/DX2                !
 ! D38   D(26,4,39,41)         140.6376         estimate D2E/DX2                !
 ! D39   D(3,5,6,8)             -8.3887         estimate D2E/DX2                !
 ! D40   D(3,5,6,9)            144.017          estimate D2E/DX2                !
 ! D41   D(13,5,6,8)          -152.3803         estimate D2E/DX2                !
 ! D42   D(13,5,6,9)             0.0255         estimate D2E/DX2                !
 ! D43   D(3,5,13,12)         -146.2188         estimate D2E/DX2                !
 ! D44   D(3,5,13,25)           -3.6911         estimate D2E/DX2                !
 ! D45   D(6,5,13,12)           -5.6754         estimate D2E/DX2                !
 ! D46   D(6,5,13,25)          136.8523         estimate D2E/DX2                !
 ! D47   D(5,6,8,2)             12.6319         estimate D2E/DX2                !
 ! D48   D(5,6,8,63)           135.4947         estimate D2E/DX2                !
 ! D49   D(5,6,8,73)          -103.4125         estimate D2E/DX2                !
 ! D50   D(9,6,8,2)           -137.7344         estimate D2E/DX2                !
 ! D51   D(9,6,8,63)           -14.8716         estimate D2E/DX2                !
 ! D52   D(9,6,8,73)           106.2213         estimate D2E/DX2                !
 ! D53   D(5,6,9,11)             5.607          estimate D2E/DX2                !
 ! D54   D(5,6,9,61)          -132.5305         estimate D2E/DX2                !
 ! D55   D(8,6,9,11)           153.7597         estimate D2E/DX2                !
 ! D56   D(8,6,9,61)            15.6221         estimate D2E/DX2                !
 ! D57   D(23,7,10,21)          -8.6245         estimate D2E/DX2                !
 ! D58   D(23,7,10,30)         110.5905         estimate D2E/DX2                !
 ! D59   D(23,7,10,68)        -130.5361         estimate D2E/DX2                !
 ! D60   D(28,7,10,21)        -127.9119         estimate D2E/DX2                !
 ! D61   D(28,7,10,30)          -8.6969         estimate D2E/DX2                !
 ! D62   D(28,7,10,68)         110.1764         estimate D2E/DX2                !
 ! D63   D(67,7,10,21)         111.2325         estimate D2E/DX2                !
 ! D64   D(67,7,10,30)        -129.5525         estimate D2E/DX2                !
 ! D65   D(67,7,10,68)         -10.6792         estimate D2E/DX2                !
 ! D66   D(10,7,23,22)           7.2852         estimate D2E/DX2                !
 ! D67   D(10,7,23,24)        -158.0748         estimate D2E/DX2                !
 ! D68   D(28,7,23,22)         121.2614         estimate D2E/DX2                !
 ! D69   D(28,7,23,24)         -44.0986         estimate D2E/DX2                !
 ! D70   D(67,7,23,22)        -113.5196         estimate D2E/DX2                !
 ! D71   D(67,7,23,24)          81.1204         estimate D2E/DX2                !
 ! D72   D(10,7,28,27)         156.0242         estimate D2E/DX2                !
 ! D73   D(10,7,28,29)          -3.1936         estimate D2E/DX2                !
 ! D74   D(23,7,28,27)          43.0624         estimate D2E/DX2                !
 ! D75   D(23,7,28,29)        -116.1553         estimate D2E/DX2                !
 ! D76   D(67,7,28,27)         -82.1809         estimate D2E/DX2                !
 ! D77   D(67,7,28,29)         118.6014         estimate D2E/DX2                !
 ! D78   D(2,8,63,62)          115.1135         estimate D2E/DX2                !
 ! D79   D(2,8,63,64)            0.0            estimate D2E/DX2                !
 ! D80   D(2,8,63,74)         -122.3365         estimate D2E/DX2                !
 ! D81   D(6,8,63,62)            0.0            estimate D2E/DX2                !
 ! D82   D(6,8,63,64)         -115.1135         estimate D2E/DX2                !
 ! D83   D(6,8,63,74)          122.55           estimate D2E/DX2                !
 ! D84   D(73,8,63,62)        -122.55           estimate D2E/DX2                !
 ! D85   D(73,8,63,64)         122.3365         estimate D2E/DX2                !
 ! D86   D(73,8,63,74)           0.0            estimate D2E/DX2                !
 ! D87   D(6,9,11,12)           -5.4432         estimate D2E/DX2                !
 ! D88   D(6,9,11,59)         -157.8236         estimate D2E/DX2                !
 ! D89   D(61,9,11,12)         137.1029         estimate D2E/DX2                !
 ! D90   D(61,9,11,59)         -15.2775         estimate D2E/DX2                !
 ! D91   D(6,9,61,60)          143.1958         estimate D2E/DX2                !
 ! D92   D(6,9,61,62)            0.0            estimate D2E/DX2                !
 ! D93   D(11,9,61,60)           0.0            estimate D2E/DX2                !
 ! D94   D(11,9,61,62)        -143.1958         estimate D2E/DX2                !
 ! D95   D(7,10,21,22)           6.6657         estimate D2E/DX2                !
 ! D96   D(7,10,21,50)         131.7248         estimate D2E/DX2                !
 ! D97   D(7,10,21,69)        -107.7785         estimate D2E/DX2                !
 ! D98   D(30,10,21,22)       -106.6017         estimate D2E/DX2                !
 ! D99   D(30,10,21,50)         18.4574         estimate D2E/DX2                !
 ! D100  D(30,10,21,69)        138.9541         estimate D2E/DX2                !
 ! D101  D(68,10,21,22)        128.897          estimate D2E/DX2                !
 ! D102  D(68,10,21,50)       -106.0439         estimate D2E/DX2                !
 ! D103  D(68,10,21,69)         14.4529         estimate D2E/DX2                !
 ! D104  D(7,10,30,29)          18.0417         estimate D2E/DX2                !
 ! D105  D(7,10,30,31)        -136.571          estimate D2E/DX2                !
 ! D106  D(21,10,30,29)        134.7172         estimate D2E/DX2                !
 ! D107  D(21,10,30,31)        -19.8955         estimate D2E/DX2                !
 ! D108  D(68,10,30,29)       -100.9658         estimate D2E/DX2                !
 ! D109  D(68,10,30,31)        104.4215         estimate D2E/DX2                !
 ! D110  D(9,11,12,13)          -0.4548         estimate D2E/DX2                !
 ! D111  D(9,11,12,15)        -139.9427         estimate D2E/DX2                !
 ! D112  D(59,11,12,13)        147.9246         estimate D2E/DX2                !
 ! D113  D(59,11,12,15)          8.4367         estimate D2E/DX2                !
 ! D114  D(9,11,59,58)         146.3211         estimate D2E/DX2                !
 ! D115  D(9,11,59,60)          22.823          estimate D2E/DX2                !
 ! D116  D(9,11,59,76)         -91.4629         estimate D2E/DX2                !
 ! D117  D(12,11,59,58)         -4.5624         estimate D2E/DX2                !
 ! D118  D(12,11,59,60)       -128.0605         estimate D2E/DX2                !
 ! D119  D(12,11,59,76)        117.6536         estimate D2E/DX2                !
 ! D120  D(11,12,13,5)           5.8611         estimate D2E/DX2                !
 ! D121  D(11,12,13,25)       -141.1358         estimate D2E/DX2                !
 ! D122  D(15,12,13,5)         150.2735         estimate D2E/DX2                !
 ! D123  D(15,12,13,25)          3.2765         estimate D2E/DX2                !
 ! D124  D(11,12,15,24)        142.0564         estimate D2E/DX2                !
 ! D125  D(11,12,15,57)         -6.256          estimate D2E/DX2                !
 ! D126  D(13,12,15,24)         -2.2697         estimate D2E/DX2                !
 ! D127  D(13,12,15,57)       -150.5821         estimate D2E/DX2                !
 ! D128  D(5,13,25,24)        -148.3839         estimate D2E/DX2                !
 ! D129  D(5,13,25,26)           4.5526         estimate D2E/DX2                !
 ! D130  D(12,13,25,24)         -3.0301         estimate D2E/DX2                !
 ! D131  D(12,13,25,26)        149.9064         estimate D2E/DX2                !
 ! D132  D(45,14,16,17)         -3.3358         estimate D2E/DX2                !
 ! D133  D(45,14,16,58)        143.703          estimate D2E/DX2                !
 ! D134  D(55,14,16,17)       -147.5045         estimate D2E/DX2                !
 ! D135  D(55,14,16,58)         -0.4657         estimate D2E/DX2                !
 ! D136  D(16,14,45,20)       -147.8175         estimate D2E/DX2                !
 ! D137  D(16,14,45,46)          8.8775         estimate D2E/DX2                !
 ! D138  D(55,14,45,20)         -0.4093         estimate D2E/DX2                !
 ! D139  D(55,14,45,46)        156.2857         estimate D2E/DX2                !
 ! D140  D(16,14,55,54)        150.5821         estimate D2E/DX2                !
 ! D141  D(16,14,55,60)          6.256          estimate D2E/DX2                !
 ! D142  D(45,14,55,54)          2.2697         estimate D2E/DX2                !
 ! D143  D(45,14,55,60)       -142.0564         estimate D2E/DX2                !
 ! D144  D(12,15,24,23)       -156.2858         estimate D2E/DX2                !
 ! D145  D(12,15,24,25)          0.4093         estimate D2E/DX2                !
 ! D146  D(57,15,24,23)         -8.8776         estimate D2E/DX2                !
 ! D147  D(57,15,24,25)        147.8175         estimate D2E/DX2                !
 ! D148  D(12,15,57,56)        147.5045         estimate D2E/DX2                !
 ! D149  D(12,15,57,58)          0.4657         estimate D2E/DX2                !
 ! D150  D(24,15,57,56)          3.3358         estimate D2E/DX2                !
 ! D151  D(24,15,57,58)       -143.703          estimate D2E/DX2                !
 ! D152  D(14,16,17,48)         -4.8906         estimate D2E/DX2                !
 ! D153  D(14,16,17,56)        135.3747         estimate D2E/DX2                !
 ! D154  D(58,16,17,48)       -156.398          estimate D2E/DX2                !
 ! D155  D(58,16,17,56)        -16.1327         estimate D2E/DX2                !
 ! D156  D(14,16,58,57)       -125.2598         estimate D2E/DX2                !
 ! D157  D(14,16,58,59)         -2.9459         estimate D2E/DX2                !
 ! D158  D(14,16,58,75)        120.1362         estimate D2E/DX2                !
 ! D159  D(17,16,58,57)         23.7902         estimate D2E/DX2                !
 ! D160  D(17,16,58,59)        146.104          estimate D2E/DX2                !
 ! D161  D(17,16,58,75)        -90.8139         estimate D2E/DX2                !
 ! D162  D(16,17,48,46)          7.5517         estimate D2E/DX2                !
 ! D163  D(16,17,48,50)        168.1946         estimate D2E/DX2                !
 ! D164  D(56,17,48,46)       -128.7165         estimate D2E/DX2                !
 ! D165  D(56,17,48,50)         31.9265         estimate D2E/DX2                !
 ! D166  D(16,17,56,22)       -141.6465         estimate D2E/DX2                !
 ! D167  D(16,17,56,57)          0.0            estimate D2E/DX2                !
 ! D168  D(48,17,56,22)          0.0            estimate D2E/DX2                !
 ! D169  D(48,17,56,57)        141.6465         estimate D2E/DX2                !
 ! D170  D(40,18,19,20)          6.5036         estimate D2E/DX2                !
 ! D171  D(40,18,19,51)        154.7762         estimate D2E/DX2                !
 ! D172  D(47,18,19,20)       -145.7157         estimate D2E/DX2                !
 ! D173  D(47,18,19,51)          2.5568         estimate D2E/DX2                !
 ! D174  D(19,18,40,32)       -140.5747         estimate D2E/DX2                !
 ! D175  D(19,18,40,37)         16.8995         estimate D2E/DX2                !
 ! D176  D(47,18,40,32)          8.7112         estimate D2E/DX2                !
 ! D177  D(47,18,40,37)        166.1854         estimate D2E/DX2                !
 ! D178  D(19,18,47,44)        145.7411         estimate D2E/DX2                !
 ! D179  D(19,18,47,49)         -0.5438         estimate D2E/DX2                !
 ! D180  D(40,18,47,44)         -9.7617         estimate D2E/DX2                !
 ! D181  D(40,18,47,49)       -156.0465         estimate D2E/DX2                !
 ! D182  D(18,19,20,45)         -0.106          estimate D2E/DX2                !
 ! D183  D(18,19,20,54)        146.4772         estimate D2E/DX2                !
 ! D184  D(51,19,20,45)       -145.2523         estimate D2E/DX2                !
 ! D185  D(51,19,20,54)          1.3308         estimate D2E/DX2                !
 ! D186  D(18,19,51,49)         -3.6964         estimate D2E/DX2                !
 ! D187  D(18,19,51,52)       -148.8428         estimate D2E/DX2                !
 ! D188  D(20,19,51,49)        147.8153         estimate D2E/DX2                !
 ! D189  D(20,19,51,52)          2.6689         estimate D2E/DX2                !
 ! D190  D(19,20,45,14)        148.1178         estimate D2E/DX2                !
 ! D191  D(19,20,45,46)         -5.1765         estimate D2E/DX2                !
 ! D192  D(54,20,45,14)         -1.568          estimate D2E/DX2                !
 ! D193  D(54,20,45,46)       -154.8623         estimate D2E/DX2                !
 ! D194  D(19,20,54,53)         -4.5526         estimate D2E/DX2                !
 ! D195  D(19,20,54,55)       -149.9063         estimate D2E/DX2                !
 ! D196  D(45,20,54,53)        148.3838         estimate D2E/DX2                !
 ! D197  D(45,20,54,55)          3.0301         estimate D2E/DX2                !
 ! D198  D(10,21,22,23)         -2.204          estimate D2E/DX2                !
 ! D199  D(10,21,22,56)        159.5239         estimate D2E/DX2                !
 ! D200  D(50,21,22,23)       -131.3467         estimate D2E/DX2                !
 ! D201  D(50,21,22,56)         30.3811         estimate D2E/DX2                !
 ! D202  D(69,21,22,23)        112.1175         estimate D2E/DX2                !
 ! D203  D(69,21,22,56)        -86.1546         estimate D2E/DX2                !
 ! D204  D(10,21,50,33)          0.0            estimate D2E/DX2                !
 ! D205  D(10,21,50,48)       -119.8082         estimate D2E/DX2                !
 ! D206  D(10,21,50,70)        121.9047         estimate D2E/DX2                !
 ! D207  D(22,21,50,33)        119.8082         estimate D2E/DX2                !
 ! D208  D(22,21,50,48)          0.0            estimate D2E/DX2                !
 ! D209  D(22,21,50,70)       -118.2872         estimate D2E/DX2                !
 ! D210  D(69,21,50,33)       -121.9047         estimate D2E/DX2                !
 ! D211  D(69,21,50,48)        118.2872         estimate D2E/DX2                !
 ! D212  D(69,21,50,70)          0.0            estimate D2E/DX2                !
 ! D213  D(21,22,23,7)          -3.3926         estimate D2E/DX2                !
 ! D214  D(21,22,23,24)        163.692          estimate D2E/DX2                !
 ! D215  D(56,22,23,7)        -165.3221         estimate D2E/DX2                !
 ! D216  D(56,22,23,24)          1.7625         estimate D2E/DX2                !
 ! D217  D(21,22,56,17)        -31.9265         estimate D2E/DX2                !
 ! D218  D(21,22,56,57)       -168.1946         estimate D2E/DX2                !
 ! D219  D(23,22,56,17)        128.7165         estimate D2E/DX2                !
 ! D220  D(23,22,56,57)         -7.5517         estimate D2E/DX2                !
 ! D221  D(7,23,24,15)         170.3273         estimate D2E/DX2                !
 ! D222  D(7,23,24,25)          19.5147         estimate D2E/DX2                !
 ! D223  D(22,23,24,15)          6.1387         estimate D2E/DX2                !
 ! D224  D(22,23,24,25)       -144.6739         estimate D2E/DX2                !
 ! D225  D(15,24,25,13)          1.568          estimate D2E/DX2                !
 ! D226  D(15,24,25,26)       -148.1179         estimate D2E/DX2                !
 ! D227  D(23,24,25,13)        154.8624         estimate D2E/DX2                !
 ! D228  D(23,24,25,26)          5.1764         estimate D2E/DX2                !
 ! D229  D(13,25,26,4)          -1.3309         estimate D2E/DX2                !
 ! D230  D(13,25,26,27)       -146.4772         estimate D2E/DX2                !
 ! D231  D(24,25,26,4)         145.2524         estimate D2E/DX2                !
 ! D232  D(24,25,26,27)          0.1061         estimate D2E/DX2                !
 ! D233  D(4,26,27,28)        -154.7762         estimate D2E/DX2                !
 ! D234  D(4,26,27,38)          -2.5568         estimate D2E/DX2                !
 ! D235  D(25,26,27,28)         -6.5036         estimate D2E/DX2                !
 ! D236  D(25,26,27,38)        145.7157         estimate D2E/DX2                !
 ! D237  D(26,27,28,7)         -16.8995         estimate D2E/DX2                !
 ! D238  D(26,27,28,29)        140.5747         estimate D2E/DX2                !
 ! D239  D(38,27,28,7)        -166.1854         estimate D2E/DX2                !
 ! D240  D(38,27,28,29)         -8.7113         estimate D2E/DX2                !
 ! D241  D(26,27,38,36)       -145.7411         estimate D2E/DX2                !
 ! D242  D(26,27,38,39)          0.5437         estimate D2E/DX2                !
 ! D243  D(28,27,38,36)          9.7617         estimate D2E/DX2                !
 ! D244  D(28,27,38,39)        156.0465         estimate D2E/DX2                !
 ! D245  D(7,28,29,30)          14.828          estimate D2E/DX2                !
 ! D246  D(7,28,29,35)         163.7561         estimate D2E/DX2                !
 ! D247  D(27,28,29,30)       -147.396          estimate D2E/DX2                !
 ! D248  D(27,28,29,35)          1.5321         estimate D2E/DX2                !
 ! D249  D(28,29,30,10)        -21.3297         estimate D2E/DX2                !
 ! D250  D(28,29,30,31)        135.0719         estimate D2E/DX2                !
 ! D251  D(35,29,30,10)       -171.0069         estimate D2E/DX2                !
 ! D252  D(35,29,30,31)        -14.6052         estimate D2E/DX2                !
 ! D253  D(28,29,35,34)       -131.2687         estimate D2E/DX2                !
 ! D254  D(28,29,35,36)          5.245          estimate D2E/DX2                !
 ! D255  D(30,29,35,34)         14.4886         estimate D2E/DX2                !
 ! D256  D(30,29,35,36)        151.0023         estimate D2E/DX2                !
 ! D257  D(10,30,31,32)        152.4029         estimate D2E/DX2                !
 ! D258  D(10,30,31,33)          0.0            estimate D2E/DX2                !
 ! D259  D(29,30,31,32)          0.0            estimate D2E/DX2                !
 ! D260  D(29,30,31,33)       -152.4029         estimate D2E/DX2                !
 ! D261  D(30,31,32,34)         14.6052         estimate D2E/DX2                !
 ! D262  D(30,31,32,40)       -135.0719         estimate D2E/DX2                !
 ! D263  D(33,31,32,34)        171.0069         estimate D2E/DX2                !
 ! D264  D(33,31,32,40)         21.3297         estimate D2E/DX2                !
 ! D265  D(30,31,33,37)        136.571          estimate D2E/DX2                !
 ! D266  D(30,31,33,50)         19.8955         estimate D2E/DX2                !
 ! D267  D(30,31,33,71)       -104.4215         estimate D2E/DX2                !
 ! D268  D(32,31,33,37)        -18.0417         estimate D2E/DX2                !
 ! D269  D(32,31,33,50)       -134.7172         estimate D2E/DX2                !
 ! D270  D(32,31,33,71)        100.9658         estimate D2E/DX2                !
 ! D271  D(31,32,34,35)        -14.4886         estimate D2E/DX2                !
 ! D272  D(31,32,34,44)       -151.0023         estimate D2E/DX2                !
 ! D273  D(40,32,34,35)        131.2687         estimate D2E/DX2                !
 ! D274  D(40,32,34,44)         -5.245          estimate D2E/DX2                !
 ! D275  D(31,32,40,18)        147.396          estimate D2E/DX2                !
 ! D276  D(31,32,40,37)        -14.828          estimate D2E/DX2                !
 ! D277  D(34,32,40,18)         -1.5321         estimate D2E/DX2                !
 ! D278  D(34,32,40,37)       -163.7562         estimate D2E/DX2                !
 ! D279  D(31,33,37,40)          8.6969         estimate D2E/DX2                !
 ! D280  D(31,33,37,46)       -110.5905         estimate D2E/DX2                !
 ! D281  D(31,33,37,72)        129.5525         estimate D2E/DX2                !
 ! D282  D(50,33,37,40)        127.9119         estimate D2E/DX2                !
 ! D283  D(50,33,37,46)          8.6245         estimate D2E/DX2                !
 ! D284  D(50,33,37,72)       -111.2325         estimate D2E/DX2                !
 ! D285  D(71,33,37,40)       -110.1764         estimate D2E/DX2                !
 ! D286  D(71,33,37,46)        130.5361         estimate D2E/DX2                !
 ! D287  D(71,33,37,72)         10.6792         estimate D2E/DX2                !
 ! D288  D(31,33,50,21)        -18.4574         estimate D2E/DX2                !
 ! D289  D(31,33,50,48)        106.6017         estimate D2E/DX2                !
 ! D290  D(31,33,50,70)       -138.9541         estimate D2E/DX2                !
 ! D291  D(37,33,50,21)       -131.7248         estimate D2E/DX2                !
 ! D292  D(37,33,50,48)         -6.6657         estimate D2E/DX2                !
 ! D293  D(37,33,50,70)        107.7785         estimate D2E/DX2                !
 ! D294  D(71,33,50,21)        106.0439         estimate D2E/DX2                !
 ! D295  D(71,33,50,48)       -128.8971         estimate D2E/DX2                !
 ! D296  D(71,33,50,70)        -14.4529         estimate D2E/DX2                !
 ! D297  D(32,34,35,29)          0.0            estimate D2E/DX2                !
 ! D298  D(32,34,35,36)       -141.118          estimate D2E/DX2                !
 ! D299  D(44,34,35,29)        141.118          estimate D2E/DX2                !
 ! D300  D(44,34,35,36)          0.0            estimate D2E/DX2                !
 ! D301  D(32,34,44,43)        144.1246         estimate D2E/DX2                !
 ! D302  D(32,34,44,47)          4.3375         estimate D2E/DX2                !
 ! D303  D(35,34,44,43)          3.5749         estimate D2E/DX2                !
 ! D304  D(35,34,44,47)       -136.2122         estimate D2E/DX2                !
 ! D305  D(29,35,36,38)         -4.3374         estimate D2E/DX2                !
 ! D306  D(29,35,36,43)       -144.1246         estimate D2E/DX2                !
 ! D307  D(34,35,36,38)        136.2122         estimate D2E/DX2                !
 ! D308  D(34,35,36,43)         -3.5749         estimate D2E/DX2                !
 ! D309  D(35,36,38,27)         -3.0309         estimate D2E/DX2                !
 ! D310  D(35,36,38,39)       -146.2288         estimate D2E/DX2                !
 ! D311  D(43,36,38,27)        132.0771         estimate D2E/DX2                !
 ! D312  D(43,36,38,39)        -11.1207         estimate D2E/DX2                !
 ! D313  D(35,36,43,42)        146.6278         estimate D2E/DX2                !
 ! D314  D(35,36,43,44)          5.6974         estimate D2E/DX2                !
 ! D315  D(38,36,43,42)          7.7603         estimate D2E/DX2                !
 ! D316  D(38,36,43,44)       -133.1701         estimate D2E/DX2                !
 ! D317  D(33,37,40,18)       -156.0242         estimate D2E/DX2                !
 ! D318  D(33,37,40,32)          3.1936         estimate D2E/DX2                !
 ! D319  D(46,37,40,18)        -43.0624         estimate D2E/DX2                !
 ! D320  D(46,37,40,32)        116.1553         estimate D2E/DX2                !
 ! D321  D(72,37,40,18)         82.1809         estimate D2E/DX2                !
 ! D322  D(72,37,40,32)       -118.6014         estimate D2E/DX2                !
 ! D323  D(33,37,46,45)        158.0748         estimate D2E/DX2                !
 ! D324  D(33,37,46,48)         -7.2852         estimate D2E/DX2                !
 ! D325  D(40,37,46,45)         44.0986         estimate D2E/DX2                !
 ! D326  D(40,37,46,48)       -121.2614         estimate D2E/DX2                !
 ! D327  D(72,37,46,45)        -81.1204         estimate D2E/DX2                !
 ! D328  D(72,37,46,48)        113.5196         estimate D2E/DX2                !
 ! D329  D(27,38,39,4)           1.7292         estimate D2E/DX2                !
 ! D330  D(27,38,39,41)       -141.7791         estimate D2E/DX2                !
 ! D331  D(36,38,39,4)         149.1295         estimate D2E/DX2                !
 ! D332  D(36,38,39,41)          5.6212         estimate D2E/DX2                !
 ! D333  D(4,39,41,1)            1.9018         estimate D2E/DX2                !
 ! D334  D(4,39,41,42)        -135.8373         estimate D2E/DX2                !
 ! D335  D(38,39,41,1)         141.0991         estimate D2E/DX2                !
 ! D336  D(38,39,41,42)          3.3601         estimate D2E/DX2                !
 ! D337  D(1,41,42,43)        -149.0463         estimate D2E/DX2                !
 ! D338  D(1,41,42,66)          -5.9992         estimate D2E/DX2                !
 ! D339  D(39,41,42,43)         -6.8009         estimate D2E/DX2                !
 ! D340  D(39,41,42,66)        136.2463         estimate D2E/DX2                !
 ! D341  D(41,42,43,36)          1.3373         estimate D2E/DX2                !
 ! D342  D(41,42,43,44)        137.1523         estimate D2E/DX2                !
 ! D343  D(66,42,43,36)       -137.1523         estimate D2E/DX2                !
 ! D344  D(66,42,43,44)         -1.3372         estimate D2E/DX2                !
 ! D345  D(41,42,66,49)       -136.2463         estimate D2E/DX2                !
 ! D346  D(41,42,66,65)          5.9992         estimate D2E/DX2                !
 ! D347  D(43,42,66,49)          6.8009         estimate D2E/DX2                !
 ! D348  D(43,42,66,65)        149.0463         estimate D2E/DX2                !
 ! D349  D(36,43,44,34)         -5.6974         estimate D2E/DX2                !
 ! D350  D(36,43,44,47)        133.17           estimate D2E/DX2                !
 ! D351  D(42,43,44,34)       -146.6278         estimate D2E/DX2                !
 ! D352  D(42,43,44,47)         -7.7604         estimate D2E/DX2                !
 ! D353  D(34,44,47,18)          3.0309         estimate D2E/DX2                !
 ! D354  D(34,44,47,49)        146.2288         estimate D2E/DX2                !
 ! D355  D(43,44,47,18)       -132.0771         estimate D2E/DX2                !
 ! D356  D(43,44,47,49)         11.1208         estimate D2E/DX2                !
 ! D357  D(14,45,46,37)       -170.3273         estimate D2E/DX2                !
 ! D358  D(14,45,46,48)         -6.1387         estimate D2E/DX2                !
 ! D359  D(20,45,46,37)        -19.5147         estimate D2E/DX2                !
 ! D360  D(20,45,46,48)        144.6739         estimate D2E/DX2                !
 ! D361  D(37,46,48,17)        165.3221         estimate D2E/DX2                !
 ! D362  D(37,46,48,50)          3.3926         estimate D2E/DX2                !
 ! D363  D(45,46,48,17)         -1.7625         estimate D2E/DX2                !
 ! D364  D(45,46,48,50)       -163.692          estimate D2E/DX2                !
 ! D365  D(18,47,49,51)         -1.7292         estimate D2E/DX2                !
 ! D366  D(18,47,49,66)        141.7792         estimate D2E/DX2                !
 ! D367  D(44,47,49,51)       -149.1295         estimate D2E/DX2                !
 ! D368  D(44,47,49,66)         -5.6212         estimate D2E/DX2                !
 ! D369  D(17,48,50,21)        -30.3812         estimate D2E/DX2                !
 ! D370  D(17,48,50,33)       -159.5239         estimate D2E/DX2                !
 ! D371  D(17,48,50,70)         86.1546         estimate D2E/DX2                !
 ! D372  D(46,48,50,21)        131.3467         estimate D2E/DX2                !
 ! D373  D(46,48,50,33)          2.204          estimate D2E/DX2                !
 ! D374  D(46,48,50,70)       -112.1175         estimate D2E/DX2                !
 ! D375  D(47,49,51,19)          3.3782         estimate D2E/DX2                !
 ! D376  D(47,49,51,52)        150.3321         estimate D2E/DX2                !
 ! D377  D(66,49,51,19)       -140.6376         estimate D2E/DX2                !
 ! D378  D(66,49,51,52)          6.3163         estimate D2E/DX2                !
 ! D379  D(47,49,66,42)         -3.3601         estimate D2E/DX2                !
 ! D380  D(47,49,66,65)       -141.0991         estimate D2E/DX2                !
 ! D381  D(51,49,66,42)        135.8372         estimate D2E/DX2                !
 ! D382  D(51,49,66,65)         -1.9018         estimate D2E/DX2                !
 ! D383  D(19,51,52,53)         -3.5502         estimate D2E/DX2                !
 ! D384  D(19,51,52,64)        136.7281         estimate D2E/DX2                !
 ! D385  D(49,51,52,53)       -145.7982         estimate D2E/DX2                !
 ! D386  D(49,51,52,64)         -5.5199         estimate D2E/DX2                !
 ! D387  D(51,52,53,54)          0.3487         estimate D2E/DX2                !
 ! D388  D(51,52,53,62)        145.3963         estimate D2E/DX2                !
 ! D389  D(64,52,53,54)       -144.9055         estimate D2E/DX2                !
 ! D390  D(64,52,53,62)          0.1422         estimate D2E/DX2                !
 ! D391  D(51,52,64,63)       -152.3976         estimate D2E/DX2                !
 ! D392  D(51,52,64,65)          0.1083         estimate D2E/DX2                !
 ! D393  D(53,52,64,63)         -8.6072         estimate D2E/DX2                !
 ! D394  D(53,52,64,65)        143.8986         estimate D2E/DX2                !
 ! D395  D(52,53,54,20)          3.6911         estimate D2E/DX2                !
 ! D396  D(52,53,54,55)        146.2188         estimate D2E/DX2                !
 ! D397  D(62,53,54,20)       -136.8523         estimate D2E/DX2                !
 ! D398  D(62,53,54,55)          5.6753         estimate D2E/DX2                !
 ! D399  D(52,53,62,61)       -144.017          estimate D2E/DX2                !
 ! D400  D(52,53,62,63)          8.3888         estimate D2E/DX2                !
 ! D401  D(54,53,62,61)         -0.0255         estimate D2E/DX2                !
 ! D402  D(54,53,62,63)        152.3803         estimate D2E/DX2                !
 ! D403  D(20,54,55,14)         -3.2765         estimate D2E/DX2                !
 ! D404  D(20,54,55,60)        141.1359         estimate D2E/DX2                !
 ! D405  D(53,54,55,14)       -150.2735         estimate D2E/DX2                !
 ! D406  D(53,54,55,60)         -5.8611         estimate D2E/DX2                !
 ! D407  D(14,55,60,59)         -8.4367         estimate D2E/DX2                !
 ! D408  D(14,55,60,61)        139.9427         estimate D2E/DX2                !
 ! D409  D(54,55,60,59)       -147.9246         estimate D2E/DX2                !
 ! D410  D(54,55,60,61)          0.4548         estimate D2E/DX2                !
 ! D411  D(17,56,57,15)       -135.3747         estimate D2E/DX2                !
 ! D412  D(17,56,57,58)         16.1327         estimate D2E/DX2                !
 ! D413  D(22,56,57,15)          4.8906         estimate D2E/DX2                !
 ! D414  D(22,56,57,58)        156.398          estimate D2E/DX2                !
 ! D415  D(15,57,58,16)        125.2598         estimate D2E/DX2                !
 ! D416  D(15,57,58,59)          2.9459         estimate D2E/DX2                !
 ! D417  D(15,57,58,75)       -120.1362         estimate D2E/DX2                !
[...]
 Alpha virt. eigenvalues --    1.10173   1.10285   1.10914   1.10951   1.11354
 Alpha virt. eigenvalues --    1.12409   1.12726   1.13267   1.13688   1.14384
 Alpha virt. eigenvalues --    1.15362   1.15473   1.15674   1.16150   1.16499
 Alpha virt. eigenvalues --    1.17051   1.17307   1.18389   1.18533   1.19288
 Alpha virt. eigenvalues --    1.20417   1.20463   1.20929   1.20933   1.21198
 Alpha virt. eigenvalues --    1.21618   1.22744   1.22784   1.22824   1.23461
 Alpha virt. eigenvalues --    1.23632   1.24246   1.24305   1.25327   1.25451
 Alpha virt. eigenvalues --    1.25860   1.26497   1.27374   1.27878   1.27955
 Alpha virt. eigenvalues --    1.29176   1.29274   1.29672   1.30058   1.30759
 Alpha virt. eigenvalues --    1.30819   1.31644   1.31703   1.32281   1.32736
 Alpha virt. eigenvalues --    1.33190   1.33544   1.33795   1.33927   1.34338
 Alpha virt. eigenvalues --    1.34714   1.35128   1.35451   1.35907   1.36066
 Alpha virt. eigenvalues --    1.36693   1.37419   1.37694   1.37768   1.38050
 Alpha virt. eigenvalues --    1.38233   1.39276   1.39382   1.39762   1.39980
 Alpha virt. eigenvalues --    1.40185   1.40993   1.41058   1.41267   1.42284
 Alpha virt. eigenvalues --    1.42588   1.42624   1.42976   1.43069   1.43420
 Alpha virt. eigenvalues --    1.43576   1.44032   1.44515   1.45145   1.45446
 Alpha virt. eigenvalues --    1.45498   1.45808   1.46244   1.46310   1.46549
 Alpha virt. eigenvalues --    1.46558   1.46851   1.47336   1.47472   1.47680
 Alpha virt. eigenvalues --    1.47698   1.47962   1.48524   1.48639   1.49358
 Alpha virt. eigenvalues --    1.49556   1.49897   1.49917   1.50490   1.50502
 Alpha virt. eigenvalues --    1.50823   1.51168   1.51278   1.51628   1.51655
 Alpha virt. eigenvalues --    1.52230   1.52429   1.52571   1.52720   1.53060
 Alpha virt. eigenvalues --    1.53168   1.53643   1.53891   1.54457   1.54622
 Alpha virt. eigenvalues --    1.54793   1.54900   1.55181   1.55257   1.55624
 Alpha virt. eigenvalues --    1.56592   1.56824   1.57085   1.57194   1.57619
 Alpha virt. eigenvalues --    1.58088   1.58338   1.58750   1.58989   1.59195
 Alpha virt. eigenvalues --    1.59399   1.59426   1.60015   1.60639   1.60957
 Alpha virt. eigenvalues --    1.61347   1.61721   1.62390   1.62618   1.63117
 Alpha virt. eigenvalues --    1.63138   1.63770   1.64171   1.64641   1.64693
 Alpha virt. eigenvalues --    1.64697   1.65154   1.65577   1.65918   1.65974
 Alpha virt. eigenvalues --    1.66925   1.67149   1.67576   1.68164   1.68447
 Alpha virt. eigenvalues --    1.68689   1.69090   1.69608   1.69706   1.70144
 Alpha virt. eigenvalues --    1.70668   1.70811   1.71286   1.71648   1.71968
 Alpha virt. eigenvalues --    1.72322   1.72482   1.73006   1.73457   1.73960
 Alpha virt. eigenvalues --    1.74140   1.74516   1.74820   1.74942   1.75859
 Alpha virt. eigenvalues --    1.76137   1.76188   1.77081   1.77372   1.78076
 Alpha virt. eigenvalues --    1.78301   1.78681   1.78779   1.79489   1.79692
 Alpha virt. eigenvalues --    1.80393   1.80491   1.80729   1.81468   1.81825
 Alpha virt. eigenvalues --    1.81992   1.82235   1.82406   1.82940   1.83608
 Alpha virt. eigenvalues --    1.83888   1.84814   1.85200   1.85502   1.85582
 Alpha virt. eigenvalues --    1.86131   1.86426   1.86547   1.86965   1.87394
 Alpha virt. eigenvalues --    1.87641   1.88015   1.88310   1.89035   1.89842
 Alpha virt. eigenvalues --    1.89848   1.89936   1.90595   1.90654   1.90824
 Alpha virt. eigenvalues --    1.90975   1.91507   1.91657   1.91668   1.92586
 Alpha virt. eigenvalues --    1.92846   1.93168   1.94054   1.94389   1.95083
 Alpha virt. eigenvalues --    1.95330   1.95591   1.95933   1.96680   1.96687
 Alpha virt. eigenvalues --    1.97216   1.98495   1.98958   1.99670   1.99978
 Alpha virt. eigenvalues --    2.00429   2.00769   2.01210   2.01557   2.02004
 Alpha virt. eigenvalues --    2.02941   2.02956   2.03424   2.03635   2.04224
 Alpha virt. eigenvalues --    2.04729   2.05028   2.06141   2.06181   2.06967
 Alpha virt. eigenvalues --    2.07367   2.07379   2.08485   2.08766   2.08784
 Alpha virt. eigenvalues --    2.09649   2.09653   2.10692   2.10972   2.11094
 Alpha virt. eigenvalues --    2.11578   2.11984   2.12164   2.12709   2.12741
 Alpha virt. eigenvalues --    2.13233   2.13251   2.13774   2.13977   2.14431
 Alpha virt. eigenvalues --    2.15104   2.15128   2.16375   2.16456   2.16977
 Alpha virt. eigenvalues --    2.17130   2.17469   2.17768   2.18148   2.18407
 Alpha virt. eigenvalues --    2.18534   2.18568   2.19728   2.20545   2.21443
 Alpha virt. eigenvalues --    2.22376   2.22919   2.23365   2.23573   2.24103
 Alpha virt. eigenvalues --    2.24791   2.25099   2.25446   2.25909   2.26068
 Alpha virt. eigenvalues --    2.26869   2.28124   2.28429   2.28593   2.29006
 Alpha virt. eigenvalues --    2.29613   2.30413   2.31005   2.31046   2.32022
 Alpha virt. eigenvalues --    2.32630   2.33104   2.33523   2.33972   2.34811
 Alpha virt. eigenvalues --    2.34933   2.35918   2.36596   2.37274   2.37401
 Alpha virt. eigenvalues --    2.38216   2.38693   2.38746   2.39039   2.39357
 Alpha virt. eigenvalues --    2.40165   2.40890   2.41738   2.41911   2.42075
 Alpha virt. eigenvalues --    2.42458   2.42555   2.43185   2.44139   2.44487
 Alpha virt. eigenvalues --    2.44512   2.44763   2.44783   2.45777   2.45823
 Alpha virt. eigenvalues --    2.46199   2.46651   2.47309   2.47703   2.47737
 Alpha virt. eigenvalues --    2.48221   2.48675   2.49533   2.49661   2.51983
 Alpha virt. eigenvalues --    2.52023   2.52564   2.52920   2.52990   2.53626
 Alpha virt. eigenvalues --    2.54235   2.54549   2.55408   2.55958   2.57190
 Alpha virt. eigenvalues --    2.57592   2.57777   2.58524   2.58868   2.59657
 Alpha virt. eigenvalues --    2.59672   2.59980   2.60201   2.60537   2.60678
 Alpha virt. eigenvalues --    2.60779   2.61928   2.62356   2.63114   2.63910
 Alpha virt. eigenvalues --    2.64289   2.64324   2.64709   2.64875   2.65680
 Alpha virt. eigenvalues --    2.66615   2.68027   2.68059   2.68149   2.69489
 Alpha virt. eigenvalues --    2.69807   2.70831   2.71498   2.71739   2.73449
 Alpha virt. eigenvalues --    2.73452   2.74040   2.74573   2.74584   2.75243
 Alpha virt. eigenvalues --    2.76149   2.76776   2.76904   2.78020   2.78592
 Alpha virt. eigenvalues --    2.79478   2.81274   2.81296   2.82227   2.82929
 Alpha virt. eigenvalues --    2.83717   2.84041   2.84481   2.85032   2.85734
 Alpha virt. eigenvalues --    2.86148   2.86510   2.86757   2.88299   2.88374
 Alpha virt. eigenvalues --    2.88641   2.89428   2.90471   2.92026   2.92286
 Alpha virt. eigenvalues --    2.92520   2.92940   2.93016   2.93609   2.93651
 Alpha virt. eigenvalues --    2.94412   2.95071   2.95746   2.95848   2.96991
 Alpha virt. eigenvalues --    2.97417   2.97956   2.98562   2.98750   2.99536
 Alpha virt. eigenvalues --    2.99572   2.99581   2.99768   3.00141   3.00896
 Alpha virt. eigenvalues --    3.01586   3.02105   3.02360   3.03362   3.03589
 Alpha virt. eigenvalues --    3.04283   3.04301   3.04410   3.04977   3.05577
 Alpha virt. eigenvalues --    3.05608   3.06151   3.06888   3.07240   3.07583
 Alpha virt. eigenvalues --    3.08237   3.08770   3.09144   3.09187   3.09240
 Alpha virt. eigenvalues --    3.09669   3.09734   3.10118   3.10498   3.10907
 Alpha virt. eigenvalues --    3.11270   3.11537   3.11979   3.12308   3.12768
 Alpha virt. eigenvalues --    3.13208   3.13677   3.13997   3.14064   3.14414
 Alpha virt. eigenvalues --    3.14681   3.15228   3.15241   3.15707   3.15850
 Alpha virt. eigenvalues --    3.16243   3.16570   3.16798   3.17656   3.17826
 Alpha virt. eigenvalues --    3.18338   3.18987   3.19598   3.19622   3.19967
 Alpha virt. eigenvalues --    3.20530   3.21464   3.21769   3.22460   3.22763
 Alpha virt. eigenvalues --    3.23982   3.23996   3.25120   3.26081   3.27703
 Alpha virt. eigenvalues --    3.29494   3.30821   3.31891   3.33100   3.33495
 Alpha virt. eigenvalues --    3.34798   3.35119   3.37913   3.38031   3.39007
 Alpha virt. eigenvalues --    3.42330   3.42631   3.44432   3.45907   3.46684
 Alpha virt. eigenvalues --    3.47487   3.47949   3.48857   3.49066   3.51736
 Alpha virt. eigenvalues --    3.53060   3.53192   3.54228   3.54935   3.56030
 Alpha virt. eigenvalues --    3.56478   3.57489   3.58552   3.59147   3.61836
 Alpha virt. eigenvalues --    3.62271   3.64677   3.64865   3.65881   3.67195
 Alpha virt. eigenvalues --    3.67802   3.69300   3.70011   3.70914   3.72021
 Alpha virt. eigenvalues --    3.72795   3.75401   3.76998   3.77184   3.77932
 Alpha virt. eigenvalues --    3.78348   3.80318   3.80766   3.81285   3.82851
 Alpha virt. eigenvalues --    3.84868   3.85171   3.85834   3.85948   3.87083
 Alpha virt. eigenvalues --    3.88908   3.89782   3.91105   3.91758   3.92976
 Alpha virt. eigenvalues --    3.93316   3.93697   3.93903   3.94983   3.95519
 Alpha virt. eigenvalues --    3.97919   3.98736   4.00030   4.03324   4.04138
 Alpha virt. eigenvalues --    4.04669   4.05782   4.09300   4.13741   4.18032
 Alpha virt. eigenvalues --    4.23121   4.24975   4.26402   4.30509   4.32517
 Alpha virt. eigenvalues --    4.33416   4.36665   4.38686   4.40004   4.40069
 Alpha virt. eigenvalues --    4.41197   4.41432   4.45263   4.53228   4.56429
 Alpha virt. eigenvalues --    4.56946   4.57514   4.59675   4.61160   4.61795
 Alpha virt. eigenvalues --    4.67898   4.68718   4.69675   4.70808   4.77206
 Alpha virt. eigenvalues --    4.78058   4.87409   4.90310   4.92556   4.93408
 Alpha virt. eigenvalues --    4.99418   5.02244   5.04016   5.05063  23.08083
 Alpha virt. eigenvalues --   23.24948  23.26196  23.33351  23.44042  23.46676
 Alpha virt. eigenvalues --   23.52479  23.56673  23.59610  23.64538  23.68504
 Alpha virt. eigenvalues --   23.72438  23.74956  23.79230  23.79422  23.80425
 Alpha virt. eigenvalues --   23.81143  23.83448  23.84057  23.84971  23.86016
 Alpha virt. eigenvalues --   23.86211  23.87002  23.87016  23.88236  23.89509
 Alpha virt. eigenvalues --   23.90191  23.92097  23.93714  23.94438  23.94641
 Alpha virt. eigenvalues --   23.95433  23.96861  23.97585  23.98772  23.99003
 Alpha virt. eigenvalues --   23.99681  24.00073  24.01147  24.01257  24.01703
 Alpha virt. eigenvalues --   24.02870  24.03194  24.03985  24.04581  24.05182
 Alpha virt. eigenvalues --   24.06105  24.06578  24.07323  24.08301  24.09230
 Alpha virt. eigenvalues --   24.09919  24.10408  24.11662  24.11947  24.13411
 Alpha virt. eigenvalues --   24.14018  24.14169  24.14682  24.15561  24.15851
 Alpha virt. eigenvalues --   24.16730  24.17136  24.17160  24.18246  24.19314
          Condensed to atoms (all electrons):
 Mulliken charges:
               1
     1  C    0.000682
     2  C   -0.019228
     3  C    0.011854
     4  C   -0.013682
     5  C    0.014347
     6  C   -0.022219
     7  C   -0.134049
     8  C   -0.149222
     9  C    0.022806
    10  C   -0.144895
    11  C   -0.023171
    12  C    0.006263
    13  C   -0.012779
    14  C    0.004438
    15  C    0.004438
    16  C   -0.013492
    17  C    0.020505
    18  C    0.015443
    19  C    0.000513
    20  C   -0.005424
    21  C   -0.132353
    22  C   -0.012508
    23  C   -0.006575
    24  C    0.012914
    25  C   -0.005424
    26  C    0.000513
    27  C    0.015443
    28  C   -0.031287
    29  C    0.020662
    30  C    0.005398
    31  C    0.005398
    32  C    0.020662
    33  C   -0.144895
    34  C   -0.009672
    35  C   -0.009672
    36  C   -0.008065
    37  C   -0.134049
    38  C   -0.005200
    39  C   -0.002422
    40  C   -0.031287
    41  C   -0.000916
    42  C   -0.003910
    43  C   -0.013127
    44  C   -0.008065
    45  C    0.012914
    46  C   -0.006575
    47  C   -0.005200
    48  C   -0.012508
    49  C   -0.002422
    50  C   -0.132353
    51  C   -0.013682
    52  C    0.011854
    53  C    0.014347
    54  C   -0.012779
    55  C    0.006263
    56  C    0.020505
    57  C   -0.013492
    58  C   -0.165917
    59  C   -0.148395
    60  C   -0.023171
    61  C    0.022806
    62  C   -0.022219
    63  C   -0.149222
    64  C   -0.019228
    65  C    0.000682
    66  C   -0.000916
    67  H    0.156386
    68  H    0.143918
    69  H    0.144408
    70  H    0.144408
    71  H    0.143918
    72  H    0.156386
    73  H    0.168363
    74  H    0.168363
    75  H    0.163061
    76  H    0.164805
 Sum of Mulliken charges =  -0.00000
 Mulliken charges with hydrogens summed into heavy atoms:
               1
     1  C    0.000682
     2  C   -0.019228
     3  C    0.011854
     4  C   -0.013682
     5  C    0.014347
     6  C   -0.022219
     7  C    0.022337
     8  C    0.019141
     9  C    0.022806
    10  C   -0.000977
    11  C   -0.023171
    12  C    0.006263
    13  C   -0.012779
    14  C    0.004438
    15  C    0.004438
    16  C   -0.013492
    17  C    0.020505
    18  C    0.015443
    19  C    0.000513
    20  C   -0.005424
    21  C    0.012055
    22  C   -0.012508
    23  C   -0.006575
    24  C    0.012914
    25  C   -0.005424
    26  C    0.000513
    27  C    0.015443
    28  C   -0.031287
    29  C    0.020662
    30  C    0.005398
    31  C    0.005398
    32  C    0.020662
    33  C   -0.000977
    34  C   -0.009672
    35  C   -0.009672
    36  C   -0.008065
    37  C    0.022337
    38  C   -0.005200
    39  C   -0.002422
    40  C   -0.031287
    41  C   -0.000916
    42  C   -0.003910
    43  C   -0.013127
    44  C   -0.008065
    45  C    0.012914
    46  C   -0.006575
    47  C   -0.005200
    48  C   -0.012508
    49  C   -0.002422
    50  C    0.012055
    51  C   -0.013682
    52  C    0.011854
    53  C    0.014347
    54  C   -0.012779
    55  C    0.006263
    56  C    0.020505
    57  C   -0.013492
    58  C   -0.002856
    59  C    0.016410
    60  C   -0.023171
    61  C    0.022806
    62  C   -0.022219
    63  C    0.019141
    64  C   -0.019228
    65  C    0.000682
    66  C   -0.000916
 Electronic spatial extent (au):  <R**2>=          21880.6984
 Charge=             -0.0000 electrons
 Dipole moment (field-independent basis, Debye):
    X=              2.4827    Y=              3.0801    Z=             -0.0000  Tot=              3.9561
 Quadrupole moment (field-independent basis, Debye-Ang):
   XX=           -335.6533   YY=           -372.5016   ZZ=           -374.9941
   XY=             -0.7676   XZ=              0.0000   YZ=              0.0000
 Traceless Quadrupole moment (field-independent basis, Debye-Ang):
   XX=             25.3964   YY=            -11.4520   ZZ=            -13.9444
   XY=             -0.7676   XZ=              0.0000   YZ=              0.0000
 Octapole moment (field-independent basis, Debye-Ang**2):
  XXX=             65.9474  YYY=            114.7851  ZZZ=             -0.0000  XYY=             -0.5970
  XXY=             25.8092  XXZ=             -0.0000  XZZ=             53.6448  YZZ=             -6.8251
  YYZ=             -0.0000  XYZ=              0.0000
 Hexadecapole moment (field-independent basis, Debye-Ang**3):
 XXXX=         -12146.4966 YYYY=         -10958.9734 ZZZZ=          -8774.6256 XXXY=             40.3413
 XXXZ=              0.0000 YYYX=            -38.4302 YYYZ=             -0.0000 ZZZX=              0.0000
 ZZZY=              0.0000 XXYY=          -4173.7628 XXZZ=          -3547.8705 YYZZ=          -3438.7527
 XXYZ=             -0.0000 YYXZ=             -0.0000 ZZXY=            -15.6972
 N-N= 1.001162909627D+04 E-N=-2.587339975788D+04  KE= 2.511043495770D+03
 No NMR shielding tensors so no spin-rotation constants.
 Leave Link  601 at Wed Jul 20 09:23:51 2022, MaxMem=  1342177280 cpu:              59.7 elap:               1.5
 (Enter /home/mkliu/g16/l9999.exe)
 1\1\GINC-NODE02\FOpt\RB3LYP\6-311G(d,p)\C66H10\MKLIU\20-Jul-2022\0\\#P
  opt b3lyp/6-311G(d, p) empiricaldispersion=GD3\\force\\0,1\C,12.76081
 6998,12.0792257661,21.9034125643\C,12.7596438836,13.0141240282,22.9087
 891095\C,12.6880704329,14.4068295402,22.572343346\C,12.5991245605,14.8
 415313639,21.2485678096\C,13.5019266699,15.1429910209,23.4909375272\C,
 14.0920334247,14.2397818812,24.4224894573\C,15.6246988748,17.357206604
 4,18.7334385181\C,13.505014412,12.8412410922,24.2330376295\C,15.378188
 1636,14.4846854284,24.8543287163\C,16.9155003501,17.015973481,17.86121
 24204\C,16.0537700519,15.6925399615,24.4932216711\C,15.4654629739,16.5
 624990541,23.6005901848\C,14.1893964726,16.2718210601,23.0375244885\C,
 19.2002424591,14.0430481451,22.5722835661\C,16.2502702305,17.245140091
 3,22.5749055691\C,19.2020055737,15.4226289523,22.5521574326\C,19.26364
 59626,16.0659755964,21.3073236209\C,17.4494464845,11.5661009533,19.300
 211785\C,17.7033552959,11.2721471837,20.7393121355\C,18.4696590058,12.
 0170727653,21.6305639834\C,18.1730303362,17.1587702152,18.7749607781\C
 ,17.5679767382,17.3958960838,20.1369318452\C,16.1662219404,17.46117112
 51,20.1477491949\C,15.4805183238,17.3258750369,21.3661891632\C,14.1705
 403723,16.6836160837,21.6343851366\C,13.3646824598,15.9816252069,20.74
 31684473\C,13.6356997368,15.7057900214,19.3036015345\C,14.6737771661,1
 6.1768500698,18.5124181275\C,15.2798075085,15.2780226139,17.5710027737
 \C,16.6658596616,15.6024785927,17.4244630153\C,17.592892485,14.5962167
 974,17.4236390483\C,17.1562297307,13.2412317439,17.5693349651\C,19.022
 4303989,14.7289744058,17.8593397329\C,15.8141920255,12.9076223618,17.4
 096101942\C,14.8373736097,13.9679246807,17.4104784079\C,13.688008948,1
 3.5146415953,18.1174799595\C,19.2576104097,13.4138078534,18.7302095054
 \C,13.0849043888,14.3853668842,19.0263277706\C,12.4779679788,13.859964
 1228,20.2166054431\C,18.003222331,12.562853481,18.5094588418\C,12.5800
 250011,12.495938945,20.5343030283\C,13.3755347302,11.6392204098,19.681
 1002114\C,13.9056977143,12.1286095214,18.497710268\C,15.2689586834,11.
 798575803,18.1160747726\C,19.2167348362,13.2703423482,21.3628683307\C,
 19.4066909104,13.9437550997,20.1448689933\C,16.0881561918,11.125441811
 1,19.0236584091\C,19.4563253161,15.3461595803,20.1352534375\C,15.51582
 39246,10.5624774545,20.2139053281\C,19.2683920289,15.969793303,18.7739
 87196\C,16.5048552037,10.6019969935,21.2450963063\C,16.0799695967,10.7
 250413241,22.5693285474\C,16.8810061322,11.4751181403,23.487934122\C,1
 8.0619330201,12.0683177291,23.0340824862\C,18.45651055,13.3158212589,2
 3.5979316797\C,18.2705691523,17.1439258198,21.3082062908\C,17.62535221
 98,17.1340311581,22.5535587989\C,18.4267316033,16.2895335481,23.556106
 0491\C,17.5685168751,15.4980328682,24.6042876091\C,17.6383360268,13.97
 25488717,24.4918132774\C,16.3795470694,13.3977452648,24.8534386882\C,1
 6.0298721043,12.1363255934,24.4207670642\C,14.5878337869,11.6658784346
 ,24.2320751998\C,14.698065866,10.9100345943,22.9070661967\C,13.7655784
 455,10.9885922639,21.9025195119\C,14.1649833799,10.7755219126,20.53289
 42832\H,15.157857619,18.2963924028,18.4210147253\H,16.9879272897,17.68
 62074861,17.0016797573\H,18.7209429502,18.0539219795,18.4718931792\H,2
 0.2051276731,16.4428912301,18.4705739939\H,19.6956415769,14.7470780761
 ,16.9992730793\H,20.1551919762,12.8719602625,18.4165729851\H,12.796662
 4773,12.6146494833,25.0355658555\H,14.3046957361,10.9777319775,25.0342
 254798\H,19.1217520612,16.9293787138,24.1083559917\H,17.9000018164,15.
 802600394,25.6028190122\\Version=ES64L-G16RevA.03\State=1-A\HF=-2521.4
 865299\RMSD=3.884e-09\RMSF=9.352e-05\Dipole=1.141212,1.0512575,0.12246
 96\Quadrupole=-2.6898197,-3.8360777,6.5258974,7.0812377,-10.0277914,-9
 .2520767\PG=C01 [X(C66H10)]\\@


 A SUCCESSFUL PURSUIT OF SCIENCE MAKES A MAN THE
 BENEFACTOR OF ALL MANKIND OF EVERY AGE.
   --  JOSEPH PRIESTLEY, "EXPERIMENTS AND
 OBSERVATIONS ON DIFFERENT KINDS OF AIR", 1774
 Job cpu time:       1 days  3 hours 21 minutes 50.8 seconds.
 Elapsed time:       0 days  0 hours 34 minutes 17.1 seconds.
 File lengths (MBytes):  RWF=    957 Int=      0 D2E=      0 Chk=    120 Scr=      1
 Normal termination of Gaussian 16 at Wed Jul 20 09:23:52 2022.
