 Entering Gaussian System, Link 0=g16
 Input=dihept_10_addons_9.gjf
 Output=dihept_10_addons_9.log
 Initial command:
 /home/mkliu/g16/l1.exe "/data/scratch/Gau-131757.inp" -scrdir="/data/scratch/"
 Entering Link 1 = /home/mkliu/g16/l1.exe PID=    131758.
  
 Copyright (c) 1988,1990,1992,1993,1995,1998,2003,2009,2016,
            Gaussian, Inc.  All Rights Reserved.
  
 This is part of the Gaussian(R) 16 program.  It is based on
 the Gaussian(R) 09 system (copyright 2009, Gaussian, Inc.),
 the Gaussian(R) 03 system (copyright 2003, Gaussian, Inc.),
 the Gaussian(R) 98 system (copyright 1998, Gaussian, Inc.),
 the Gaussian(R) 94 system (copyright 1995, Gaussian, Inc.),
 the Gaussian 92(TM) system (copyright 1992, Gaussian, Inc.),
 the Gaussian 90(TM) system (copyright 1990, Gaussian, Inc.),
 the Gaussian 88(TM) system (copyright 1988, Gaussian, Inc.),
 the Gaussian 86(TM) system (copyright 1986, Carnegie Mellon
 University), and the Gaussian 82(TM) system (copyright 1983,
 Carnegie Mellon University). Gaussian is a federally registered
 trademark of Gaussian, Inc.
  
 This software contains proprietary and confidential information,
 including trade secrets, belonging to Gaussian, Inc.
  
 This software is provided under written license and may be
 used, copied, transmitted, or stored only in accord with that
 written license.
  
 The following legend is applicable only to US Government
 contracts under FAR:
  
                    RESTRICTED RIGHTS LEGEND
  
 Use, reproduction and disclosure by the US Government is
 subject to restrictions as set forth in subparagraphs (a)
 and (c) of the Commercial Computer Software - Restricted
 Rights clause in FAR 52.227-19.
  
 Gaussian, Inc.
 340 Quinnipiac St., Bldg. 40, Wallingford CT 06492
  
  
 ---------------------------------------------------------------
 Warning -- This program may not be used in any manner that
 competes with the business of Gaussian, Inc. or will provide
 assistance to any competitor of Gaussian, Inc.  The licensee
 of this program is prohibited from giving any competitor of
 Gaussian, Inc. access to this program.  By using this program,
 the user acknowledges that Gaussian, Inc. is engaged in the
 business of creating and licensing software in the field of
 computational chemistry and represents and warrants to the
 licensee that it is not a competitor of Gaussian, Inc. and that
 it will not use this program in any manner prohibited above.
 ---------------------------------------------------------------
  

 Cite this work as:
 Gaussian 16, Revision A.03,
 M. J. Frisch, G. W. Trucks, H. B. Schlegel, G. E. Scuseria, 
 M. A. Robb, J. R. Cheeseman, G. Scalmani, V. Barone, 
 G. A. Petersson, H. Nakatsuji, X. Li, M. Caricato, A. V. Marenich, 
 J. Bloino, B. G. Janesko, R. Gomperts, B. Mennucci, H. P. Hratchian, 
 J. V. Ortiz, A. F. Izmaylov, J. L. Sonnenberg, D. Williams-Young, 
 F. Ding, F. Lipparini, F. Egidi, J. Goings, B. Peng, A. Petrone, 
 T. Henderson, D. Ranasinghe, V. G. Zakrzewski, J. Gao, N. Rega, 
 G. Zheng, W. Liang, M. Hada, M. Ehara, K. Toyota, R. Fukuda, 
 J. Hasegawa, M. Ishida, T. Nakajima, Y. Honda, O. Kitao, H. Nakai, 
 T. Vreven, K. Throssell, J. A. Montgomery, Jr., J. E. Peralta, 
 F. Ogliaro, M. J. Bearpark, J. J. Heyd, E. N. Brothers, K. N. Kudin, 
 V. N. Staroverov, T. A. Keith, R. Kobayashi, J. Normand, 
 K. Raghavachari, A. P. Rendell, J. C. Burant, S. S. Iyengar, 
 J. Tomasi, M. Cossi, J. M. Millam, M. Klene, C. Adamo, R. Cammi, 
 J. W. Ochterski, R. L. Martin, K. Morokuma, O. Farkas, 
 J. B. Foresman, and D. J. Fox, Gaussian, Inc., Wallingford CT, 2016.
 
 ******************************************
 Gaussian 16:  ES64L-G16RevA.03 25-Dec-2016
                20-Jul-2022 
 ******************************************
 %mem=10GB
 %chk=dihept_10_addons_9.chk
 %nprocshared=48
 Will use up to   48 processors via shared memory.
 -------------------------------------------------
 #P opt b3lyp/6-311G(d, p) empiricaldispersion=GD3
 -------------------------------------------------
 1/18=20,19=15,26=3,38=1/1,3;
 2/9=110,12=2,17=6,18=5,40=1/2;
 3/5=4,6=6,7=101,11=2,25=1,30=1,71=1,74=-5,124=31/1,2,3;
 4//1;
 5/5=2,38=5/2;
 6/7=2,8=2,9=2,10=2,28=1/1;
 7//1,2,3,16;
 1/18=20,19=15,26=3/3(2);
 2/9=110/2;
 99//99;
 2/9=110/2;
 3/5=4,6=6,7=101,11=2,25=1,30=1,71=1,74=-5,124=31/1,2,3;
 4/5=5,16=3,69=1/1;
 5/5=2,38=5/2;
 7//1,2,3,16;
 1/18=20,19=15,26=3/3(-5);
 2/9=110/2;
 6/7=2,8=2,9=2,10=2,19=2,28=1/1;
 99/9=1/99;
 Leave Link    1 at Wed Jul 20 06:36:14 2022, MaxMem=  1342177280 cpu:               2.0 elap:               0.0
 (Enter /home/mkliu/g16/l101.exe)
 -----
 force
 -----
 Symbolic Z-matrix:
 Charge =  0 Multiplicity = 1
 C                     12.56647   11.93063   21.93939 
 C                     12.52554   12.99156   23.0794 
 C                     12.75719   14.39726   22.57815 
 C                     12.67312   14.82763   21.28045 
 C                     13.57256   15.12283   23.46275 
 C                     14.16198   14.22732   24.39002 
 C                     15.63826   17.33647   18.75244 
 C                     13.54437   12.8535   24.28131 
 C                     15.42392   14.49303   24.85549 
 C                     16.91791   17.01495   17.89541 
 C                     16.09441   15.70545   24.47837 
 C                     15.49058   16.59796   23.5938 
 C                     14.22736   16.27616   23.02196 
 C                     19.24822   14.04697   22.59147 
 C                     16.25146   17.28411   22.59807 
 C                     19.20606   15.43527   22.58066 
 C                     19.25613   16.089    21.32041 
 C                     17.47017   11.63618   19.33364 
 C                     17.73458   11.32709   20.74821 
 C                     18.51784   12.03905   21.64101 
 C                     17.97229   16.80592   18.92899 
 C                     17.55548   17.3737   20.16606 
 C                     16.13659   17.50613   20.17521 
 C                     15.47567   17.36918   21.37658 
 C                     14.19802   16.69398   21.64863 
 C                     13.42904   15.94628   20.76794 
 C                     13.71005   15.67063   19.35437 
 C                     14.75032   16.13446   18.55971 
 C                     15.31243   15.29212   17.57977 
 C                     16.64661   15.7388   17.0647 
 C                     17.73248   14.57291   17.06025 
 C                     17.19225   13.27247   17.57152 
 C                     19.02794   14.74799   17.88845 
 C                     15.86648   12.93295   17.41523 
 C                     14.87571   13.99764   17.41672 
 C                     13.75148   13.53244   18.14187 
 C                     19.26032   13.44522   18.73935 
 C                     13.14732   14.38396   19.06348 
 C                     12.52944   13.84018   20.23151 
 C                     17.99944   12.64649   18.54143 
 C                     12.60669   12.50436   20.53185 
 C                     13.4271   11.68361   19.69595 
 C                     13.96316   12.16243   18.51105 
 C                     15.32281   11.84737   18.14213 
 C                     19.2752   13.26942   21.36889 
 C                     19.45932   13.92158   20.16712 
 C                     16.1396   11.18194   19.04888 
 C                     19.43314   15.34646   20.16194 
 C                     15.56085   10.63034   20.23463 
 C                     18.89764   15.80964   18.92661 
 C                     16.54773   10.67181   21.25512 
 C                     16.1143   10.80332   22.56783 
 C                     16.92011   11.52595   23.48796 
 C                     18.10786   12.0934   23.0307 
 C                     18.51719   13.33556   23.59315 
 C                     18.28547   17.1392   21.32297 
 C                     17.63312   17.13658   22.5849 
 C                     18.25401   16.13069   23.41385 
 C                     17.49738   15.4252   24.3327 
 C                     17.67703   14.0056   24.48419 
 C                     16.41987   13.42774   24.8679 
 C                     16.06252   12.18458   24.41646 
 C                     14.62895   11.71879   24.2297 
 C                     14.74102   11.02079   22.89731 
 C                     13.81903   11.08512   21.90496 
 C                     14.22544   10.85537   20.55567 
 H                     15.13078   18.24519   18.41021 
 H                     17.1739   17.85257   17.24141 
 H                     19.87932   14.94653   17.23233 
 H                     20.13312   12.87867   18.39656 
 H                     11.51871   12.94817   23.50926 
 H                     11.68579   11.28552   22.0411 
 H                     16.52813   16.02808   16.01561 
 H                     18.01037   14.43993   16.00987 
 H                     12.9577   12.66873   25.18718 
 H                     14.37823   10.98888   25.00796 
 
 ITRead=  0  0  0  0  0  0  0  0  0  0  0  0  0  0  0  0  0  0  0  0
 ITRead=  0  0  0  0  0  0  0  0  0  0  0  0  0  0  0  0  0  0  0  0
 ITRead=  0  0  0  0  0  0  0  0  0  0  0  0  0  0  0  0  0  0  0  0
 ITRead=  0  0  0  0  0  0  0  0  0  0  0  0  0  0  0  0
 MicOpt= -1 -1 -1 -1 -1 -1 -1 -1 -1 -1 -1 -1 -1 -1 -1 -1 -1 -1 -1 -1
 MicOpt= -1 -1 -1 -1 -1 -1 -1 -1 -1 -1 -1 -1 -1 -1 -1 -1 -1 -1 -1 -1
 MicOpt= -1 -1 -1 -1 -1 -1 -1 -1 -1 -1 -1 -1 -1 -1 -1 -1 -1 -1 -1 -1
 MicOpt= -1 -1 -1 -1 -1 -1 -1 -1 -1 -1 -1 -1 -1 -1 -1 -1
 NAtoms=     76 NQM=       76 NQMF=       0 NMMI=      0 NMMIF=      0
                NMic=       0 NMicF=      0.
                    Isotopes and Nuclear Properties:
 (Nuclear quadrupole moments (NQMom) in fm**2, nuclear magnetic moments (NMagM)
  in nuclear magnetons)

  Atom         1           2           3           4           5           6           7           8           9          10
 IAtWgt=          12          12          12          12          12          12          12          12          12          12
 AtmWgt=  12.0000000  12.0000000  12.0000000  12.0000000  12.0000000  12.0000000  12.0000000  12.0000000  12.0000000  12.0000000
 NucSpn=           0           0           0           0           0           0           0           0           0           0
 AtZEff=  -0.0000000  -0.0000000  -0.0000000  -0.0000000  -0.0000000  -0.0000000  -0.0000000  -0.0000000  -0.0000000  -0.0000000
 NQMom=    0.0000000   0.0000000   0.0000000   0.0000000   0.0000000   0.0000000   0.0000000   0.0000000   0.0000000   0.0000000
 NMagM=    0.0000000   0.0000000   0.0000000   0.0000000   0.0000000   0.0000000   0.0000000   0.0000000   0.0000000   0.0000000
 AtZNuc=   6.0000000   6.0000000   6.0000000   6.0000000   6.0000000   6.0000000   6.0000000   6.0000000   6.0000000   6.0000000

  Atom        11          12          13          14          15          16          17          18          19          20
 IAtWgt=          12          12          12          12          12          12          12          12          12          12
 AtmWgt=  12.0000000  12.0000000  12.0000000  12.0000000  12.0000000  12.0000000  12.0000000  12.0000000  12.0000000  12.0000000
 NucSpn=           0           0           0           0           0           0           0           0           0           0
 AtZEff=  -0.0000000  -0.0000000  -0.0000000  -0.0000000  -0.0000000  -0.0000000  -0.0000000  -0.0000000  -0.0000000  -0.0000000
 NQMom=    0.0000000   0.0000000   0.0000000   0.0000000   0.0000000   0.0000000   0.0000000   0.0000000   0.0000000   0.0000000
 NMagM=    0.0000000   0.0000000   0.0000000   0.0000000   0.0000000   0.0000000   0.0000000   0.0000000   0.0000000   0.0000000
 AtZNuc=   6.0000000   6.0000000   6.0000000   6.0000000   6.0000000   6.0000000   6.0000000   6.0000000   6.0000000   6.0000000

  Atom        21          22          23          24          25          26          27          28          29          30
 IAtWgt=          12          12          12          12          12          12          12          12          12          12
 AtmWgt=  12.0000000  12.0000000  12.0000000  12.0000000  12.0000000  12.0000000  12.0000000  12.0000000  12.0000000  12.0000000
 NucSpn=           0           0           0           0           0           0           0           0           0           0
 AtZEff=  -0.0000000  -0.0000000  -0.0000000  -0.0000000  -0.0000000  -0.0000000  -0.0000000  -0.0000000  -0.0000000  -0.0000000
 NQMom=    0.0000000   0.0000000   0.0000000   0.0000000   0.0000000   0.0000000   0.0000000   0.0000000   0.0000000   0.0000000
 NMagM=    0.0000000   0.0000000   0.0000000   0.0000000   0.0000000   0.0000000   0.0000000   0.0000000   0.0000000   0.0000000
 AtZNuc=   6.0000000   6.0000000   6.0000000   6.0000000   6.0000000   6.0000000   6.0000000   6.0000000   6.0000000   6.0000000

  Atom        31          32          33          34          35          36          37          38          39          40
 IAtWgt=          12          12          12          12          12          12          12          12          12          12
 AtmWgt=  12.0000000  12.0000000  12.0000000  12.0000000  12.0000000  12.0000000  12.0000000  12.0000000  12.0000000  12.0000000
 NucSpn=           0           0           0           0           0           0           0           0           0           0
 AtZEff=  -0.0000000  -0.0000000  -0.0000000  -0.0000000  -0.0000000  -0.0000000  -0.0000000  -0.0000000  -0.0000000  -0.0000000
 NQMom=    0.0000000   0.0000000   0.0000000   0.0000000   0.0000000   0.0000000   0.0000000   0.0000000   0.0000000   0.0000000
 NMagM=    0.0000000   0.0000000   0.0000000   0.0000000   0.0000000   0.0000000   0.0000000   0.0000000   0.0000000   0.0000000
 AtZNuc=   6.0000000   6.0000000   6.0000000   6.0000000   6.0000000   6.0000000   6.0000000   6.0000000   6.0000000   6.0000000

  Atom        41          42          43          44          45          46          47          48          49          50
 IAtWgt=          12          12          12          12          12          12          12          12          12          12
 AtmWgt=  12.0000000  12.0000000  12.0000000  12.0000000  12.0000000  12.0000000  12.0000000  12.0000000  12.0000000  12.0000000
 NucSpn=           0           0           0           0           0           0           0           0           0           0
 AtZEff=  -0.0000000  -0.0000000  -0.0000000  -0.0000000  -0.0000000  -0.0000000  -0.0000000  -0.0000000  -0.0000000  -0.0000000
 NQMom=    0.0000000   0.0000000   0.0000000   0.0000000   0.0000000   0.0000000   0.0000000   0.0000000   0.0000000   0.0000000
 NMagM=    0.0000000   0.0000000   0.0000000   0.0000000   0.0000000   0.0000000   0.0000000   0.0000000   0.0000000   0.0000000
 AtZNuc=   6.0000000   6.0000000   6.0000000   6.0000000   6.0000000   6.0000000   6.0000000   6.0000000   6.0000000   6.0000000

  Atom        51          52          53          54          55          56          57          58          59          60
 IAtWgt=          12          12          12          12          12          12          12          12          12          12
 AtmWgt=  12.0000000  12.0000000  12.0000000  12.0000000  12.0000000  12.0000000  12.0000000  12.0000000  12.0000000  12.0000000
 NucSpn=           0           0           0           0           0           0           0           0           0           0
 AtZEff=  -0.0000000  -0.0000000  -0.0000000  -0.0000000  -0.0000000  -0.0000000  -0.0000000  -0.0000000  -0.0000000  -0.0000000
 NQMom=    0.0000000   0.0000000   0.0000000   0.0000000   0.0000000   0.0000000   0.0000000   0.0000000   0.0000000   0.0000000
 NMagM=    0.0000000   0.0000000   0.0000000   0.0000000   0.0000000   0.0000000   0.0000000   0.0000000   0.0000000   0.0000000
 AtZNuc=   6.0000000   6.0000000   6.0000000   6.0000000   6.0000000   6.0000000   6.0000000   6.0000000   6.0000000   6.0000000

  Atom        61          62          63          64          65          66          67          68          69          70
 IAtWgt=          12          12          12          12          12          12           1           1           1           1
 AtmWgt=  12.0000000  12.0000000  12.0000000  12.0000000  12.0000000  12.0000000   1.0078250   1.0078250   1.0078250   1.0078250
 NucSpn=           0           0           0           0           0           0           1           1           1           1
 AtZEff=  -0.0000000  -0.0000000  -0.0000000  -0.0000000  -0.0000000  -0.0000000  -0.0000000  -0.0000000  -0.0000000  -0.0000000
 NQMom=    0.0000000   0.0000000   0.0000000   0.0000000   0.0000000   0.0000000   0.0000000   0.0000000   0.0000000   0.0000000
 NMagM=    0.0000000   0.0000000   0.0000000   0.0000000   0.0000000   0.0000000   2.7928460   2.7928460   2.7928460   2.7928460
 AtZNuc=   6.0000000   6.0000000   6.0000000   6.0000000   6.0000000   6.0000000   1.0000000   1.0000000   1.0000000   1.0000000

  Atom        71          72          73          74          75          76
 IAtWgt=           1           1           1           1           1           1
 AtmWgt=   1.0078250   1.0078250   1.0078250   1.0078250   1.0078250   1.0078250
 NucSpn=           1           1           1           1           1           1
 AtZEff=  -0.0000000  -0.0000000  -0.0000000  -0.0000000  -0.0000000  -0.0000000
 NQMom=    0.0000000   0.0000000   0.0000000   0.0000000   0.0000000   0.0000000
 NMagM=    2.7928460   2.7928460   2.7928460   2.7928460   2.7928460   2.7928460
 AtZNuc=   1.0000000   1.0000000   1.0000000   1.0000000   1.0000000   1.0000000
 Leave Link  101 at Wed Jul 20 06:36:15 2022, MaxMem=  1342177280 cpu:              21.1 elap:               0.5
 (Enter /home/mkliu/g16/l103.exe)

 GradGradGradGradGradGradGradGradGradGradGradGradGradGradGradGradGradGrad
 Berny optimization.
 Initialization pass.
                           ----------------------------
                           !    Initial Parameters    !
                           ! (Angstroms and Degrees)  !
 --------------------------                            --------------------------
 ! Name  Definition              Value          Derivative Info.                !
 --------------------------------------------------------------------------------
 ! R1    R(1,2)                  1.5578         estimate D2E/DX2                !
 ! R2    R(1,41)                 1.5205         estimate D2E/DX2                !
 ! R3    R(1,65)                 1.5116         estimate D2E/DX2                !
 ! R4    R(1,72)                 1.0964         estimate D2E/DX2                !
 ! R5    R(2,3)                  1.5103         estimate D2E/DX2                !
 ! R6    R(2,8)                  1.5817         estimate D2E/DX2                !
 ! R7    R(2,71)                 1.0956         estimate D2E/DX2                !
 ! R8    R(3,4)                  1.3698         estimate D2E/DX2                !
 ! R9    R(3,5)                  1.4049         estimate D2E/DX2                !
 ! R10   R(4,26)                 1.4441         estimate D2E/DX2                !
 ! R11   R(4,39)                 1.4478         estimate D2E/DX2                !
 ! R12   R(5,6)                  1.4175         estimate D2E/DX2                !
 ! R13   R(5,13)                 1.3976         estimate D2E/DX2                !
 ! R14   R(6,8)                  1.5102         estimate D2E/DX2                !
 ! R15   R(6,9)                  1.371          estimate D2E/DX2                !
 ! R16   R(7,10)                 1.5733         estimate D2E/DX2                !
 ! R17   R(7,23)                 1.517          estimate D2E/DX2                !
 ! R18   R(7,28)                 1.5068         estimate D2E/DX2                !
 ! R19   R(7,67)                 1.0956         estimate D2E/DX2                !
 ! R20   R(8,63)                 1.5705         estimate D2E/DX2                !
 ! R21   R(8,75)                 1.095          estimate D2E/DX2                !
 ! R22   R(9,11)                 1.4359         estimate D2E/DX2                !
 ! R23   R(9,61)                 1.4584         estimate D2E/DX2                !
 ! R24   R(10,21)                1.4912         estimate D2E/DX2                !
 ! R25   R(10,30)                1.5467         estimate D2E/DX2                !
 ! R26   R(10,68)                1.0931         estimate D2E/DX2                !
 ! R27   R(11,12)                1.3941         estimate D2E/DX2                !
 ! R28   R(11,59)                1.4381         estimate D2E/DX2                !
 ! R29   R(12,13)                1.4235         estimate D2E/DX2                !
 ! R30   R(12,15)                1.4287         estimate D2E/DX2                !
 ! R31   R(13,25)                1.4358         estimate D2E/DX2                !
 ! R32   R(14,16)                1.389          estimate D2E/DX2                !
 ! R33   R(14,45)                1.4491         estimate D2E/DX2                !
 ! R34   R(14,55)                1.4296         estimate D2E/DX2                !
 ! R35   R(15,24)                1.4495         estimate D2E/DX2                !
 ! R36   R(15,57)                1.3896         estimate D2E/DX2                !
 ! R37   R(16,17)                1.4206         estimate D2E/DX2                !
 ! R38   R(16,58)                1.4437         estimate D2E/DX2                !
 ! R39   R(17,48)                1.3874         estimate D2E/DX2                !
 ! R40   R(17,56)                1.4301         estimate D2E/DX2                !
 ! R41   R(18,19)                1.4719         estimate D2E/DX2                !
 ! R42   R(18,40)                1.3887         estimate D2E/DX2                !
 ! R43   R(18,47)                1.4345         estimate D2E/DX2                !
 ! R44   R(19,20)                1.3847         estimate D2E/DX2                !
 ! R45   R(19,51)                1.4474         estimate D2E/DX2                !
 ! R46   R(20,45)                1.4702         estimate D2E/DX2                !
 ! R47   R(20,54)                1.4499         estimate D2E/DX2                !
 ! R48   R(21,22)                1.4235         estimate D2E/DX2                !
 ! R49   R(21,50)                1.3597         estimate D2E/DX2                !
 ! R50   R(22,23)                1.4251         estimate D2E/DX2                !
 ! R51   R(22,56)                1.3879         estimate D2E/DX2                !
 ! R52   R(23,24)                1.378          estimate D2E/DX2                !
 ! R53   R(24,25)                1.4705         estimate D2E/DX2                !
 ! R54   R(25,26)                1.3878         estimate D2E/DX2                !
 ! R55   R(26,27)                1.4674         estimate D2E/DX2                !
 ! R56   R(27,28)                1.3888         estimate D2E/DX2                !
 ! R57   R(27,38)                1.4342         estimate D2E/DX2                !
 ! R58   R(28,29)                1.4092         estimate D2E/DX2                !
 ! R59   R(29,30)                1.4983         estimate D2E/DX2                !
 ! R60   R(29,35)                1.3759         estimate D2E/DX2                !
 ! R61   R(30,31)                1.5932         estimate D2E/DX2                !
 ! R62   R(30,73)                1.0947         estimate D2E/DX2                !
 ! R63   R(31,32)                1.4981         estimate D2E/DX2                !
 ! R64   R(31,33)                1.5475         estimate D2E/DX2                !
 ! R65   R(31,74)                1.0946         estimate D2E/DX2                !
 ! R66   R(32,34)                1.3774         estimate D2E/DX2                !
 ! R67   R(32,40)                1.4086         estimate D2E/DX2                !
 ! R68   R(33,37)                1.5733         estimate D2E/DX2                !
 ! R69   R(33,50)                1.4906         estimate D2E/DX2                !
 ! R70   R(33,69)                1.093          estimate D2E/DX2                !
 ! R71   R(34,35)                1.4544         estimate D2E/DX2                !
 ! R72   R(34,44)                1.4151         estimate D2E/DX2                !
 ! R73   R(35,36)                1.4164         estimate D2E/DX2                !
 ! R74   R(36,38)                1.3926         estimate D2E/DX2                !
 ! R75   R(36,43)                1.4346         estimate D2E/DX2                !
 ! R76   R(37,40)                1.5056         estimate D2E/DX2                !
 ! R77   R(37,46)                1.5182         estimate D2E/DX2                !
 ! R78   R(37,70)                1.0956         estimate D2E/DX2                !
 ! R79   R(38,39)                1.4289         estimate D2E/DX2                !
 ! R80   R(39,41)                1.3713         estimate D2E/DX2                !
 ! R81   R(41,42)                1.4302         estimate D2E/DX2                !
 ! R82   R(42,43)                1.3859         estimate D2E/DX2                !
 ! R83   R(42,66)                1.4361         estimate D2E/DX2                !
 ! R84   R(43,44)                1.4436         estimate D2E/DX2                !
 ! R85   R(44,47)                1.39           estimate D2E/DX2                !
 ! R86   R(45,46)                1.3797         estimate D2E/DX2                !
 ! R87   R(46,48)                1.4251         estimate D2E/DX2                !
 ! R88   R(47,49)                1.4301         estimate D2E/DX2                !
 ! R89   R(48,50)                1.4238         estimate D2E/DX2                !
 ! R90   R(49,51)                1.4202         estimate D2E/DX2                !
 ! R91   R(49,66)                1.3918         estimate D2E/DX2                !
 ! R92   R(51,52)                1.3887         estimate D2E/DX2                !
 ! R93   R(52,53)                1.4206         estimate D2E/DX2                !
 ! R94   R(52,64)                1.4289         estimate D2E/DX2                !
 ! R95   R(53,54)                1.3935         estimate D2E/DX2                !
 ! R96   R(53,62)                1.4253         estimate D2E/DX2                !
 ! R97   R(54,55)                1.4237         estimate D2E/DX2                !
 ! R98   R(55,60)                1.396          estimate D2E/DX2                !
 ! R99   R(56,57)                1.4206         estimate D2E/DX2                !
 ! R100  R(57,58)                1.4438         estimate D2E/DX2                !
 ! R101  R(58,59)                1.3836         estimate D2E/DX2                !
 ! R102  R(59,60)                1.4389         estimate D2E/DX2                !
 ! R103  R(60,61)                1.4358         estimate D2E/DX2                !
 ! R104  R(61,62)                1.37           estimate D2E/DX2                !
 ! R105  R(62,63)                1.5189         estimate D2E/DX2                !
 ! R106  R(63,64)                1.5083         estimate D2E/DX2                !
 ! R107  R(63,76)                1.096          estimate D2E/DX2                !
 ! R108  R(64,65)                1.3561         estimate D2E/DX2                !
 ! R109  R(65,66)                1.4278         estimate D2E/DX2                !
 ! A1    A(2,1,41)             114.907          estimate D2E/DX2                !
 ! A2    A(2,1,65)             114.795          estimate D2E/DX2                !
 ! A3    A(2,1,72)             108.163          estimate D2E/DX2                !
 ! A4    A(41,1,65)             99.6742         estimate D2E/DX2                !
 ! A5    A(41,1,72)            109.216          estimate D2E/DX2                !
 ! A6    A(65,1,72)            109.7905         estimate D2E/DX2                !
 ! A7    A(1,2,3)              112.7658         estimate D2E/DX2                !
 ! A8    A(1,2,8)              118.6669         estimate D2E/DX2                !
 ! A9    A(1,2,71)             106.5166         estimate D2E/DX2                !
 ! A10   A(3,2,8)              103.5708         estimate D2E/DX2                !
 ! A11   A(3,2,71)             107.9407         estimate D2E/DX2                !
 ! A12   A(8,2,71)             106.8789         estimate D2E/DX2                !
 ! A13   A(2,3,4)              126.6877         estimate D2E/DX2                !
 ! A14   A(2,3,5)              111.1455         estimate D2E/DX2                !
 ! A15   A(4,3,5)              118.0253         estimate D2E/DX2                !
 ! A16   A(3,4,26)             123.1942         estimate D2E/DX2                !
 ! A17   A(3,4,39)             118.5675         estimate D2E/DX2                !
 ! A18   A(26,4,39)            108.8536         estimate D2E/DX2                !
 ! A19   A(3,5,6)              109.0843         estimate D2E/DX2                !
 ! A20   A(3,5,13)             119.9686         estimate D2E/DX2                !
 ! A21   A(6,5,13)             122.1985         estimate D2E/DX2                !
 ! A22   A(5,6,8)              110.9509         estimate D2E/DX2                !
 ! A23   A(5,6,9)              118.8419         estimate D2E/DX2                !
 ! A24   A(8,6,9)              125.2516         estimate D2E/DX2                !
 ! A25   A(10,7,23)            105.4596         estimate D2E/DX2                !
 ! A26   A(10,7,28)            104.2766         estimate D2E/DX2                !
 ! A27   A(10,7,67)            112.0907         estimate D2E/DX2                !
 ! A28   A(23,7,28)            113.7504         estimate D2E/DX2                !
 ! A29   A(23,7,67)            110.63           estimate D2E/DX2                !
 ! A30   A(28,7,67)            110.4095         estimate D2E/DX2                !
 ! A31   A(2,8,6)              103.8119         estimate D2E/DX2                !
 ! A32   A(2,8,63)             118.8775         estimate D2E/DX2                !
 ! A33   A(2,8,75)             107.3542         estimate D2E/DX2                !
 ! A34   A(6,8,63)             112.1605         estimate D2E/DX2                !
 ! A35   A(6,8,75)             108.2442         estimate D2E/DX2                !
 ! A36   A(63,8,75)            105.9786         estimate D2E/DX2                !
 ! A37   A(6,9,11)             120.2832         estimate D2E/DX2                !
 ! A38   A(6,9,61)             119.3337         estimate D2E/DX2                !
 ! A39   A(11,9,61)            107.4651         estimate D2E/DX2                !
 ! A40   A(7,10,21)            103.0718         estimate D2E/DX2                !
 ! A41   A(7,10,30)            108.5729         estimate D2E/DX2                !
 ! A42   A(7,10,68)            111.0874         estimate D2E/DX2                !
 ! A43   A(21,10,30)           112.3727         estimate D2E/DX2                !
 ! A44   A(21,10,68)           110.8866         estimate D2E/DX2                !
 ! A45   A(30,10,68)           110.6088         estimate D2E/DX2                !
 ! A46   A(9,11,12)            120.3282         estimate D2E/DX2                !
 ! A47   A(9,11,59)            108.5186         estimate D2E/DX2                !
 ! A48   A(12,11,59)           118.8833         estimate D2E/DX2                !
 ! A49   A(11,12,13)           119.6384         estimate D2E/DX2                !
 ! A50   A(11,12,15)           121.2645         estimate D2E/DX2                !
 ! A51   A(13,12,15)           107.5298         estimate D2E/DX2                !
 ! A52   A(5,13,12)            118.4006         estimate D2E/DX2                !
 ! A53   A(5,13,25)            122.1573         estimate D2E/DX2                !
 ! A54   A(12,13,25)           109.6699         estimate D2E/DX2                !
 ! A55   A(16,14,45)           122.0256         estimate D2E/DX2                !
 ! A56   A(16,14,55)           119.1634         estimate D2E/DX2                !
 ! A57   A(45,14,55)           109.4894         estimate D2E/DX2                !
 ! A58   A(12,15,24)           109.2961         estimate D2E/DX2                !
 ! A59   A(12,15,57)           119.0223         estimate D2E/DX2                !
 ! A60   A(24,15,57)           122.0323         estimate D2E/DX2                !
 ! A61   A(14,16,17)           117.7611         estimate D2E/DX2                !
 ! A62   A(14,16,58)           119.8008         estimate D2E/DX2                !
 ! A63   A(17,16,58)           108.2738         estimate D2E/DX2                !
 ! A64   A(16,17,48)           119.9316         estimate D2E/DX2                !
 ! A65   A(16,17,56)           108.2058         estimate D2E/DX2                !
 ! A66   A(48,17,56)           118.7601         estimate D2E/DX2                !
 ! A67   A(19,18,40)           129.2399         estimate D2E/DX2                !
 ! A68   A(19,18,47)           106.9124         estimate D2E/DX2                !
 ! A69   A(40,18,47)           118.0759         estimate D2E/DX2                !
 ! A70   A(18,19,20)           127.8274         estimate D2E/DX2                !
 ! A71   A(18,19,51)           106.5196         estimate D2E/DX2                !
 ! A72   A(20,19,51)           118.0854         estimate D2E/DX2                !
 ! A73   A(19,20,45)           127.0367         estimate D2E/DX2                !
 ! A74   A(19,20,54)           118.5089         estimate D2E/DX2                !
 ! A75   A(45,20,54)           106.9597         estimate D2E/DX2                !
 ! A76   A(10,21,22)           109.8398         estimate D2E/DX2                !
 ! A77   A(10,21,50)           125.6395         estimate D2E/DX2                !
 ! A78   A(22,21,50)           119.5395         estimate D2E/DX2                !
 ! A79   A(21,22,23)           109.5219         estimate D2E/DX2                !
 ! A80   A(21,22,56)           120.1978         estimate D2E/DX2                !
 ! A81   A(23,22,56)           122.2778         estimate D2E/DX2                !
 ! A82   A(7,23,22)            108.0983         estimate D2E/DX2                !
 ! A83   A(7,23,24)            130.4653         estimate D2E/DX2                !
 ! A84   A(22,23,24)           118.2876         estimate D2E/DX2                !
 ! A85   A(15,24,23)           118.9343         estimate D2E/DX2                !
 ! A86   A(15,24,25)           106.39           estimate D2E/DX2                !
 ! A87   A(23,24,25)           128.584          estimate D2E/DX2                !
 ! A88   A(13,25,24)           107.027          estimate D2E/DX2                !
 ! A89   A(13,25,26)           117.4861         estimate D2E/DX2                !
 ! A90   A(24,25,26)           127.6921         estimate D2E/DX2                !
 ! A91   A(4,26,25)            118.8269         estimate D2E/DX2                !
 ! A92   A(4,26,27)            107.2545         estimate D2E/DX2                !
 ! A93   A(25,26,27)           127.332          estimate D2E/DX2                !
 ! A94   A(26,27,28)           129.1918         estimate D2E/DX2                !
 ! A95   A(26,27,38)           106.7859         estimate D2E/DX2                !
 ! A96   A(28,27,38)           118.5207         estimate D2E/DX2                !
 ! A97   A(7,28,27)            129.3936         estimate D2E/DX2                !
 ! A98   A(7,28,29)            109.3127         estimate D2E/DX2                !
 ! A99   A(27,28,29)           119.8048         estimate D2E/DX2                !
 ! A100  A(28,29,30)           114.5855         estimate D2E/DX2                !
 ! A101  A(28,29,35)           121.2109         estimate D2E/DX2                !
 ! A102  A(30,29,35)           121.4939         estimate D2E/DX2                !
 ! A103  A(10,30,29)           102.5646         estimate D2E/DX2                !
 ! A104  A(10,30,31)           119.0603         estimate D2E/DX2                !
 ! A105  A(10,30,73)           108.4014         estimate D2E/DX2                !
 ! A106  A(29,30,31)           112.9356         estimate D2E/DX2                !
 ! A107  A(29,30,73)           108.1715         estimate D2E/DX2                !
 ! A108  A(31,30,73)           105.3351         estimate D2E/DX2                !
 ! A109  A(30,31,32)           112.8604         estimate D2E/DX2                !
 ! A110  A(30,31,33)           119.0947         estimate D2E/DX2                !
 ! A111  A(30,31,74)           105.3436         estimate D2E/DX2                !
 ! A112  A(32,31,33)           102.5581         estimate D2E/DX2                !
 ! A113  A(32,31,74)           108.2743         estimate D2E/DX2                !
 ! A114  A(33,31,74)           108.3473         estimate D2E/DX2                !
 ! A115  A(31,32,34)           121.4875         estimate D2E/DX2                !
 ! A116  A(31,32,40)           114.4631         estimate D2E/DX2                !
 ! A117  A(34,32,40)           121.3414         estimate D2E/DX2                !
 ! A118  A(31,33,37)           108.6275         estimate D2E/DX2                !
 ! A119  A(31,33,50)           112.3424         estimate D2E/DX2                !
 ! A120  A(31,33,69)           110.5687         estimate D2E/DX2                !
 ! A121  A(37,33,50)           103.0618         estimate D2E/DX2                !
 ! A122  A(37,33,69)           111.1009         estimate D2E/DX2                !
 ! A123  A(50,33,69)           110.9033         estimate D2E/DX2                !
 ! A124  A(32,34,35)           118.3671         estimate D2E/DX2                !
 ! A125  A(32,34,44)           120.0392         estimate D2E/DX2                !
 ! A126  A(35,34,44)           107.4179         estimate D2E/DX2                !
 ! A127  A(29,35,34)           118.2062         estimate D2E/DX2                !
 ! A128  A(29,35,36)           120.0194         estimate D2E/DX2                !
 ! A129  A(34,35,36)           107.5062         estimate D2E/DX2                !
 ! A130  A(35,36,38)           118.8368         estimate D2E/DX2                !
 ! A131  A(35,36,43)           109.165          estimate D2E/DX2                !
 ! A132  A(38,36,43)           118.5307         estimate D2E/DX2                !
 ! A133  A(33,37,40)           104.152          estimate D2E/DX2                !
 ! A134  A(33,37,46)           105.5551         estimate D2E/DX2                !
 ! A135  A(33,37,70)           112.1267         estimate D2E/DX2                !
 ! A136  A(40,37,46)           113.5673         estimate D2E/DX2                !
 ! A137  A(40,37,70)           110.5911         estimate D2E/DX2                !
 ! A138  A(46,37,70)           110.6144         estimate D2E/DX2                !
 ! A139  A(27,38,36)           120.8354         estimate D2E/DX2                !
 ! A140  A(27,38,39)           110.1993         estimate D2E/DX2                !
 ! A141  A(36,38,39)           119.726          estimate D2E/DX2                !
 ! A142  A(4,39,38)            106.8448         estimate D2E/DX2                !
 ! A143  A(4,39,41)            120.0077         estimate D2E/DX2                !
 ! A144  A(38,39,41)           121.6931         estimate D2E/DX2                !
 ! A145  A(18,40,32)           119.8493         estimate D2E/DX2                !
 ! A146  A(18,40,37)           129.0599         estimate D2E/DX2                !
 ! A147  A(32,40,37)           109.5512         estimate D2E/DX2                !
 ! A148  A(1,41,39)            124.6667         estimate D2E/DX2                !
 ! A149  A(1,41,42)            109.8577         estimate D2E/DX2                !
 ! A150  A(39,41,42)           117.6013         estimate D2E/DX2                !
 ! A151  A(41,42,43)           121.5558         estimate D2E/DX2                !
 ! A152  A(41,42,66)           107.4554         estimate D2E/DX2                !
 ! A153  A(43,42,66)           119.7393         estimate D2E/DX2                !
 ! A154  A(36,43,42)           119.5315         estimate D2E/DX2                !
 ! A155  A(36,43,44)           106.3574         estimate D2E/DX2                !
 ! A156  A(42,43,44)           120.4912         estimate D2E/DX2                !
 ! A157  A(34,44,43)           109.0083         estimate D2E/DX2                !
 ! A158  A(34,44,47)           118.4624         estimate D2E/DX2                !
 ! A159  A(43,44,47)           119.4203         estimate D2E/DX2                !
 ! A160  A(14,45,20)           106.4565         estimate D2E/DX2                !
 ! A161  A(14,45,46)           118.9295         estimate D2E/DX2                !
 ! A162  A(20,45,46)           128.7237         estimate D2E/DX2                !
 ! A163  A(37,46,45)           130.7951         estimate D2E/DX2                !
 ! A164  A(37,46,48)           107.9313         estimate D2E/DX2                !
 ! A165  A(45,46,48)           118.2505         estimate D2E/DX2                !
 ! A166  A(18,47,44)           121.5296         estimate D2E/DX2                !
 ! A167  A(18,47,49)           109.4454         estimate D2E/DX2                !
 ! A168  A(44,47,49)           119.1901         estimate D2E/DX2                !
 ! A169  A(17,48,46)           122.3057         estimate D2E/DX2                !
 ! A170  A(17,48,50)           120.1571         estimate D2E/DX2                !
 ! A171  A(46,48,50)           109.5913         estimate D2E/DX2                !
 ! A172  A(47,49,51)           107.6556         estimate D2E/DX2                !
 ! A173  A(47,49,66)           121.1441         estimate D2E/DX2                !
 ! A174  A(51,49,66)           119.7536         estimate D2E/DX2                !
 ! A175  A(21,50,33)           125.6315         estimate D2E/DX2                !
 ! A176  A(21,50,48)           119.5234         estimate D2E/DX2                !
 ! A177  A(33,50,48)           109.8581         estimate D2E/DX2                !
 ! A178  A(19,51,49)           109.3516         estimate D2E/DX2                !
 ! A179  A(19,51,52)           122.9649         estimate D2E/DX2                !
 ! A180  A(49,51,52)           117.7184         estimate D2E/DX2                !
 ! A181  A(51,52,53)           118.9076         estimate D2E/DX2                !
 ! A182  A(51,52,64)           122.1647         estimate D2E/DX2                !
 ! A183  A(53,52,64)           108.5653         estimate D2E/DX2                !
 ! A184  A(52,53,54)           118.5604         estimate D2E/DX2                !
 ! A185  A(52,53,62)           108.4034         estimate D2E/DX2                !
 ! A186  A(54,53,62)           122.5784         estimate D2E/DX2                !
 ! A187  A(20,54,53)           122.701          estimate D2E/DX2                !
 ! A188  A(20,54,55)           109.2727         estimate D2E/DX2                !
 ! A189  A(53,54,55)           118.0812         estimate D2E/DX2                !
 ! A190  A(14,55,54)           107.7207         estimate D2E/DX2                !
 ! A191  A(14,55,60)           121.0724         estimate D2E/DX2                !
 ! A192  A(54,55,60)           119.8614         estimate D2E/DX2                !
 ! A193  A(17,56,22)           118.6579         estimate D2E/DX2                !
 ! A194  A(17,56,57)           108.1758         estimate D2E/DX2                !
 ! A195  A(22,56,57)           119.9504         estimate D2E/DX2                !
 ! A196  A(15,57,56)           117.6991         estimate D2E/DX2                !
 ! A197  A(15,57,58)           119.7436         estimate D2E/DX2                !
 ! A198  A(56,57,58)           108.2905         estimate D2E/DX2                !
 ! A199  A(16,58,57)           106.7288         estimate D2E/DX2                !
 ! A200  A(16,58,59)           119.8857         estimate D2E/DX2                !
 ! A201  A(57,58,59)           120.0896         estimate D2E/DX2                !
 ! A202  A(11,59,58)           120.0922         estimate D2E/DX2                !
 ! A203  A(11,59,60)           107.6615         estimate D2E/DX2                !
 ! A204  A(58,59,60)           120.3095         estimate D2E/DX2                !
 ! A205  A(55,60,59)           118.7813         estimate D2E/DX2                !
 ! A206  A(55,60,61)           120.2888         estimate D2E/DX2                !
 ! A207  A(59,60,61)           108.4138         estimate D2E/DX2                !
 ! A208  A(9,61,60)            107.5585         estimate D2E/DX2                !
 ! A209  A(9,61,62)            118.8083         estimate D2E/DX2                !
 ! A210  A(60,61,62)           120.3652         estimate D2E/DX2                !
 ! A211  A(53,62,61)           118.4926         estimate D2E/DX2                !
 ! A212  A(53,62,63)           110.2488         estimate D2E/DX2                !
 ! A213  A(61,62,63)           124.401          estimate D2E/DX2                !
 ! A214  A(8,63,62)            115.2261         estimate D2E/DX2                !
 ! A215  A(8,63,64)            114.4998         estimate D2E/DX2                !
 ! A216  A(8,63,76)            107.4484         estimate D2E/DX2                !
 ! A217  A(62,63,64)           100.3933         estimate D2E/DX2                !
 ! A218  A(62,63,76)           109.4402         estimate D2E/DX2                !
 ! A219  A(64,63,76)           109.6368         estimate D2E/DX2                !
 ! A220  A(52,64,63)           110.2141         estimate D2E/DX2                !
 ! A221  A(52,64,65)           119.4664         estimate D2E/DX2                !
 ! A222  A(63,64,65)           125.0262         estimate D2E/DX2                !
 ! A223  A(1,65,64)            124.9763         estimate D2E/DX2                !
 ! A224  A(1,65,66)            110.3286         estimate D2E/DX2                !
 ! A225  A(64,65,66)           119.3659         estimate D2E/DX2                !
 ! A226  A(42,66,49)           119.2458         estimate D2E/DX2                !
 ! A227  A(42,66,65)           108.3421         estimate D2E/DX2                !
 ! A228  A(49,66,65)           121.1397         estimate D2E/DX2                !
 ! D1    D(41,1,2,3)            -9.2478         estimate D2E/DX2                !
 ! D2    D(41,1,2,8)          -130.5441         estimate D2E/DX2                !
 ! D3    D(41,1,2,71)          108.9733         estimate D2E/DX2                !
 ! D4    D(65,1,2,3)           105.498          estimate D2E/DX2                !
 ! D5    D(65,1,2,8)           -15.7982         estimate D2E/DX2                !
 ! D6    D(65,1,2,71)         -136.2808         estimate D2E/DX2                !
 ! D7    D(72,1,2,3)          -131.5405         estimate D2E/DX2                !
 ! D8    D(72,1,2,8)           107.1632         estimate D2E/DX2                !
 ! D9    D(72,1,2,71)          -13.3193         estimate D2E/DX2                !
 ! D10   D(2,1,41,39)           -4.0239         estimate D2E/DX2                !
 ! D11   D(2,1,41,42)          144.0469         estimate D2E/DX2                !
 ! D12   D(65,1,41,39)        -127.2676         estimate D2E/DX2                !
 ! D13   D(65,1,41,42)          20.8031         estimate D2E/DX2                !
 ! D14   D(72,1,41,39)         117.6989         estimate D2E/DX2                !
 ! D15   D(72,1,41,42)         -94.2304         estimate D2E/DX2                !
 ! D16   D(2,1,65,64)           12.6727         estimate D2E/DX2                !
 ! D17   D(2,1,65,66)         -141.1471         estimate D2E/DX2                !
 ! D18   D(41,1,65,64)         135.9955         estimate D2E/DX2                !
 ! D19   D(41,1,65,66)         -17.8243         estimate D2E/DX2                !
 ! D20   D(72,1,65,64)        -109.411          estimate D2E/DX2                !
 ! D21   D(72,1,65,66)          96.7692         estimate D2E/DX2                !
 ! D22   D(1,2,3,4)             16.5262         estimate D2E/DX2                !
 ! D23   D(1,2,3,5)           -139.8794         estimate D2E/DX2                !
 ! D24   D(8,2,3,4)            146.0567         estimate D2E/DX2                !
 ! D25   D(8,2,3,5)            -10.3489         estimate D2E/DX2                !
 ! D26   D(71,2,3,4)          -100.8574         estimate D2E/DX2                !
 ! D27   D(71,2,3,5)           102.737          estimate D2E/DX2                !
 ! D28   D(1,2,8,6)            129.9344         estimate D2E/DX2                !
 ! D29   D(1,2,8,63)             4.5414         estimate D2E/DX2                !
 ! D30   D(1,2,8,75)          -115.572          estimate D2E/DX2                !
 ! D31   D(3,2,8,6)              4.0843         estimate D2E/DX2                !
 ! D32   D(3,2,8,63)          -121.3086         estimate D2E/DX2                !
 ! D33   D(3,2,8,75)           118.578          estimate D2E/DX2                !
 ! D34   D(71,2,8,6)          -109.7684         estimate D2E/DX2                !
 ! D35   D(71,2,8,63)          124.8386         estimate D2E/DX2                !
 ! D36   D(71,2,8,75)            4.7252         estimate D2E/DX2                !
 ! D37   D(2,3,4,26)          -151.9052         estimate D2E/DX2                !
 ! D38   D(2,3,4,39)            -9.1631         estimate D2E/DX2                !
 ! D39   D(5,3,4,26)             3.0772         estimate D2E/DX2                !
 ! D40   D(5,3,4,39)           145.8192         estimate D2E/DX2                !
 ! D41   D(2,3,5,6)             12.8566         estimate D2E/DX2                !
 ! D42   D(2,3,5,13)           161.1074         estimate D2E/DX2                !
 ! D43   D(4,3,5,6)           -145.8217         estimate D2E/DX2                !
 ! D44   D(4,3,5,13)             2.4292         estimate D2E/DX2                !
 ! D45   D(3,4,26,25)           -5.3696         estimate D2E/DX2                !
 ! D46   D(3,4,26,27)          148.2382         estimate D2E/DX2                !
 ! D47   D(39,4,26,25)        -151.1862         estimate D2E/DX2                !
 ! D48   D(39,4,26,27)           2.4215         estimate D2E/DX2                !
 ! D49   D(3,4,39,38)         -150.125          estimate D2E/DX2                !
 ! D50   D(3,4,39,41)           -6.151          estimate D2E/DX2                !
 ! D51   D(26,4,39,38)          -2.4917         estimate D2E/DX2                !
 ! D52   D(26,4,39,41)         141.4822         estimate D2E/DX2                !
 ! D53   D(3,5,6,8)             -9.9039         estimate D2E/DX2                !
 ! D54   D(3,5,6,9)            146.5019         estimate D2E/DX2                !
 ! D55   D(13,5,6,8)          -157.3091         estimate D2E/DX2                !
 ! D56   D(13,5,6,9)            -0.9032         estimate D2E/DX2                !
 ! D57   D(3,5,13,12)         -148.1266         estimate D2E/DX2                !
 ! D58   D(3,5,13,25)           -5.7596         estimate D2E/DX2                !
 ! D59   D(6,5,13,12)           -4.1176         estimate D2E/DX2                !
 ! D60   D(6,5,13,25)          138.2494         estimate D2E/DX2                !
 ! D61   D(5,6,8,2)              3.187          estimate D2E/DX2                !
 ! D62   D(5,6,8,63)           132.764          estimate D2E/DX2                !
 ! D63   D(5,6,8,75)          -110.6702         estimate D2E/DX2                !
 ! D64   D(9,6,8,2)           -151.3877         estimate D2E/DX2                !
 ! D65   D(9,6,8,63)           -21.8107         estimate D2E/DX2                !
 ! D66   D(9,6,8,75)            94.7551         estimate D2E/DX2                !
 ! D67   D(5,6,9,11)             4.2433         estimate D2E/DX2                !
 ! D68   D(5,6,9,61)          -132.3771         estimate D2E/DX2                !
 ! D69   D(8,6,9,11)           157.0026         estimate D2E/DX2                !
 ! D70   D(8,6,9,61)            20.3822         estimate D2E/DX2                !
 ! D71   D(23,7,10,21)           9.1409         estimate D2E/DX2                !
 ! D72   D(23,7,10,30)         128.4974         estimate D2E/DX2                !
 ! D73   D(23,7,10,68)        -109.6627         estimate D2E/DX2                !
 ! D74   D(28,7,10,21)        -110.9627         estimate D2E/DX2                !
 ! D75   D(28,7,10,30)           8.3939         estimate D2E/DX2                !
 ! D76   D(28,7,10,68)         130.2337         estimate D2E/DX2                !
 ! D77   D(67,7,10,21)         129.5897         estimate D2E/DX2                !
 ! D78   D(67,7,10,30)        -111.0537         estimate D2E/DX2                !
 ! D79   D(67,7,10,68)          10.7861         estimate D2E/DX2                !
 ! D80   D(10,7,23,22)           2.7318         estimate D2E/DX2                !
 ! D81   D(10,7,23,24)        -156.3519         estimate D2E/DX2                !
 ! D82   D(28,7,23,22)         116.3868         estimate D2E/DX2                !
 ! D83   D(28,7,23,24)         -42.6968         estimate D2E/DX2                !
 ! D84   D(67,7,23,22)        -118.6706         estimate D2E/DX2                !
 ! D85   D(67,7,23,24)          82.2457         estimate D2E/DX2                !
 ! D86   D(10,7,28,27)         158.3594         estimate D2E/DX2                !
 ! D87   D(10,7,28,29)          -7.4104         estimate D2E/DX2                !
 ! D88   D(23,7,28,27)          43.9992         estimate D2E/DX2                !
 ! D89   D(23,7,28,29)        -121.7706         estimate D2E/DX2                !
 ! D90   D(67,7,28,27)         -81.0612         estimate D2E/DX2                !
 ! D91   D(67,7,28,29)         113.169          estimate D2E/DX2                !
 ! D92   D(2,8,63,62)          126.2872         estimate D2E/DX2                !
 ! D93   D(2,8,63,64)           10.5748         estimate D2E/DX2                !
 ! D94   D(2,8,63,76)         -111.4549         estimate D2E/DX2                !
 ! D95   D(6,8,63,62)            5.0214         estimate D2E/DX2                !
 ! D96   D(6,8,63,64)         -110.691          estimate D2E/DX2                !
 ! D97   D(6,8,63,76)          127.2793         estimate D2E/DX2                !
 ! D98   D(75,8,63,62)        -112.8992         estimate D2E/DX2                !
 ! D99   D(75,8,63,64)         131.3884         estimate D2E/DX2                !
 ! D100  D(75,8,63,76)           9.3587         estimate D2E/DX2                !
 ! D101  D(6,9,11,12)           -2.5561         estimate D2E/DX2                !
 ! D102  D(6,9,11,59)         -144.3809         estimate D2E/DX2                !
 ! D103  D(61,9,11,12)         138.5631         estimate D2E/DX2                !
 ! D104  D(61,9,11,59)          -3.2617         estimate D2E/DX2                !
 ! D105  D(6,9,61,60)          140.9378         estimate D2E/DX2                !
 ! D106  D(6,9,61,62)           -0.2418         estimate D2E/DX2                !
 ! D107  D(11,9,61,60)          -0.6167         estimate D2E/DX2                !
 ! D108  D(11,9,61,62)        -141.7963         estimate D2E/DX2                !
 ! D109  D(7,10,21,22)         -18.3294         estimate D2E/DX2                !
 ! D110  D(7,10,21,50)         136.3085         estimate D2E/DX2                !
 ! D111  D(30,10,21,22)       -135.02           estimate D2E/DX2                !
 ! D112  D(30,10,21,50)         19.6178         estimate D2E/DX2                !
 ! D113  D(68,10,21,22)        100.6139         estimate D2E/DX2                !
 ! D114  D(68,10,21,50)       -104.7482         estimate D2E/DX2                !
 ! D115  D(7,10,30,29)          -6.1584         estimate D2E/DX2                !
 ! D116  D(7,10,30,31)        -131.6519         estimate D2E/DX2                !
 ! D117  D(7,10,30,73)         108.1016         estimate D2E/DX2                !
 ! D118  D(21,10,30,29)        107.1903         estimate D2E/DX2                !
 ! D119  D(21,10,30,31)        -18.3031         estimate D2E/DX2                !
 ! D120  D(21,10,30,73)       -138.5496         estimate D2E/DX2                !
 ! D121  D(68,10,30,29)       -128.2902         estimate D2E/DX2                !
 ! D122  D(68,10,30,31)        106.2164         estimate D2E/DX2                !
 ! D123  D(68,10,30,73)        -14.0301         estimate D2E/DX2                !
 ! D124  D(9,11,12,13)          -2.5576         estimate D2E/DX2                !
 ! D125  D(9,11,12,15)        -141.2233         estimate D2E/DX2                !
 ! D126  D(59,11,12,13)        135.4273         estimate D2E/DX2                !
 ! D127  D(59,11,12,15)         -3.2384         estimate D2E/DX2                !
 ! D128  D(9,11,59,58)         148.7034         estimate D2E/DX2                !
 ! D129  D(9,11,59,60)           5.8919         estimate D2E/DX2                !
 ! D130  D(12,11,59,58)          6.2404         estimate D2E/DX2                !
 ! D131  D(12,11,59,60)       -136.5711         estimate D2E/DX2                !
 ! D132  D(11,12,13,5)           5.7566         estimate D2E/DX2                !
 ! D133  D(11,12,13,25)       -140.9475         estimate D2E/DX2                !
 ! D134  D(15,12,13,5)         149.4551         estimate D2E/DX2                !
 ! D135  D(15,12,13,25)          2.751          estimate D2E/DX2                !
 ! D136  D(11,12,15,24)        141.6335         estimate D2E/DX2                !
 ! D137  D(11,12,15,57)         -5.1827         estimate D2E/DX2                !
 ! D138  D(13,12,15,24)         -1.3535         estimate D2E/DX2                !
 ! D139  D(13,12,15,57)       -148.1696         estimate D2E/DX2                !
 ! D140  D(5,13,25,24)        -148.2719         estimate D2E/DX2                !
 ! D141  D(5,13,25,26)           3.3871         estimate D2E/DX2                !
 ! D142  D(12,13,25,24)         -3.0497         estimate D2E/DX2                !
 ! D143  D(12,13,25,26)        148.6093         estimate D2E/DX2                !
 ! D144  D(45,14,16,17)         -3.0297         estimate D2E/DX2                !
 ! D145  D(45,14,16,58)        132.1897         estimate D2E/DX2                !
 ! D146  D(55,14,16,17)       -146.1312         estimate D2E/DX2                !
 ! D147  D(55,14,16,58)        -10.9117         estimate D2E/DX2                !
 ! D148  D(16,14,45,20)       -145.7455         estimate D2E/DX2                !
 ! D149  D(16,14,45,46)          9.5601         estimate D2E/DX2                !
 ! D150  D(55,14,45,20)          0.4642         estimate D2E/DX2                !
 ! D151  D(55,14,45,46)        155.7698         estimate D2E/DX2                !
 ! D152  D(16,14,55,54)        148.8606         estimate D2E/DX2                !
 ! D153  D(16,14,55,60)          5.4605         estimate D2E/DX2                !
 ! D154  D(45,14,55,54)          1.5418         estimate D2E/DX2                !
 ! D155  D(45,14,55,60)       -141.8583         estimate D2E/DX2                !
 ! D156  D(12,15,24,23)       -155.3769         estimate D2E/DX2                !
 ! D157  D(12,15,24,25)         -0.5003         estimate D2E/DX2                !
 ! D158  D(57,15,24,23)         -9.7482         estimate D2E/DX2                !
 ! D159  D(57,15,24,25)        145.1284         estimate D2E/DX2                !
 ! D160  D(12,15,57,56)        145.629          estimate D2E/DX2                !
 ! D161  D(12,15,57,58)         10.5389         estimate D2E/DX2                !
 ! D162  D(24,15,57,56)          3.1719         estimate D2E/DX2                !
 ! D163  D(24,15,57,58)       -131.9182         estimate D2E/DX2                !
 ! D164  D(14,16,17,48)         -4.2655         estimate D2E/DX2                !
 ! D165  D(14,16,17,56)        136.4324         estimate D2E/DX2                !
 ! D166  D(58,16,17,48)       -144.1968         estimate D2E/DX2                !
 ! D167  D(58,16,17,56)         -3.499          estimate D2E/DX2                !
 ! D168  D(14,16,58,57)       -133.3849         estimate D2E/DX2                !
 ! D169  D(14,16,58,59)          7.5593         estimate D2E/DX2                !
 ! D170  D(17,16,58,57)          5.5877         estimate D2E/DX2                !
 ! D171  D(17,16,58,59)        146.532          estimate D2E/DX2                !
 ! D172  D(16,17,48,46)          5.3015         estimate D2E/DX2                !
 ! D173  D(16,17,48,50)        151.0116         estimate D2E/DX2                !
 ! D174  D(56,17,48,46)       -131.355          estimate D2E/DX2                !
 ! D175  D(56,17,48,50)         14.3551         estimate D2E/DX2                !
 ! D176  D(16,17,56,22)       -141.1141         estimate D2E/DX2                !
 ! D177  D(16,17,56,57)         -0.0126         estimate D2E/DX2                !
 ! D178  D(48,17,56,22)          0.1178         estimate D2E/DX2                !
 ! D179  D(48,17,56,57)        141.2193         estimate D2E/DX2                !
 ! D180  D(40,18,19,20)          4.6086         estimate D2E/DX2                !
 ! D181  D(40,18,19,51)        153.0367         estimate D2E/DX2                !
 ! D182  D(47,18,19,20)       -147.4556         estimate D2E/DX2                !
 ! D183  D(47,18,19,51)          0.9725         estimate D2E/DX2                !
 ! D184  D(19,18,40,32)       -143.9583         estimate D2E/DX2                !
 ! D185  D(19,18,40,37)         20.319          estimate D2E/DX2                !
 ! D186  D(47,18,40,32)          5.5112         estimate D2E/DX2                !
 ! D187  D(47,18,40,37)        169.7884         estimate D2E/DX2                !
 ! D188  D(19,18,47,44)        146.6081         estimate D2E/DX2                !
 ! D189  D(19,18,47,49)          1.1826         estimate D2E/DX2                !
 ! D190  D(40,18,47,44)         -9.1096         estimate D2E/DX2                !
 ! D191  D(40,18,47,49)       -154.5352         estimate D2E/DX2                !
 ! D192  D(18,19,20,45)         -0.4878         estimate D2E/DX2                !
 ! D193  D(18,19,20,54)        145.1708         estimate D2E/DX2                !
 ! D194  D(51,19,20,45)       -145.8106         estimate D2E/DX2                !
 ! D195  D(51,19,20,54)         -0.152          estimate D2E/DX2                !
 ! D196  D(18,19,51,49)         -2.8022         estimate D2E/DX2                !
 ! D197  D(18,19,51,52)       -147.4237         estimate D2E/DX2                !
 ! D198  D(20,19,51,49)        149.2451         estimate D2E/DX2                !
 ! D199  D(20,19,51,52)          4.6237         estimate D2E/DX2                !
 ! D200  D(19,20,45,14)        146.5374         estimate D2E/DX2                !
 ! D201  D(19,20,45,46)         -5.5143         estimate D2E/DX2                !
 ! D202  D(54,20,45,14)         -2.2472         estimate D2E/DX2                !
 ! D203  D(54,20,45,46)       -154.2989         estimate D2E/DX2                !
 ! D204  D(19,20,54,53)         -3.8583         estimate D2E/DX2                !
 ! D205  D(19,20,54,55)       -148.6519         estimate D2E/DX2                !
 ! D206  D(45,20,54,53)        148.0565         estimate D2E/DX2                !
 ! D207  D(45,20,54,55)          3.2628         estimate D2E/DX2                !
 ! D208  D(10,21,22,23)         21.3049         estimate D2E/DX2                !
 ! D209  D(10,21,22,56)        170.8347         estimate D2E/DX2                !
 ! D210  D(50,21,22,23)       -135.1095         estimate D2E/DX2                !
 ! D211  D(50,21,22,56)         14.4203         estimate D2E/DX2                !
 ! D212  D(10,21,50,33)          0.1696         estimate D2E/DX2                !
 ! D213  D(10,21,50,48)       -152.2318         estimate D2E/DX2                !
 ! D214  D(22,21,50,33)        152.5816         estimate D2E/DX2                !
 ! D215  D(22,21,50,48)          0.1802         estimate D2E/DX2                !
 ! D216  D(21,22,23,7)         -14.5241         estimate D2E/DX2                !
 ! D217  D(21,22,23,24)        147.5104         estimate D2E/DX2                !
 ! D218  D(56,22,23,7)        -163.3004         estimate D2E/DX2                !
 ! D219  D(56,22,23,24)         -1.2658         estimate D2E/DX2                !
 ! D220  D(21,22,56,17)        -14.4521         estimate D2E/DX2                !
 ! D221  D(21,22,56,57)       -150.9357         estimate D2E/DX2                !
 ! D222  D(23,22,56,17)        131.1251         estimate D2E/DX2                !
 ! D223  D(23,22,56,57)         -5.3584         estimate D2E/DX2                !
 ! D224  D(7,23,24,15)         165.8324         estimate D2E/DX2                !
 ! D225  D(7,23,24,25)          17.2362         estimate D2E/DX2                !
 ! D226  D(22,23,24,15)          8.4986         estimate D2E/DX2                !
 ! D227  D(22,23,24,25)       -140.0976         estimate D2E/DX2                !
 ! D228  D(15,24,25,13)          2.1408         estimate D2E/DX2                !
 ! D229  D(15,24,25,26)       -145.7051         estimate D2E/DX2                !
 ! D230  D(23,24,25,13)        153.7592         estimate D2E/DX2                !
 ! D231  D(23,24,25,26)          5.9134         estimate D2E/DX2                !
 ! D232  D(13,25,26,4)           1.9943         estimate D2E/DX2                !
 ! D233  D(13,25,26,27)       -145.7374         estimate D2E/DX2                !
 ! D234  D(24,25,26,4)         146.9913         estimate D2E/DX2                !
 ! D235  D(24,25,26,27)         -0.7404         estimate D2E/DX2                !
 ! D236  D(4,26,27,28)        -154.2088         estimate D2E/DX2                !
 ! D237  D(4,26,27,38)          -1.4062         estimate D2E/DX2                !
 ! D238  D(25,26,27,28)         -3.534          estimate D2E/DX2                !
 ! D239  D(25,26,27,38)        149.2685         estimate D2E/DX2                !
 ! D240  D(26,27,28,7)         -20.4326         estimate D2E/DX2                !
 ! D241  D(26,27,28,29)        144.0608         estimate D2E/DX2                !
 ! D242  D(38,27,28,7)        -170.5634         estimate D2E/DX2                !
 ! D243  D(38,27,28,29)         -6.0701         estimate D2E/DX2                !
 ! D244  D(26,27,38,36)       -146.7437         estimate D2E/DX2                !
 ! D245  D(26,27,38,39)         -0.1323         estimate D2E/DX2                !
 ! D246  D(28,27,38,36)          9.4803         estimate D2E/DX2                !
 ! D247  D(28,27,38,39)        156.0917         estimate D2E/DX2                !
 ! D248  D(7,28,29,30)           3.8772         estimate D2E/DX2                !
 ! D249  D(7,28,29,35)         165.4852         estimate D2E/DX2                !
 ! D250  D(27,28,29,30)       -163.4766         estimate D2E/DX2                !
 ! D251  D(27,28,29,35)         -1.8687         estimate D2E/DX2                !
 ! D252  D(28,29,30,10)          1.5744         estimate D2E/DX2                !
 ! D253  D(28,29,30,31)        130.9704         estimate D2E/DX2                !
 ! D254  D(28,29,30,73)       -112.8536         estimate D2E/DX2                !
 ! D255  D(35,29,30,10)       -159.9761         estimate D2E/DX2                !
 ! D256  D(35,29,30,31)        -30.5801         estimate D2E/DX2                !
 ! D257  D(35,29,30,73)         85.5959         estimate D2E/DX2                !
 ! D258  D(28,29,35,34)       -128.1062         estimate D2E/DX2                !
 ! D259  D(28,29,35,36)          6.6522         estimate D2E/DX2                !
 ! D260  D(30,29,35,34)         32.2314         estimate D2E/DX2                !
 ! D261  D(30,29,35,36)        166.9898         estimate D2E/DX2                !
 ! D262  D(10,30,31,32)        120.3903         estimate D2E/DX2                !
 ! D263  D(10,30,31,33)          0.0824         estimate D2E/DX2                !
 ! D264  D(10,30,31,74)       -121.6691         estimate D2E/DX2                !
 ! D265  D(29,30,31,32)          0.0342         estimate D2E/DX2                !
 ! D266  D(29,30,31,33)       -120.2737         estimate D2E/DX2                !
 ! D267  D(29,30,31,74)        117.9748         estimate D2E/DX2                !
 ! D268  D(73,30,31,32)       -117.8168         estimate D2E/DX2                !
 ! D269  D(73,30,31,33)        121.8753         estimate D2E/DX2                !
 ! D270  D(73,30,31,74)          0.1239         estimate D2E/DX2                !
 ! D271  D(30,31,32,34)         30.3344         estimate D2E/DX2                !
 ! D272  D(30,31,32,40)       -131.2447         estimate D2E/DX2                !
 ! D273  D(33,31,32,34)        159.7213         estimate D2E/DX2                !
 ! D274  D(33,31,32,40)         -1.8579         estimate D2E/DX2                !
 ! D275  D(74,31,32,34)        -85.8739         estimate D2E/DX2                !
 ! D276  D(74,31,32,40)        112.5469         estimate D2E/DX2                !
 ! D277  D(30,31,33,37)        131.6022         estimate D2E/DX2                !
 ! D278  D(30,31,33,50)         18.2497         estimate D2E/DX2                !
 ! D279  D(30,31,33,69)       -106.239          estimate D2E/DX2                !
 ! D280  D(32,31,33,37)          6.1909         estimate D2E/DX2                !
 ! D281  D(32,31,33,50)       -107.1616         estimate D2E/DX2                !
 ! D282  D(32,31,33,69)        128.3497         estimate D2E/DX2                !
 ! D283  D(74,31,33,37)       -108.1605         estimate D2E/DX2                !
 ! D284  D(74,31,33,50)        138.4869         estimate D2E/DX2                !
 ! D285  D(74,31,33,69)         13.9982         estimate D2E/DX2                !
 ! D286  D(31,32,34,35)        -31.8161         estimate D2E/DX2                !
 ! D287  D(31,32,34,44)       -166.6624         estimate D2E/DX2                !
 ! D288  D(40,32,34,35)        128.5039         estimate D2E/DX2                !
 ! D289  D(40,32,34,44)         -6.3424         estimate D2E/DX2                !
 ! D290  D(31,32,40,18)        163.6481         estimate D2E/DX2                !
 ! D291  D(31,32,40,37)         -3.4497         estimate D2E/DX2                !
 ! D292  D(34,32,40,18)          2.0392         estimate D2E/DX2                !
 ! D293  D(34,32,40,37)       -165.0585         estimate D2E/DX2                !
 ! D294  D(31,33,37,40)         -8.1837         estimate D2E/DX2                !
 ! D295  D(31,33,37,46)       -128.065          estimate D2E/DX2                !
 ! D296  D(31,33,37,70)        111.4243         estimate D2E/DX2                !
 ! D297  D(50,33,37,40)        111.1577         estimate D2E/DX2                !
 ! D298  D(50,33,37,46)         -8.7236         estimate D2E/DX2                !
 ! D299  D(50,33,37,70)       -129.2343         estimate D2E/DX2                !
 ! D300  D(69,33,37,40)       -130.0184         estimate D2E/DX2                !
 ! D301  D(69,33,37,46)        110.1003         estimate D2E/DX2                !
 ! D302  D(69,33,37,70)        -10.4104         estimate D2E/DX2                !
 ! D303  D(31,33,50,21)        -19.7979         estimate D2E/DX2                !
 ! D304  D(31,33,50,48)        134.8229         estimate D2E/DX2                !
 ! D305  D(37,33,50,21)       -136.5328         estimate D2E/DX2                !
 ! D306  D(37,33,50,48)         18.088          estimate D2E/DX2                !
 ! D307  D(69,33,50,21)        104.5058         estimate D2E/DX2                !
 ! D308  D(69,33,50,48)       -100.8734         estimate D2E/DX2                !
 ! D309  D(32,34,35,29)         -0.2552         estimate D2E/DX2                !
 ! D310  D(32,34,35,36)       -140.1129         estimate D2E/DX2                !
 ! D311  D(44,34,35,29)        139.7091         estimate D2E/DX2                !
 ! D312  D(44,34,35,36)         -0.1486         estimate D2E/DX2                !
 ! D313  D(32,34,44,43)        143.8223         estimate D2E/DX2                !
 ! D314  D(32,34,44,47)          2.7696         estimate D2E/DX2                !
 ! D315  D(35,34,44,43)          4.6545         estimate D2E/DX2                !
 ! D316  D(35,34,44,47)       -136.3981         estimate D2E/DX2                !
 ! D317  D(29,35,36,38)         -3.2108         estimate D2E/DX2                !
 ! D318  D(29,35,36,43)       -143.4385         estimate D2E/DX2                !
 ! D319  D(34,35,36,38)        135.7822         estimate D2E/DX2                !
 ! D320  D(34,35,36,43)         -4.4455         estimate D2E/DX2                !
 ! D321  D(35,36,38,27)         -4.8398         estimate D2E/DX2                !
 ! D322  D(35,36,38,39)       -148.3464         estimate D2E/DX2                !
 ! D323  D(43,36,38,27)        131.7033         estimate D2E/DX2                !
 ! D324  D(43,36,38,39)        -11.8033         estimate D2E/DX2                !
 ! D325  D(35,36,43,42)        147.9259         estimate D2E/DX2                !
 ! D326  D(35,36,43,44)          7.2077         estimate D2E/DX2                !
 ! D327  D(38,36,43,42)          7.5592         estimate D2E/DX2                !
 ! D328  D(38,36,43,44)       -133.159          estimate D2E/DX2                !
 ! D329  D(33,37,40,18)       -158.5169         estimate D2E/DX2                !
 ! D330  D(33,37,40,32)          7.0403         estimate D2E/DX2                !
 ! D331  D(46,37,40,18)        -44.2044         estimate D2E/DX2                !
 ! D332  D(46,37,40,32)        121.3528         estimate D2E/DX2                !
 ! D333  D(70,37,40,18)         80.8402         estimate D2E/DX2                !
 ! D334  D(70,37,40,32)       -113.6026         estimate D2E/DX2                !
 ! D335  D(33,37,46,45)        156.2594         estimate D2E/DX2                !
 ! D336  D(33,37,46,48)         -3.1985         estimate D2E/DX2                !
 ! D337  D(40,37,46,45)         42.7869         estimate D2E/DX2                !
 ! D338  D(40,37,46,48)       -116.671          estimate D2E/DX2                !
 ! D339  D(70,37,46,45)        -82.2452         estimate D2E/DX2                !
 ! D340  D(70,37,46,48)        118.2969         estimate D2E/DX2                !
 ! D341  D(27,38,39,4)           1.611          estimate D2E/DX2                !
 ! D342  D(27,38,39,41)       -141.6208         estimate D2E/DX2                !
 ! D343  D(36,38,39,4)         148.646          estimate D2E/DX2                !
 ! D344  D(36,38,39,41)          5.4142         estimate D2E/DX2                !
 ! D345  D(4,39,41,1)           12.5593         estimate D2E/DX2                !
 ! D346  D(4,39,41,42)        -133.2946         estimate D2E/DX2                !
 ! D347  D(38,39,41,1)         151.1391         estimate D2E/DX2                !
 ! D348  D(38,39,41,42)          5.2852         estimate D2E/DX2                !
 ! D349  D(1,41,42,43)        -160.2458         estimate D2E/DX2                !
 ! D350  D(1,41,42,66)         -16.7949         estimate D2E/DX2                !
 ! D351  D(39,41,42,43)         -9.6419         estimate D2E/DX2                !
 ! D352  D(39,41,42,66)        133.809          estimate D2E/DX2                !
 ! D353  D(41,42,43,36)          3.2582         estimate D2E/DX2                !
 ! D354  D(41,42,43,44)        138.4282         estimate D2E/DX2                !
 ! D355  D(66,42,43,36)       -135.8783         estimate D2E/DX2                !
 ! D356  D(66,42,43,44)         -0.7082         estimate D2E/DX2                !
 ! D357  D(41,42,66,49)       -139.345          estimate D2E/DX2                !
 ! D358  D(41,42,66,65)          4.7542         estimate D2E/DX2                !
 ! D359  D(43,42,66,49)          4.8924         estimate D2E/DX2                !
 ! D360  D(43,42,66,65)        148.9916         estimate D2E/DX2                !
 ! D361  D(36,43,44,34)         -7.3002         estimate D2E/DX2                !
 ! D362  D(36,43,44,47)        133.3209         estimate D2E/DX2                !
 ! D363  D(42,43,44,34)       -147.5613         estimate D2E/DX2                !
 ! D364  D(42,43,44,47)         -6.9401         estimate D2E/DX2                !
 ! D365  D(34,44,47,18)          4.9656         estimate D2E/DX2                !
 ! D366  D(34,44,47,49)        147.1627         estimate D2E/DX2                !
 ! D367  D(43,44,47,18)       -132.0091         estimate D2E/DX2                !
 ! D368  D(43,44,47,49)         10.188          estimate D2E/DX2                !
 ! D369  D(14,45,46,37)       -166.1234         estimate D2E/DX2                !
 ! D370  D(14,45,46,48)         -8.3948         estimate D2E/DX2                !
 ! D371  D(20,45,46,37)        -17.0246         estimate D2E/DX2                !
 ! D372  D(20,45,46,48)        140.704          estimate D2E/DX2                !
 ! D373  D(37,46,48,17)        163.7254         estimate D2E/DX2                !
 ! D374  D(37,46,48,50)         14.8607         estimate D2E/DX2                !
 ! D375  D(45,46,48,17)          1.2771         estimate D2E/DX2                !
 ! D376  D(45,46,48,50)       -147.5876         estimate D2E/DX2                !
 ! D377  D(18,47,49,51)         -2.9253         estimate D2E/DX2                !
 ! D378  D(18,47,49,66)        140.2854         estimate D2E/DX2                !
 ! D379  D(44,47,49,51)       -149.2792         estimate D2E/DX2                !
 ! D380  D(44,47,49,66)         -6.0684         estimate D2E/DX2                !
 ! D381  D(17,48,50,21)        -14.6234         estimate D2E/DX2                !
 ! D382  D(17,48,50,33)       -171.0235         estimate D2E/DX2                !
 ! D383  D(46,48,50,21)        135.0165         estimate D2E/DX2                !
 ! D384  D(46,48,50,33)        -21.3837         estimate D2E/DX2                !
 ! D385  D(47,49,51,19)          3.549          estimate D2E/DX2                !
 ! D386  D(47,49,51,52)        150.2688         estimate D2E/DX2                !
 ! D387  D(66,49,51,19)       -140.2663         estimate D2E/DX2                !
 ! D388  D(66,49,51,52)          6.4535         estimate D2E/DX2                !
 ! D389  D(47,49,66,42)         -1.5559         estimate D2E/DX2                !
 ! D390  D(47,49,66,65)       -140.9921         estimate D2E/DX2                !
 ! D391  D(51,49,66,42)        137.3482         estimate D2E/DX2                !
 ! D392  D(51,49,66,65)         -2.088          estimate D2E/DX2                !
 ! D393  D(19,51,52,53)         -5.0531         estimate D2E/DX2                !
 ! D394  D(19,51,52,64)        135.9254         estimate D2E/DX2                !
 ! D395  D(49,51,52,53)       -146.95           estimate D2E/DX2                !
 ! D396  D(49,51,52,64)         -5.9714         estimate D2E/DX2                !
 ! D397  D(51,52,53,54)          0.9553         estimate D2E/DX2                !
 ! D398  D(51,52,53,62)        146.7678         estimate D2E/DX2                !
 ! D399  D(64,52,53,54)       -144.834          estimate D2E/DX2                !
 ! D400  D(64,52,53,62)          0.9785         estimate D2E/DX2                !
 ! D401  D(51,52,64,63)       -154.6889         estimate D2E/DX2                !
 ! D402  D(51,52,64,65)          0.8896         estimate D2E/DX2                !
 ! D403  D(53,52,64,63)        -10.2393         estimate D2E/DX2                !
 ! D404  D(53,52,64,65)        145.3393         estimate D2E/DX2                !
 ! D405  D(52,53,54,20)          3.4689         estimate D2E/DX2                !
 ! D406  D(52,53,54,55)        145.3842         estimate D2E/DX2                !
 ! D407  D(62,53,54,20)       -137.28           estimate D2E/DX2                !
 ! D408  D(62,53,54,55)          4.6353         estimate D2E/DX2                !
 ! D409  D(52,53,62,61)       -143.7302         estimate D2E/DX2                !
 ! D410  D(52,53,62,63)          8.573          estimate D2E/DX2                !
 ! D411  D(54,53,62,61)          0.4187         estimate D2E/DX2                !
 ! D412  D(54,53,62,63)        152.7219         estimate D2E/DX2                !
 ! D413  D(20,54,55,14)         -2.9902         estimate D2E/DX2                !
 ! D414  D(20,54,55,60)        140.934          estimate D2E/DX2                !
 ! D415  D(53,54,55,14)       -149.6317         estimate D2E/DX2                !
 ! D416  D(53,54,55,60)         -5.7076         estimate D2E/DX2                !
 ! D417  D(14,55,60,59)          3.4354         estimate D2E/DX2                !
[...]
 Alpha virt. eigenvalues --    1.07685   1.08399   1.08501   1.09068   1.09634
 Alpha virt. eigenvalues --    1.10258   1.10392   1.10882   1.11427   1.11739
 Alpha virt. eigenvalues --    1.12066   1.12775   1.13246   1.13684   1.14397
 Alpha virt. eigenvalues --    1.15080   1.15220   1.15820   1.15963   1.16805
 Alpha virt. eigenvalues --    1.16994   1.17994   1.18313   1.18904   1.19315
 Alpha virt. eigenvalues --    1.19488   1.20099   1.20708   1.20874   1.21527
 Alpha virt. eigenvalues --    1.21899   1.22181   1.22812   1.23088   1.23541
 Alpha virt. eigenvalues --    1.23861   1.24107   1.24594   1.25116   1.25332
 Alpha virt. eigenvalues --    1.26144   1.26759   1.27318   1.27858   1.28295
 Alpha virt. eigenvalues --    1.28789   1.29328   1.29635   1.30190   1.30577
 Alpha virt. eigenvalues --    1.30839   1.31283   1.31903   1.32360   1.32549
 Alpha virt. eigenvalues --    1.33335   1.33484   1.34000   1.34035   1.34347
 Alpha virt. eigenvalues --    1.34789   1.34917   1.35363   1.35852   1.36494
 Alpha virt. eigenvalues --    1.36952   1.37446   1.37769   1.37957   1.38384
 Alpha virt. eigenvalues --    1.38975   1.39259   1.39316   1.39656   1.40094
 Alpha virt. eigenvalues --    1.40594   1.41004   1.41321   1.41435   1.41877
 Alpha virt. eigenvalues --    1.42050   1.42337   1.42599   1.42952   1.43105
 Alpha virt. eigenvalues --    1.43805   1.44120   1.44503   1.44884   1.45089
 Alpha virt. eigenvalues --    1.45363   1.46093   1.46200   1.46295   1.46363
 Alpha virt. eigenvalues --    1.46579   1.46910   1.46998   1.47173   1.47367
 Alpha virt. eigenvalues --    1.47707   1.48018   1.48463   1.48662   1.49106
 Alpha virt. eigenvalues --    1.49221   1.49564   1.49871   1.49984   1.50250
 Alpha virt. eigenvalues --    1.50628   1.50880   1.51127   1.51525   1.51727
 Alpha virt. eigenvalues --    1.51796   1.52045   1.52219   1.52303   1.52810
 Alpha virt. eigenvalues --    1.53560   1.53602   1.53783   1.54297   1.54552
 Alpha virt. eigenvalues --    1.54845   1.55069   1.55339   1.55466   1.56048
 Alpha virt. eigenvalues --    1.56448   1.56490   1.56634   1.57249   1.57650
 Alpha virt. eigenvalues --    1.58041   1.58085   1.58672   1.58844   1.58980
 Alpha virt. eigenvalues --    1.59121   1.59620   1.60097   1.60705   1.60843
 Alpha virt. eigenvalues --    1.61095   1.61326   1.61441   1.62007   1.62428
 Alpha virt. eigenvalues --    1.63063   1.63191   1.63640   1.63860   1.64018
 Alpha virt. eigenvalues --    1.64651   1.65111   1.65359   1.65931   1.66125
 Alpha virt. eigenvalues --    1.66510   1.66792   1.67343   1.67597   1.68170
 Alpha virt. eigenvalues --    1.68225   1.69223   1.69690   1.70034   1.70634
 Alpha virt. eigenvalues --    1.70963   1.71074   1.71133   1.71507   1.71858
 Alpha virt. eigenvalues --    1.72433   1.72763   1.72970   1.73451   1.73953
 Alpha virt. eigenvalues --    1.74184   1.74601   1.75489   1.75657   1.75836
 Alpha virt. eigenvalues --    1.76021   1.76204   1.76964   1.77392   1.77784
 Alpha virt. eigenvalues --    1.78435   1.78824   1.78885   1.79374   1.79877
 Alpha virt. eigenvalues --    1.80066   1.80205   1.80407   1.80996   1.81694
 Alpha virt. eigenvalues --    1.81990   1.82165   1.82437   1.82654   1.82972
 Alpha virt. eigenvalues --    1.83624   1.83741   1.84195   1.84636   1.85195
 Alpha virt. eigenvalues --    1.85333   1.85776   1.86422   1.86770   1.87030
 Alpha virt. eigenvalues --    1.88097   1.88263   1.88957   1.89461   1.89582
 Alpha virt. eigenvalues --    1.90070   1.90205   1.90433   1.90565   1.90999
 Alpha virt. eigenvalues --    1.91509   1.91659   1.91955   1.92382   1.92417
 Alpha virt. eigenvalues --    1.93037   1.93175   1.93762   1.95042   1.95182
 Alpha virt. eigenvalues --    1.96011   1.96089   1.96744   1.97144   1.98054
 Alpha virt. eigenvalues --    1.98203   1.98674   1.99122   1.99570   2.00362
 Alpha virt. eigenvalues --    2.00934   2.01238   2.01691   2.02025   2.02655
 Alpha virt. eigenvalues --    2.02788   2.03541   2.03777   2.04291   2.04648
 Alpha virt. eigenvalues --    2.05367   2.05649   2.06063   2.06422   2.07110
 Alpha virt. eigenvalues --    2.07232   2.07513   2.07833   2.08575   2.09084
 Alpha virt. eigenvalues --    2.09391   2.09586   2.09851   2.10314   2.10847
 Alpha virt. eigenvalues --    2.11125   2.11289   2.11954   2.12186   2.12382
 Alpha virt. eigenvalues --    2.12879   2.13021   2.13669   2.14559   2.14752
 Alpha virt. eigenvalues --    2.15235   2.15573   2.15871   2.16226   2.16477
 Alpha virt. eigenvalues --    2.17170   2.17348   2.18074   2.18347   2.18571
 Alpha virt. eigenvalues --    2.19001   2.19611   2.20168   2.20711   2.21227
 Alpha virt. eigenvalues --    2.21979   2.22227   2.23080   2.23123   2.23549
 Alpha virt. eigenvalues --    2.24369   2.24868   2.25043   2.25532   2.25944
 Alpha virt. eigenvalues --    2.26397   2.26868   2.28049   2.29087   2.29473
 Alpha virt. eigenvalues --    2.29877   2.30442   2.30601   2.31803   2.32072
 Alpha virt. eigenvalues --    2.32598   2.32874   2.33280   2.33666   2.34382
 Alpha virt. eigenvalues --    2.35256   2.36198   2.36703   2.37072   2.37656
 Alpha virt. eigenvalues --    2.38135   2.38314   2.38428   2.39016   2.39362
 Alpha virt. eigenvalues --    2.40076   2.40950   2.41435   2.41607   2.41923
 Alpha virt. eigenvalues --    2.42041   2.42388   2.43219   2.43529   2.44138
 Alpha virt. eigenvalues --    2.44301   2.44852   2.45026   2.45478   2.46287
 Alpha virt. eigenvalues --    2.46579   2.47153   2.47642   2.47805   2.47958
 Alpha virt. eigenvalues --    2.48609   2.49595   2.50395   2.50662   2.51685
 Alpha virt. eigenvalues --    2.51873   2.52587   2.53205   2.53321   2.53581
 Alpha virt. eigenvalues --    2.54379   2.55053   2.55162   2.56053   2.56218
 Alpha virt. eigenvalues --    2.57534   2.57880   2.58728   2.58995   2.59220
 Alpha virt. eigenvalues --    2.59535   2.59668   2.60094   2.60440   2.60956
 Alpha virt. eigenvalues --    2.61089   2.62049   2.62495   2.63458   2.63606
 Alpha virt. eigenvalues --    2.64260   2.64569   2.65269   2.65610   2.65896
 Alpha virt. eigenvalues --    2.67099   2.67462   2.67943   2.68723   2.69275
 Alpha virt. eigenvalues --    2.70350   2.70571   2.71335   2.72274   2.72780
 Alpha virt. eigenvalues --    2.73197   2.73691   2.74057   2.74933   2.75337
 Alpha virt. eigenvalues --    2.75898   2.76363   2.76890   2.77995   2.78026
 Alpha virt. eigenvalues --    2.78948   2.80723   2.80924   2.82285   2.82723
 Alpha virt. eigenvalues --    2.82990   2.83418   2.84384   2.84829   2.85341
 Alpha virt. eigenvalues --    2.86273   2.86375   2.86885   2.87969   2.88316
 Alpha virt. eigenvalues --    2.88884   2.88976   2.89843   2.90286   2.91117
 Alpha virt. eigenvalues --    2.91576   2.91632   2.92121   2.92761   2.94046
 Alpha virt. eigenvalues --    2.94360   2.95515   2.95834   2.96298   2.96685
 Alpha virt. eigenvalues --    2.96943   2.97514   2.98372   2.98585   2.98939
 Alpha virt. eigenvalues --    2.99700   3.00483   3.00712   3.00771   3.01580
 Alpha virt. eigenvalues --    3.02248   3.02283   3.03145   3.03716   3.03872
 Alpha virt. eigenvalues --    3.04064   3.04881   3.04990   3.05195   3.05830
 Alpha virt. eigenvalues --    3.06076   3.06582   3.07028   3.07124   3.07607
 Alpha virt. eigenvalues --    3.07675   3.07739   3.08479   3.09306   3.09449
 Alpha virt. eigenvalues --    3.09986   3.10565   3.11034   3.11097   3.11716
 Alpha virt. eigenvalues --    3.11865   3.12116   3.12778   3.12892   3.13019
 Alpha virt. eigenvalues --    3.13260   3.13589   3.13928   3.14109   3.14710
 Alpha virt. eigenvalues --    3.15070   3.15168   3.15661   3.15741   3.16052
 Alpha virt. eigenvalues --    3.16634   3.16971   3.17284   3.17402   3.17658
 Alpha virt. eigenvalues --    3.18344   3.18895   3.19112   3.19518   3.20680
 Alpha virt. eigenvalues --    3.20949   3.21890   3.22088   3.22606   3.22952
 Alpha virt. eigenvalues --    3.23766   3.24669   3.25611   3.26734   3.27864
 Alpha virt. eigenvalues --    3.29371   3.30003   3.30661   3.32672   3.32952
 Alpha virt. eigenvalues --    3.34379   3.34872   3.36170   3.37412   3.38265
 Alpha virt. eigenvalues --    3.40999   3.42496   3.42953   3.44780   3.45250
 Alpha virt. eigenvalues --    3.46350   3.47968   3.48778   3.50217   3.51298
 Alpha virt. eigenvalues --    3.53244   3.54264   3.54965   3.55621   3.57078
 Alpha virt. eigenvalues --    3.57696   3.58442   3.59734   3.60982   3.61680
 Alpha virt. eigenvalues --    3.63513   3.64452   3.65032   3.66035   3.67174
 Alpha virt. eigenvalues --    3.68143   3.68790   3.70475   3.70618   3.72450
 Alpha virt. eigenvalues --    3.72966   3.75595   3.76682   3.77252   3.77392
 Alpha virt. eigenvalues --    3.79231   3.79878   3.80636   3.81284   3.83399
 Alpha virt. eigenvalues --    3.84532   3.84857   3.85804   3.86475   3.88085
 Alpha virt. eigenvalues --    3.89218   3.89682   3.90362   3.90732   3.91842
 Alpha virt. eigenvalues --    3.92518   3.92915   3.93732   3.95046   3.95547
 Alpha virt. eigenvalues --    3.96123   3.97925   3.99142   4.00998   4.04452
 Alpha virt. eigenvalues --    4.05255   4.08889   4.09731   4.13178   4.17815
 Alpha virt. eigenvalues --    4.22774   4.25076   4.26558   4.30106   4.32996
 Alpha virt. eigenvalues --    4.34572   4.37289   4.38874   4.40069   4.40786
 Alpha virt. eigenvalues --    4.41328   4.42815   4.46708   4.52164   4.53231
 Alpha virt. eigenvalues --    4.56138   4.57233   4.58080   4.63115   4.63884
 Alpha virt. eigenvalues --    4.65431   4.69956   4.71161   4.72442   4.77339
 Alpha virt. eigenvalues --    4.83106   4.84713   4.90296   4.92394   4.97450
 Alpha virt. eigenvalues --    5.00649   5.02339   5.03285   5.06918  23.07738
 Alpha virt. eigenvalues --   23.22392  23.26535  23.34066  23.46779  23.49021
 Alpha virt. eigenvalues --   23.52085  23.54626  23.59618  23.64190  23.68518
 Alpha virt. eigenvalues --   23.71981  23.73949  23.78147  23.79100  23.79994
 Alpha virt. eigenvalues --   23.80858  23.82221  23.84570  23.84902  23.85386
 Alpha virt. eigenvalues --   23.86488  23.86772  23.87916  23.88214  23.89051
 Alpha virt. eigenvalues --   23.90565  23.91638  23.93706  23.94501  23.94843
 Alpha virt. eigenvalues --   23.95338  23.97546  23.98153  23.98570  23.98953
 Alpha virt. eigenvalues --   23.99589  24.00494  24.00849  24.01302  24.02238
 Alpha virt. eigenvalues --   24.02668  24.03423  24.03935  24.04625  24.05208
 Alpha virt. eigenvalues --   24.05740  24.06128  24.06590  24.07529  24.09606
 Alpha virt. eigenvalues --   24.10324  24.11394  24.11524  24.12153  24.12431
 Alpha virt. eigenvalues --   24.13101  24.13998  24.14104  24.14960  24.15683
 Alpha virt. eigenvalues --   24.15994  24.16164  24.16861  24.18960  24.19417
          Condensed to atoms (all electrons):
 Mulliken charges:
               1
     1  C   -0.145371
     2  C   -0.128778
     3  C   -0.036518
     4  C    0.013998
     5  C    0.036471
     6  C   -0.025231
     7  C   -0.133914
     8  C   -0.131598
     9  C    0.002111
    10  C   -0.145994
    11  C   -0.001872
    12  C   -0.001823
    13  C   -0.018296
    14  C   -0.006138
    15  C   -0.006201
    16  C   -0.007442
    17  C   -0.009744
    18  C    0.017438
    19  C   -0.004937
    20  C   -0.003282
    21  C    0.004440
    22  C    0.020966
    23  C   -0.031741
    24  C    0.010958
    25  C    0.002766
    26  C   -0.011785
    27  C    0.021750
    28  C   -0.009134
    29  C   -0.003292
    30  C   -0.134478
    31  C   -0.133919
    32  C   -0.005531
    33  C   -0.145674
    34  C    0.001511
    35  C   -0.003120
    36  C    0.000776
    37  C   -0.134048
    38  C   -0.005366
    39  C   -0.002546
    40  C   -0.008006
    41  C   -0.022935
    42  C    0.014595
    43  C   -0.016972
    44  C   -0.003854
    45  C    0.017184
    46  C   -0.031158
    47  C   -0.003050
    48  C    0.020513
    49  C   -0.011004
    50  C    0.004192
    51  C   -0.010103
    52  C    0.010103
    53  C    0.017339
    54  C   -0.010088
    55  C   -0.001747
    56  C   -0.009967
    57  C   -0.008815
    58  C   -0.013474
    59  C   -0.003346
    60  C   -0.001898
    61  C   -0.000301
    62  C   -0.028320
    63  C   -0.140330
    64  C   -0.012625
    65  C   -0.015549
    66  C    0.025759
    67  H    0.159429
    68  H    0.144957
    69  H    0.145017
    70  H    0.159001
    71  H    0.153769
    72  H    0.162048
    73  H    0.148678
    74  H    0.148346
    75  H    0.152147
    76  H    0.165050
 Sum of Mulliken charges =  -0.00000
 Mulliken charges with hydrogens summed into heavy atoms:
               1
     1  C    0.016677
     2  C    0.024991
     3  C   -0.036518
     4  C    0.013998
     5  C    0.036471
     6  C   -0.025231
     7  C    0.025516
     8  C    0.020550
     9  C    0.002111
    10  C   -0.001037
    11  C   -0.001872
    12  C   -0.001823
    13  C   -0.018296
    14  C   -0.006138
    15  C   -0.006201
    16  C   -0.007442
    17  C   -0.009744
    18  C    0.017438
    19  C   -0.004937
    20  C   -0.003282
    21  C    0.004440
    22  C    0.020966
    23  C   -0.031741
    24  C    0.010958
    25  C    0.002766
    26  C   -0.011785
    27  C    0.021750
    28  C   -0.009134
    29  C   -0.003292
    30  C    0.014200
    31  C    0.014427
    32  C   -0.005531
    33  C   -0.000657
    34  C    0.001511
    35  C   -0.003120
    36  C    0.000776
    37  C    0.024953
    38  C   -0.005366
    39  C   -0.002546
    40  C   -0.008006
    41  C   -0.022935
    42  C    0.014595
    43  C   -0.016972
    44  C   -0.003854
    45  C    0.017184
    46  C   -0.031158
    47  C   -0.003050
    48  C    0.020513
    49  C   -0.011004
    50  C    0.004192
    51  C   -0.010103
    52  C    0.010103
    53  C    0.017339
    54  C   -0.010088
    55  C   -0.001747
    56  C   -0.009967
    57  C   -0.008815
    58  C   -0.013474
    59  C   -0.003346
    60  C   -0.001898
    61  C   -0.000301
    62  C   -0.028320
    63  C    0.024720
    64  C   -0.012625
    65  C   -0.015549
    66  C    0.025759
 Electronic spatial extent (au):  <R**2>=          21893.5698
 Charge=             -0.0000 electrons
 Dipole moment (field-independent basis, Debye):
    X=              1.2745    Y=             -2.1080    Z=             -0.6052  Tot=              2.5366
 Quadrupole moment (field-independent basis, Debye-Ang):
   XX=           -324.9466   YY=           -385.4023   ZZ=           -373.2119
   XY=              3.3796   XZ=              2.4307   YZ=              3.0303
 Traceless Quadrupole moment (field-independent basis, Debye-Ang):
   XX=             36.2403   YY=            -24.2153   ZZ=            -12.0250
   XY=              3.3796   XZ=              2.4307   YZ=              3.0303
 Octapole moment (field-independent basis, Debye-Ang**2):
  XXX=             24.3728  YYY=            -24.3286  ZZZ=             -6.6168  XYY=            -14.3056
  XXY=            -62.6452  XXZ=            -16.4868  XZZ=             48.4568  YZZ=             -2.8579
  YYZ=             -5.1965  XYZ=             -6.8311
 Hexadecapole moment (field-independent basis, Debye-Ang**3):
 XXXX=         -12125.3702 YYYY=         -11261.8322 ZZZZ=          -8829.9334 XXXY=             33.3078
 XXXZ=             73.0750 YYYX=             65.7433 YYYZ=             17.0654 ZZZX=             -0.7140
 ZZZY=             22.7378 XXYY=          -4068.8689 XXZZ=          -3541.9003 YYZZ=          -3392.4080
 XXYZ=             60.6754 YYXZ=             26.4101 ZZXY=             17.5360
 N-N= 1.001076818004D+04 E-N=-2.587150357674D+04  KE= 2.511050075706D+03
 No NMR shielding tensors so no spin-rotation constants.
 Leave Link  601 at Wed Jul 20 07:10:20 2022, MaxMem=  1342177280 cpu:              60.0 elap:               1.5
 (Enter /home/mkliu/g16/l9999.exe)
 1\1\GINC-NODE01\FOpt\RB3LYP\6-311G(d,p)\C66H10\MKLIU\20-Jul-2022\0\\#P
  opt b3lyp/6-311G(d, p) empiricaldispersion=GD3\\force\\0,1\C,12.55107
 68732,11.9190003604,21.9414395488\C,12.4992243512,12.9951131522,23.090
 0134873\C,12.730031117,14.4165296631,22.5942581734\C,12.6465492014,14.
 8334543988,21.2891297568\C,13.5518207514,15.1407201421,23.4807042848\C
 ,14.1472242353,14.2436538498,24.416004642\C,15.6276594275,17.353662888
 1,18.7484744424\C,13.5307812582,12.8561087066,24.3072512304\C,15.41558
 74249,14.5000639874,24.8787069262\C,16.924861211,17.029407242,17.88140
 88733\C,16.0926056419,15.7149333761,24.4953536611\C,15.4850620009,16.6
 166594606,23.610171664\C,14.2129446349,16.2991073589,23.0410533441\C,1
 9.2688399844,14.0471886825,22.6064512701\C,16.2553034985,17.3052455958
 ,22.6148030801\C,19.2265379054,15.4414297223,22.588401063\C,19.2789659
 52,16.1014609531,21.3277952778\C,17.4775540354,11.6096242731,19.315278
 6345\C,17.7496379814,11.3007829533,20.7489221832\C,18.5373555696,12.01
 88329881,21.6445755222\C,17.9861827145,16.8236858251,18.9220583042\C,1
 7.5713430919,17.3929794638,20.1676416128\C,16.1429535706,17.5309324878
 ,20.1794085805\C,15.4742202993,17.4004092112,21.3862124533\C,14.177366
 971,16.7197997648,21.6586196803\C,13.407074352,15.961751189,20.7733470
 804\C,13.6863895438,15.6747974258,19.3410586568\C,14.7340990511,16.142
 1890091,18.5395461115\C,15.2942903286,15.2972110458,17.5491009685\C,16
 .6388494343,15.7504979001,17.0379631493\C,17.7444565258,14.5649238235,
 17.0322895672\C,17.1995363271,13.2535210617,17.538474089\C,19.04404659
 67,14.7549919514,17.8730211497\C,15.8661801119,12.9167136259,17.392659
 5071\C,14.86182232,13.9950689577,17.3960410812\C,13.7366418644,13.5298
 200525,18.1214996038\C,19.2795344362,13.4334049909,18.7319920409\C,13.
 1257607975,14.3817584969,19.0508850187\C,12.5088626944,13.8366707311,2
 0.2284136174\C,18.0100697807,12.6288794713,18.5173121981\C,12.58522306
 02,12.4961068248,20.5185146733\C,13.4209604513,11.6735522672,19.682754
 4835\C,13.9558378834,12.1523589404,18.4958283362\C,15.3242273225,11.83
 03391397,18.1198852037\C,19.3070993168,13.2645694947,21.3758890014\C,1
 9.4861791188,13.9256959205,20.1690407415\C,16.1403377414,11.1581776043
 ,19.0346615928\C,19.4551211646,15.3606603748,20.162426289\C,15.5626254
 421,10.6065567343,20.2306495972\C,18.9168204823,15.8220151908,18.91912
 93725\C,16.5506264539,10.6401819462,21.2587044062\C,16.1207396828,10.7
 829050722,22.5749554892\C,16.9297344506,11.5082057277,23.4993812008\C,
 18.1237593812,12.0780804584,23.0475556919\C,18.5321925739,13.328010952
 3,23.6075583954\C,18.3014249198,17.160536867,21.3310215079\C,17.643042
 608,17.1560677101,22.5932866233\C,18.2633434046,16.1380127348,23.42578
 33167\C,17.504023274,15.4309625328,24.345539827\C,17.684509555,14.0029
 775942,24.5001761884\C,16.4220242149,13.4193850126,24.8879744388\C,16.
 0739580215,12.1697244369,24.4410702969\C,14.625600531,11.7038610212,24
 .2454410651\C,14.7361295089,10.9945655062,22.9047409237\C,13.811156964
 6,11.058415562,21.9086449924\C,14.2226200234,10.8384807007,20.55073160
 77\H,15.1275337327,18.2634069646,18.4018796107\H,17.1713439143,17.8707
 310753,17.2297043522\H,19.8979298211,14.9455709314,17.2189431874\H,20.
 1551254992,12.8757723095,18.3852178313\H,11.4960435756,12.9369296518,2
 3.5178989657\H,11.6659967799,11.2820026202,22.0468882104\H,16.52954904
 99,16.0404996588,15.9909170505\H,18.0235300796,14.4433787888,15.983643
 1673\H,12.94720701,12.6618881958,25.2089447804\H,14.3671910822,10.9814
 344594,25.0269581548\\Version=ES64L-G16RevA.03\State=1-A\HF=-2521.4916
 227\RMSD=4.509e-09\RMSF=9.253e-05\Dipole=-0.4055388,-0.0320216,-0.9112
 862\Quadrupole=0.4200719,-7.1813313,6.7612594,4.9938321,-17.1906553,-1
 4.5078664\PG=C01 [X(C66H10)]\\@


 HONESTY IN A LAWYER IS LIKE A HEN'S HIND LEGS.
  -- MAGNUS OLESON, LAKE WOBEGON PATRIARCH, C.1875
 Job cpu time:       1 days  3 hours  9 minutes 22.3 seconds.
 Elapsed time:       0 days  0 hours 34 minutes  2.0 seconds.
 File lengths (MBytes):  RWF=    957 Int=      0 D2E=      0 Chk=    119 Scr=      1
 Normal termination of Gaussian 16 at Wed Jul 20 07:10:21 2022.
