 Entering Gaussian System, Link 0=g16
 Input=dihept_10_addons_2.gjf
 Output=dihept_10_addons_2.log
 Initial command:
 /home/mkliu/g16/l1.exe "/data/scratch/Gau-121501.inp" -scrdir="/data/scratch/"
 Entering Link 1 = /home/mkliu/g16/l1.exe PID=    121502.
  
 Copyright (c) 1988,1990,1992,1993,1995,1998,2003,2009,2016,
            Gaussian, Inc.  All Rights Reserved.
  
 This is part of the Gaussian(R) 16 program.  It is based on
 the Gaussian(R) 09 system (copyright 2009, Gaussian, Inc.),
 the Gaussian(R) 03 system (copyright 2003, Gaussian, Inc.),
 the Gaussian(R) 98 system (copyright 1998, Gaussian, Inc.),
 the Gaussian(R) 94 system (copyright 1995, Gaussian, Inc.),
 the Gaussian 92(TM) system (copyright 1992, Gaussian, Inc.),
 the Gaussian 90(TM) system (copyright 1990, Gaussian, Inc.),
 the Gaussian 88(TM) system (copyright 1988, Gaussian, Inc.),
 the Gaussian 86(TM) system (copyright 1986, Carnegie Mellon
 University), and the Gaussian 82(TM) system (copyright 1983,
 Carnegie Mellon University). Gaussian is a federally registered
 trademark of Gaussian, Inc.
  
 This software contains proprietary and confidential information,
 including trade secrets, belonging to Gaussian, Inc.
  
 This software is provided under written license and may be
 used, copied, transmitted, or stored only in accord with that
 written license.
  
 The following legend is applicable only to US Government
 contracts under FAR:
  
                    RESTRICTED RIGHTS LEGEND
  
 Use, reproduction and disclosure by the US Government is
 subject to restrictions as set forth in subparagraphs (a)
 and (c) of the Commercial Computer Software - Restricted
 Rights clause in FAR 52.227-19.
  
 Gaussian, Inc.
 340 Quinnipiac St., Bldg. 40, Wallingford CT 06492
  
  
 ---------------------------------------------------------------
 Warning -- This program may not be used in any manner that
 competes with the business of Gaussian, Inc. or will provide
 assistance to any competitor of Gaussian, Inc.  The licensee
 of this program is prohibited from giving any competitor of
 Gaussian, Inc. access to this program.  By using this program,
 the user acknowledges that Gaussian, Inc. is engaged in the
 business of creating and licensing software in the field of
 computational chemistry and represents and warrants to the
 licensee that it is not a competitor of Gaussian, Inc. and that
 it will not use this program in any manner prohibited above.
 ---------------------------------------------------------------
  

 Cite this work as:
 Gaussian 16, Revision A.03,
 M. J. Frisch, G. W. Trucks, H. B. Schlegel, G. E. Scuseria, 
 M. A. Robb, J. R. Cheeseman, G. Scalmani, V. Barone, 
 G. A. Petersson, H. Nakatsuji, X. Li, M. Caricato, A. V. Marenich, 
 J. Bloino, B. G. Janesko, R. Gomperts, B. Mennucci, H. P. Hratchian, 
 J. V. Ortiz, A. F. Izmaylov, J. L. Sonnenberg, D. Williams-Young, 
 F. Ding, F. Lipparini, F. Egidi, J. Goings, B. Peng, A. Petrone, 
 T. Henderson, D. Ranasinghe, V. G. Zakrzewski, J. Gao, N. Rega, 
 G. Zheng, W. Liang, M. Hada, M. Ehara, K. Toyota, R. Fukuda, 
 J. Hasegawa, M. Ishida, T. Nakajima, Y. Honda, O. Kitao, H. Nakai, 
 T. Vreven, K. Throssell, J. A. Montgomery, Jr., J. E. Peralta, 
 F. Ogliaro, M. J. Bearpark, J. J. Heyd, E. N. Brothers, K. N. Kudin, 
 V. N. Staroverov, T. A. Keith, R. Kobayashi, J. Normand, 
 K. Raghavachari, A. P. Rendell, J. C. Burant, S. S. Iyengar, 
 J. Tomasi, M. Cossi, J. M. Millam, M. Klene, C. Adamo, R. Cammi, 
 J. W. Ochterski, R. L. Martin, K. Morokuma, O. Farkas, 
 J. B. Foresman, and D. J. Fox, Gaussian, Inc., Wallingford CT, 2016.
 
 ******************************************
 Gaussian 16:  ES64L-G16RevA.03 25-Dec-2016
                20-Jul-2022 
 ******************************************
 %mem=10GB
 %chk=dihept_10_addons_2.chk
 %nprocshared=48
 Will use up to   48 processors via shared memory.
 -------------------------------------------------
 #P opt b3lyp/6-311G(d, p) empiricaldispersion=GD3
 -------------------------------------------------
 1/18=20,19=15,26=3,38=1/1,3;
 2/9=110,12=2,17=6,18=5,40=1/2;
 3/5=4,6=6,7=101,11=2,25=1,30=1,71=1,74=-5,124=31/1,2,3;
 4//1;
 5/5=2,38=5/2;
 6/7=2,8=2,9=2,10=2,28=1/1;
 7//1,2,3,16;
 1/18=20,19=15,26=3/3(2);
 2/9=110/2;
 99//99;
 2/9=110/2;
 3/5=4,6=6,7=101,11=2,25=1,30=1,71=1,74=-5,124=31/1,2,3;
 4/5=5,16=3,69=1/1;
 5/5=2,38=5/2;
 7//1,2,3,16;
 1/18=20,19=15,26=3/3(-5);
 2/9=110/2;
 6/7=2,8=2,9=2,10=2,19=2,28=1/1;
 99/9=1/99;
 Leave Link    1 at Wed Jul 20 04:56:14 2022, MaxMem=  1342177280 cpu:               2.0 elap:               0.0
 (Enter /home/mkliu/g16/l101.exe)
 -----
 force
 -----
 Symbolic Z-matrix:
 Charge =  0 Multiplicity = 1
 C                     12.53046   11.90363   21.93607 
 C                     12.52737   12.98725   23.04736 
 C                     12.80765   14.36434   22.51435 
 C                     12.72356   14.79122   21.22856 
 C                     13.60772   15.09915   23.41059 
 C                     14.17284   14.2189   24.36258 
 C                     15.66794   17.36096   18.74023 
 C                     13.54657   12.84953   24.25747 
 C                     15.42965   14.49106   24.84283 
 C                     16.95329   17.0076   17.90609 
 C                     16.10193   15.70355   24.46649 
 C                     15.50642   16.59404   23.57535 
 C                     14.25766   16.254    22.98262 
 C                     19.25864   14.05726   22.58549 
 C                     16.27066   17.28561   22.58704 
 C                     19.22086   15.44485   22.58151 
 C                     19.28503   16.10802   21.32643 
 C                     17.49873   11.63612   19.30866 
 C                     17.75364   11.33696   20.7296 
 C                     18.53021   12.05324   21.62539 
 C                     18.04605   16.87315   18.92855 
 C                     17.59854   17.41287   20.16416 
 C                     16.17301   17.51905   20.16252 
 C                     15.50604   17.36447   21.35658 
 C                     14.23848   16.66788   21.61252 
 C                     13.47629   15.90975   20.73462 
 C                     13.71899   15.67147   19.3131 
 C                     14.7383   16.17848   18.52229 
 C                     15.31694   15.31398   17.55568 
 C                     16.69451   15.62674   17.37567 
 C                     17.62226   14.62123   17.38035 
 C                     17.1982   13.27686   17.56648 
 C                     19.02316   14.77191   17.90256 
 C                     15.85244   12.95682   17.42551 
 C                     14.87875   14.00165   17.41161 
 C                     13.72319   13.55194   18.10437 
 C                     19.28944   13.46231   18.72974 
 C                     13.12831   14.40052   19.00434 
 C                     12.24496   13.90705   20.12205 
 C                     18.04471   12.62092   18.51586 
 C                     12.3008   12.36878   20.44071 
 C                     13.41886   11.70407   19.68036 
 C                     13.94568   12.16628   18.50463 
 C                     15.30771   11.86223   18.14488 
 C                     19.28536   13.28602   21.35755 
 C                     19.47856   13.9427   20.15976 
 C                     16.14514   11.2006   19.0329 
 C                     19.47741   15.37279   20.16271 
 C                     15.57167   10.67418   20.21811 
 C                     18.9751   15.86659   18.92845 
 C                     16.55898   10.69854   21.23631 
 C                     16.12169   10.82827   22.54578 
 C                     16.93068   11.53401   23.47433 
 C                     18.11793   12.10267   23.01554 
 C                     18.52665   13.34247   23.58354 
 C                     18.3167   17.16007   21.32807 
 C                     17.65236   17.14524   22.58441 
 C                     18.26635   16.13627   23.4144 
 C                     17.50659   15.42737   24.3285 
 C                     17.6865   14.0079   24.4787 
 C                     16.42898   13.4284   24.86244 
 C                     16.07203   12.18653   24.40775 
 C                     14.63672   11.72197   24.21448 
 C                     14.74861   11.05256   22.87248 
 C                     13.83     11.14857   21.8804 
 C                     14.23595   10.93175   20.5375 
 H                     15.19042   18.2869   18.40133 
 H                     17.17327   17.74101   17.12745 
 H                     19.76446   14.94105   17.11869 
 H                     20.17977   12.92379   18.38758 
 H                     12.95615   12.66764   25.16124 
 H                     14.38362   10.98453   24.98455 
 H                     11.52176   12.99083   23.48469 
 H                     11.72891   11.19523   22.1765 
 H                     11.34446   11.95475   20.10697 
 H                     11.20231   14.14946   19.8829 
 
 ITRead=  0  0  0  0  0  0  0  0  0  0  0  0  0  0  0  0  0  0  0  0
 ITRead=  0  0  0  0  0  0  0  0  0  0  0  0  0  0  0  0  0  0  0  0
 ITRead=  0  0  0  0  0  0  0  0  0  0  0  0  0  0  0  0  0  0  0  0
 ITRead=  0  0  0  0  0  0  0  0  0  0  0  0  0  0  0  0
 MicOpt= -1 -1 -1 -1 -1 -1 -1 -1 -1 -1 -1 -1 -1 -1 -1 -1 -1 -1 -1 -1
 MicOpt= -1 -1 -1 -1 -1 -1 -1 -1 -1 -1 -1 -1 -1 -1 -1 -1 -1 -1 -1 -1
 MicOpt= -1 -1 -1 -1 -1 -1 -1 -1 -1 -1 -1 -1 -1 -1 -1 -1 -1 -1 -1 -1
 MicOpt= -1 -1 -1 -1 -1 -1 -1 -1 -1 -1 -1 -1 -1 -1 -1 -1
 NAtoms=     76 NQM=       76 NQMF=       0 NMMI=      0 NMMIF=      0
                NMic=       0 NMicF=      0.
                    Isotopes and Nuclear Properties:
 (Nuclear quadrupole moments (NQMom) in fm**2, nuclear magnetic moments (NMagM)
  in nuclear magnetons)

  Atom         1           2           3           4           5           6           7           8           9          10
 IAtWgt=          12          12          12          12          12          12          12          12          12          12
 AtmWgt=  12.0000000  12.0000000  12.0000000  12.0000000  12.0000000  12.0000000  12.0000000  12.0000000  12.0000000  12.0000000
 NucSpn=           0           0           0           0           0           0           0           0           0           0
 AtZEff=  -0.0000000  -0.0000000  -0.0000000  -0.0000000  -0.0000000  -0.0000000  -0.0000000  -0.0000000  -0.0000000  -0.0000000
 NQMom=    0.0000000   0.0000000   0.0000000   0.0000000   0.0000000   0.0000000   0.0000000   0.0000000   0.0000000   0.0000000
 NMagM=    0.0000000   0.0000000   0.0000000   0.0000000   0.0000000   0.0000000   0.0000000   0.0000000   0.0000000   0.0000000
 AtZNuc=   6.0000000   6.0000000   6.0000000   6.0000000   6.0000000   6.0000000   6.0000000   6.0000000   6.0000000   6.0000000

  Atom        11          12          13          14          15          16          17          18          19          20
 IAtWgt=          12          12          12          12          12          12          12          12          12          12
 AtmWgt=  12.0000000  12.0000000  12.0000000  12.0000000  12.0000000  12.0000000  12.0000000  12.0000000  12.0000000  12.0000000
 NucSpn=           0           0           0           0           0           0           0           0           0           0
 AtZEff=  -0.0000000  -0.0000000  -0.0000000  -0.0000000  -0.0000000  -0.0000000  -0.0000000  -0.0000000  -0.0000000  -0.0000000
 NQMom=    0.0000000   0.0000000   0.0000000   0.0000000   0.0000000   0.0000000   0.0000000   0.0000000   0.0000000   0.0000000
 NMagM=    0.0000000   0.0000000   0.0000000   0.0000000   0.0000000   0.0000000   0.0000000   0.0000000   0.0000000   0.0000000
 AtZNuc=   6.0000000   6.0000000   6.0000000   6.0000000   6.0000000   6.0000000   6.0000000   6.0000000   6.0000000   6.0000000

  Atom        21          22          23          24          25          26          27          28          29          30
 IAtWgt=          12          12          12          12          12          12          12          12          12          12
 AtmWgt=  12.0000000  12.0000000  12.0000000  12.0000000  12.0000000  12.0000000  12.0000000  12.0000000  12.0000000  12.0000000
 NucSpn=           0           0           0           0           0           0           0           0           0           0
 AtZEff=  -0.0000000  -0.0000000  -0.0000000  -0.0000000  -0.0000000  -0.0000000  -0.0000000  -0.0000000  -0.0000000  -0.0000000
 NQMom=    0.0000000   0.0000000   0.0000000   0.0000000   0.0000000   0.0000000   0.0000000   0.0000000   0.0000000   0.0000000
 NMagM=    0.0000000   0.0000000   0.0000000   0.0000000   0.0000000   0.0000000   0.0000000   0.0000000   0.0000000   0.0000000
 AtZNuc=   6.0000000   6.0000000   6.0000000   6.0000000   6.0000000   6.0000000   6.0000000   6.0000000   6.0000000   6.0000000

  Atom        31          32          33          34          35          36          37          38          39          40
 IAtWgt=          12          12          12          12          12          12          12          12          12          12
 AtmWgt=  12.0000000  12.0000000  12.0000000  12.0000000  12.0000000  12.0000000  12.0000000  12.0000000  12.0000000  12.0000000
 NucSpn=           0           0           0           0           0           0           0           0           0           0
 AtZEff=  -0.0000000  -0.0000000  -0.0000000  -0.0000000  -0.0000000  -0.0000000  -0.0000000  -0.0000000  -0.0000000  -0.0000000
 NQMom=    0.0000000   0.0000000   0.0000000   0.0000000   0.0000000   0.0000000   0.0000000   0.0000000   0.0000000   0.0000000
 NMagM=    0.0000000   0.0000000   0.0000000   0.0000000   0.0000000   0.0000000   0.0000000   0.0000000   0.0000000   0.0000000
 AtZNuc=   6.0000000   6.0000000   6.0000000   6.0000000   6.0000000   6.0000000   6.0000000   6.0000000   6.0000000   6.0000000

  Atom        41          42          43          44          45          46          47          48          49          50
 IAtWgt=          12          12          12          12          12          12          12          12          12          12
 AtmWgt=  12.0000000  12.0000000  12.0000000  12.0000000  12.0000000  12.0000000  12.0000000  12.0000000  12.0000000  12.0000000
 NucSpn=           0           0           0           0           0           0           0           0           0           0
 AtZEff=  -0.0000000  -0.0000000  -0.0000000  -0.0000000  -0.0000000  -0.0000000  -0.0000000  -0.0000000  -0.0000000  -0.0000000
 NQMom=    0.0000000   0.0000000   0.0000000   0.0000000   0.0000000   0.0000000   0.0000000   0.0000000   0.0000000   0.0000000
 NMagM=    0.0000000   0.0000000   0.0000000   0.0000000   0.0000000   0.0000000   0.0000000   0.0000000   0.0000000   0.0000000
 AtZNuc=   6.0000000   6.0000000   6.0000000   6.0000000   6.0000000   6.0000000   6.0000000   6.0000000   6.0000000   6.0000000

  Atom        51          52          53          54          55          56          57          58          59          60
 IAtWgt=          12          12          12          12          12          12          12          12          12          12
 AtmWgt=  12.0000000  12.0000000  12.0000000  12.0000000  12.0000000  12.0000000  12.0000000  12.0000000  12.0000000  12.0000000
 NucSpn=           0           0           0           0           0           0           0           0           0           0
 AtZEff=  -0.0000000  -0.0000000  -0.0000000  -0.0000000  -0.0000000  -0.0000000  -0.0000000  -0.0000000  -0.0000000  -0.0000000
 NQMom=    0.0000000   0.0000000   0.0000000   0.0000000   0.0000000   0.0000000   0.0000000   0.0000000   0.0000000   0.0000000
 NMagM=    0.0000000   0.0000000   0.0000000   0.0000000   0.0000000   0.0000000   0.0000000   0.0000000   0.0000000   0.0000000
 AtZNuc=   6.0000000   6.0000000   6.0000000   6.0000000   6.0000000   6.0000000   6.0000000   6.0000000   6.0000000   6.0000000

  Atom        61          62          63          64          65          66          67          68          69          70
 IAtWgt=          12          12          12          12          12          12           1           1           1           1
 AtmWgt=  12.0000000  12.0000000  12.0000000  12.0000000  12.0000000  12.0000000   1.0078250   1.0078250   1.0078250   1.0078250
 NucSpn=           0           0           0           0           0           0           1           1           1           1
 AtZEff=  -0.0000000  -0.0000000  -0.0000000  -0.0000000  -0.0000000  -0.0000000  -0.0000000  -0.0000000  -0.0000000  -0.0000000
 NQMom=    0.0000000   0.0000000   0.0000000   0.0000000   0.0000000   0.0000000   0.0000000   0.0000000   0.0000000   0.0000000
 NMagM=    0.0000000   0.0000000   0.0000000   0.0000000   0.0000000   0.0000000   2.7928460   2.7928460   2.7928460   2.7928460
 AtZNuc=   6.0000000   6.0000000   6.0000000   6.0000000   6.0000000   6.0000000   1.0000000   1.0000000   1.0000000   1.0000000

  Atom        71          72          73          74          75          76
 IAtWgt=           1           1           1           1           1           1
 AtmWgt=   1.0078250   1.0078250   1.0078250   1.0078250   1.0078250   1.0078250
 NucSpn=           1           1           1           1           1           1
 AtZEff=  -0.0000000  -0.0000000  -0.0000000  -0.0000000  -0.0000000  -0.0000000
 NQMom=    0.0000000   0.0000000   0.0000000   0.0000000   0.0000000   0.0000000
 NMagM=    2.7928460   2.7928460   2.7928460   2.7928460   2.7928460   2.7928460
 AtZNuc=   1.0000000   1.0000000   1.0000000   1.0000000   1.0000000   1.0000000
 Leave Link  101 at Wed Jul 20 04:56:15 2022, MaxMem=  1342177280 cpu:              26.7 elap:               0.6
 (Enter /home/mkliu/g16/l103.exe)

 GradGradGradGradGradGradGradGradGradGradGradGradGradGradGradGradGradGrad
 Berny optimization.
 Initialization pass.
                           ----------------------------
                           !    Initial Parameters    !
                           ! (Angstroms and Degrees)  !
 --------------------------                            --------------------------
 ! Name  Definition              Value          Derivative Info.                !
 --------------------------------------------------------------------------------
 ! R1    R(1,2)                  1.5522         estimate D2E/DX2                !
 ! R2    R(1,41)                 1.5828         estimate D2E/DX2                !
 ! R3    R(1,65)                 1.504          estimate D2E/DX2                !
 ! R4    R(1,74)                 1.0964         estimate D2E/DX2                !
 ! R5    R(2,3)                  1.503          estimate D2E/DX2                !
 ! R6    R(2,8)                  1.5881         estimate D2E/DX2                !
 ! R7    R(2,73)                 1.0966         estimate D2E/DX2                !
 ! R8    R(3,4)                  1.3574         estimate D2E/DX2                !
 ! R9    R(3,5)                  1.4083         estimate D2E/DX2                !
 ! R10   R(4,26)                 1.4359         estimate D2E/DX2                !
 ! R11   R(4,39)                 1.4951         estimate D2E/DX2                !
 ! R12   R(5,6)                  1.4144         estimate D2E/DX2                !
 ! R13   R(5,13)                 1.3926         estimate D2E/DX2                !
 ! R14   R(6,8)                  1.5095         estimate D2E/DX2                !
 ! R15   R(6,9)                  1.3727         estimate D2E/DX2                !
 ! R16   R(7,10)                 1.5725         estimate D2E/DX2                !
 ! R17   R(7,23)                 1.5176         estimate D2E/DX2                !
 ! R18   R(7,28)                 1.5199         estimate D2E/DX2                !
 ! R19   R(7,67)                 1.0956         estimate D2E/DX2                !
 ! R20   R(8,63)                 1.569          estimate D2E/DX2                !
 ! R21   R(8,71)                 1.0948         estimate D2E/DX2                !
 ! R22   R(9,11)                 1.4366         estimate D2E/DX2                !
 ! R23   R(9,61)                 1.4589         estimate D2E/DX2                !
 ! R24   R(10,21)                1.5025         estimate D2E/DX2                !
 ! R25   R(10,30)                1.5017         estimate D2E/DX2                !
 ! R26   R(10,68)                1.0921         estimate D2E/DX2                !
 ! R27   R(11,12)                1.3935         estimate D2E/DX2                !
 ! R28   R(11,59)                1.4382         estimate D2E/DX2                !
 ! R29   R(12,13)                1.4235         estimate D2E/DX2                !
 ! R30   R(12,15)                1.428          estimate D2E/DX2                !
 ! R31   R(13,25)                1.4314         estimate D2E/DX2                !
 ! R32   R(14,16)                1.3881         estimate D2E/DX2                !
 ! R33   R(14,45)                1.4503         estimate D2E/DX2                !
 ! R34   R(14,55)                1.4293         estimate D2E/DX2                !
 ! R35   R(15,24)                1.4508         estimate D2E/DX2                !
 ! R36   R(15,57)                1.3888         estimate D2E/DX2                !
 ! R37   R(16,17)                1.421          estimate D2E/DX2                !
 ! R38   R(16,58)                1.4432         estimate D2E/DX2                !
 ! R39   R(17,48)                1.3899         estimate D2E/DX2                !
 ! R40   R(17,56)                1.4299         estimate D2E/DX2                !
 ! R41   R(18,19)                1.4743         estimate D2E/DX2                !
 ! R42   R(18,40)                1.3771         estimate D2E/DX2                !
 ! R43   R(18,47)                1.4484         estimate D2E/DX2                !
 ! R44   R(19,20)                1.3851         estimate D2E/DX2                !
 ! R45   R(19,51)                1.4462         estimate D2E/DX2                !
 ! R46   R(20,45)                1.4703         estimate D2E/DX2                !
 ! R47   R(20,54)                1.4508         estimate D2E/DX2                !
 ! R48   R(21,22)                1.4207         estimate D2E/DX2                !
 ! R49   R(21,50)                1.3698         estimate D2E/DX2                !
 ! R50   R(22,23)                1.4295         estimate D2E/DX2                !
 ! R51   R(22,56)                1.3908         estimate D2E/DX2                !
 ! R52   R(23,24)                1.3764         estimate D2E/DX2                !
 ! R53   R(24,25)                1.4688         estimate D2E/DX2                !
 ! R54   R(25,26)                1.3879         estimate D2E/DX2                !
 ! R55   R(26,27)                1.4616         estimate D2E/DX2                !
 ! R56   R(27,28)                1.3862         estimate D2E/DX2                !
 ! R57   R(27,38)                1.4351         estimate D2E/DX2                !
 ! R58   R(28,29)                1.42           estimate D2E/DX2                !
 ! R59   R(29,30)                1.4241         estimate D2E/DX2                !
 ! R60   R(29,35)                1.391          estimate D2E/DX2                !
 ! R61   R(30,31)                1.3681         estimate D2E/DX2                !
 ! R62   R(31,32)                1.4219         estimate D2E/DX2                !
 ! R63   R(31,33)                1.5026         estimate D2E/DX2                !
 ! R64   R(32,34)                1.3905         estimate D2E/DX2                !
 ! R65   R(32,40)                1.4311         estimate D2E/DX2                !
 ! R66   R(33,37)                1.5717         estimate D2E/DX2                !
 ! R67   R(33,50)                1.501          estimate D2E/DX2                !
 ! R68   R(33,69)                1.0921         estimate D2E/DX2                !
 ! R69   R(34,35)                1.4283         estimate D2E/DX2                !
 ! R70   R(34,44)                1.4186         estimate D2E/DX2                !
 ! R71   R(35,36)                1.4204         estimate D2E/DX2                !
 ! R72   R(36,38)                1.3726         estimate D2E/DX2                !
 ! R73   R(36,43)                1.4594         estimate D2E/DX2                !
 ! R74   R(37,40)                1.5176         estimate D2E/DX2                !
 ! R75   R(37,46)                1.5204         estimate D2E/DX2                !
 ! R76   R(37,70)                1.0953         estimate D2E/DX2                !
 ! R77   R(38,39)                1.5077         estimate D2E/DX2                !
 ! R78   R(39,41)                1.5719         estimate D2E/DX2                !
 ! R79   R(39,76)                1.0968         estimate D2E/DX2                !
 ! R80   R(41,42)                1.5067         estimate D2E/DX2                !
 ! R81   R(41,75)                1.0943         estimate D2E/DX2                !
 ! R82   R(42,43)                1.3688         estimate D2E/DX2                !
 ! R83   R(42,66)                1.4138         estimate D2E/DX2                !
 ! R84   R(43,44)                1.4412         estimate D2E/DX2                !
 ! R85   R(44,47)                1.3884         estimate D2E/DX2                !
 ! R86   R(45,46)                1.3796         estimate D2E/DX2                !
 ! R87   R(46,48)                1.4301         estimate D2E/DX2                !
 ! R88   R(47,49)                1.418          estimate D2E/DX2                !
 ! R89   R(48,50)                1.4211         estimate D2E/DX2                !
 ! R90   R(49,51)                1.4185         estimate D2E/DX2                !
 ! R91   R(49,66)                1.3973         estimate D2E/DX2                !
 ! R92   R(51,52)                1.3866         estimate D2E/DX2                !
 ! R93   R(52,53)                1.4194         estimate D2E/DX2                !
 ! R94   R(52,64)                1.4291         estimate D2E/DX2                !
 ! R95   R(53,54)                1.3941         estimate D2E/DX2                !
 ! R96   R(53,62)                1.4263         estimate D2E/DX2                !
 ! R97   R(54,55)                1.4237         estimate D2E/DX2                !
 ! R98   R(55,60)                1.3964         estimate D2E/DX2                !
 ! R99   R(56,57)                1.4213         estimate D2E/DX2                !
 ! R100  R(57,58)                1.4436         estimate D2E/DX2                !
 ! R101  R(58,59)                1.384          estimate D2E/DX2                !
 ! R102  R(59,60)                1.4387         estimate D2E/DX2                !
 ! R103  R(60,61)                1.4368         estimate D2E/DX2                !
 ! R104  R(61,62)                1.3698         estimate D2E/DX2                !
 ! R105  R(62,63)                1.5209         estimate D2E/DX2                !
 ! R106  R(63,64)                1.5039         estimate D2E/DX2                !
 ! R107  R(63,72)                1.0958         estimate D2E/DX2                !
 ! R108  R(64,65)                1.3555         estimate D2E/DX2                !
 ! R109  R(65,66)                1.4196         estimate D2E/DX2                !
 ! A1    A(2,1,41)             118.0967         estimate D2E/DX2                !
 ! A2    A(2,1,65)             112.254          estimate D2E/DX2                !
 ! A3    A(2,1,74)             107.0148         estimate D2E/DX2                !
 ! A4    A(41,1,65)            103.7647         estimate D2E/DX2                !
 ! A5    A(41,1,74)            106.9166         estimate D2E/DX2                !
 ! A6    A(65,1,74)            108.3862         estimate D2E/DX2                !
 ! A7    A(1,2,3)              112.6673         estimate D2E/DX2                !
 ! A8    A(1,2,8)              118.9291         estimate D2E/DX2                !
 ! A9    A(1,2,73)             106.836          estimate D2E/DX2                !
 ! A10   A(3,2,8)              103.2968         estimate D2E/DX2                !
 ! A11   A(3,2,73)             108.0261         estimate D2E/DX2                !
 ! A12   A(8,2,73)             106.5539         estimate D2E/DX2                !
 ! A13   A(2,3,4)              127.7703         estimate D2E/DX2                !
 ! A14   A(2,3,5)              110.997          estimate D2E/DX2                !
 ! A15   A(4,3,5)              118.2896         estimate D2E/DX2                !
 ! A16   A(3,4,26)             122.5721         estimate D2E/DX2                !
 ! A17   A(3,4,39)             122.3381         estimate D2E/DX2                !
 ! A18   A(26,4,39)            111.9571         estimate D2E/DX2                !
 ! A19   A(3,5,6)              109.3057         estimate D2E/DX2                !
 ! A20   A(3,5,13)             120.1501         estimate D2E/DX2                !
 ! A21   A(6,5,13)             122.4454         estimate D2E/DX2                !
 ! A22   A(5,6,8)              110.6069         estimate D2E/DX2                !
 ! A23   A(5,6,9)              118.549          estimate D2E/DX2                !
 ! A24   A(8,6,9)              125.7396         estimate D2E/DX2                !
 ! A25   A(10,7,23)            104.3903         estimate D2E/DX2                !
 ! A26   A(10,7,28)            104.4222         estimate D2E/DX2                !
 ! A27   A(10,7,67)            112.4642         estimate D2E/DX2                !
 ! A28   A(23,7,28)            114.7724         estimate D2E/DX2                !
 ! A29   A(23,7,67)            110.3003         estimate D2E/DX2                !
 ! A30   A(28,7,67)            110.2792         estimate D2E/DX2                !
 ! A31   A(2,8,6)              103.9255         estimate D2E/DX2                !
 ! A32   A(2,8,63)             119.1673         estimate D2E/DX2                !
 ! A33   A(2,8,71)             107.2983         estimate D2E/DX2                !
 ! A34   A(6,8,63)             111.4442         estimate D2E/DX2                !
 ! A35   A(6,8,71)             108.4815         estimate D2E/DX2                !
 ! A36   A(63,8,71)            106.1374         estimate D2E/DX2                !
 ! A37   A(6,9,11)             120.2755         estimate D2E/DX2                !
 ! A38   A(6,9,61)             119.1741         estimate D2E/DX2                !
 ! A39   A(11,9,61)            107.3227         estimate D2E/DX2                !
 ! A40   A(7,10,21)            104.6908         estimate D2E/DX2                !
 ! A41   A(7,10,30)            104.6636         estimate D2E/DX2                !
 ! A42   A(7,10,68)            113.0766         estimate D2E/DX2                !
 ! A43   A(21,10,30)           106.4634         estimate D2E/DX2                !
 ! A44   A(21,10,68)           113.5023         estimate D2E/DX2                !
 ! A45   A(30,10,68)           113.6043         estimate D2E/DX2                !
 ! A46   A(9,11,12)            120.458          estimate D2E/DX2                !
 ! A47   A(9,11,59)            108.6704         estimate D2E/DX2                !
 ! A48   A(12,11,59)           118.6044         estimate D2E/DX2                !
 ! A49   A(11,12,13)           119.2444         estimate D2E/DX2                !
 ! A50   A(11,12,15)           121.5595         estimate D2E/DX2                !
 ! A51   A(13,12,15)           107.2771         estimate D2E/DX2                !
 ! A52   A(5,13,12)            118.6561         estimate D2E/DX2                !
 ! A53   A(5,13,25)            121.8506         estimate D2E/DX2                !
 ! A54   A(12,13,25)           109.953          estimate D2E/DX2                !
 ! A55   A(16,14,45)           121.982          estimate D2E/DX2                !
 ! A56   A(16,14,55)           119.2078         estimate D2E/DX2                !
 ! A57   A(45,14,55)           109.5558         estimate D2E/DX2                !
 ! A58   A(12,15,24)           109.345          estimate D2E/DX2                !
 ! A59   A(12,15,57)           119.0001         estimate D2E/DX2                !
 ! A60   A(24,15,57)           121.8849         estimate D2E/DX2                !
 ! A61   A(14,16,17)           117.8938         estimate D2E/DX2                !
 ! A62   A(14,16,58)           119.6863         estimate D2E/DX2                !
 ! A63   A(17,16,58)           108.4222         estimate D2E/DX2                !
 ! A64   A(16,17,48)           119.9274         estimate D2E/DX2                !
 ! A65   A(16,17,56)           108.1674         estimate D2E/DX2                !
 ! A66   A(48,17,56)           118.9409         estimate D2E/DX2                !
 ! A67   A(19,18,40)           129.1553         estimate D2E/DX2                !
 ! A68   A(19,18,47)           106.5027         estimate D2E/DX2                !
 ! A69   A(40,18,47)           118.4196         estimate D2E/DX2                !
 ! A70   A(18,19,20)           127.9754         estimate D2E/DX2                !
 ! A71   A(18,19,51)           106.5254         estimate D2E/DX2                !
 ! A72   A(20,19,51)           117.6983         estimate D2E/DX2                !
 ! A73   A(19,20,45)           127.1376         estimate D2E/DX2                !
 ! A74   A(19,20,54)           118.553          estimate D2E/DX2                !
 ! A75   A(45,20,54)           106.974          estimate D2E/DX2                !
 ! A76   A(10,21,22)           109.1935         estimate D2E/DX2                !
 ! A77   A(10,21,50)           123.9849         estimate D2E/DX2                !
 ! A78   A(22,21,50)           119.5305         estimate D2E/DX2                !
 ! A79   A(21,22,23)           109.9592         estimate D2E/DX2                !
 ! A80   A(21,22,56)           119.7446         estimate D2E/DX2                !
 ! A81   A(23,22,56)           121.965          estimate D2E/DX2                !
 ! A82   A(7,23,22)            108.9797         estimate D2E/DX2                !
 ! A83   A(7,23,24)            129.7981         estimate D2E/DX2                !
 ! A84   A(22,23,24)           118.2869         estimate D2E/DX2                !
 ! A85   A(15,24,23)           119.1094         estimate D2E/DX2                !
 ! A86   A(15,24,25)           106.3347         estimate D2E/DX2                !
 ! A87   A(23,24,25)           128.5056         estimate D2E/DX2                !
 ! A88   A(13,25,24)           106.9988         estimate D2E/DX2                !
 ! A89   A(13,25,26)           117.0559         estimate D2E/DX2                !
 ! A90   A(24,25,26)           128.5157         estimate D2E/DX2                !
 ! A91   A(4,26,25)            119.7222         estimate D2E/DX2                !
 ! A92   A(4,26,27)            107.1346         estimate D2E/DX2                !
 ! A93   A(25,26,27)           127.8081         estimate D2E/DX2                !
 ! A94   A(26,27,28)           128.1206         estimate D2E/DX2                !
 ! A95   A(26,27,38)           106.5747         estimate D2E/DX2                !
 ! A96   A(28,27,38)           120.2551         estimate D2E/DX2                !
 ! A97   A(7,28,27)            130.7338         estimate D2E/DX2                !
 ! A98   A(7,28,29)            108.7848         estimate D2E/DX2                !
 ! A99   A(27,28,29)           117.7302         estimate D2E/DX2                !
 ! A100  A(28,29,30)           110.2747         estimate D2E/DX2                !
 ! A101  A(28,29,35)           121.0965         estimate D2E/DX2                !
 ! A102  A(30,29,35)           119.9229         estimate D2E/DX2                !
 ! A103  A(10,30,29)           108.905          estimate D2E/DX2                !
 ! A104  A(10,30,31)           123.9003         estimate D2E/DX2                !
 ! A105  A(29,30,31)           119.6126         estimate D2E/DX2                !
 ! A106  A(30,31,32)           119.5438         estimate D2E/DX2                !
 ! A107  A(30,31,33)           124.0346         estimate D2E/DX2                !
 ! A108  A(32,31,33)           109.108          estimate D2E/DX2                !
 ! A109  A(31,32,34)           119.5371         estimate D2E/DX2                !
 ! A110  A(31,32,40)           110.1076         estimate D2E/DX2                !
 ! A111  A(34,32,40)           122.2924         estimate D2E/DX2                !
 ! A112  A(31,33,37)           104.9103         estimate D2E/DX2                !
 ! A113  A(31,33,50)           106.3079         estimate D2E/DX2                !
 ! A114  A(31,33,69)           113.5114         estimate D2E/DX2                !
 ! A115  A(37,33,50)           104.6785         estimate D2E/DX2                !
 ! A116  A(37,33,69)           113.0681         estimate D2E/DX2                !
 ! A117  A(50,33,69)           113.538          estimate D2E/DX2                !
 ! A118  A(32,34,35)           119.5006         estimate D2E/DX2                !
 ! A119  A(32,34,44)           119.8572         estimate D2E/DX2                !
 ! A120  A(35,34,44)           107.9159         estimate D2E/DX2                !
 ! A121  A(29,35,34)           118.3193         estimate D2E/DX2                !
 ! A122  A(29,35,36)           120.2956         estimate D2E/DX2                !
 ! A123  A(34,35,36)           108.558          estimate D2E/DX2                !
 ! A124  A(35,36,38)           118.4675         estimate D2E/DX2                !
 ! A125  A(35,36,43)           108.0808         estimate D2E/DX2                !
 ! A126  A(38,36,43)           118.2462         estimate D2E/DX2                !
 ! A127  A(33,37,40)           104.4089         estimate D2E/DX2                !
 ! A128  A(33,37,46)           104.6446         estimate D2E/DX2                !
 ! A129  A(33,37,70)           112.5174         estimate D2E/DX2                !
 ! A130  A(40,37,46)           114.1908         estimate D2E/DX2                !
 ! A131  A(40,37,70)           110.4931         estimate D2E/DX2                !
 ! A132  A(46,37,70)           110.368          estimate D2E/DX2                !
 ! A133  A(27,38,36)           120.6772         estimate D2E/DX2                !
 ! A134  A(27,38,39)           111.8097         estimate D2E/DX2                !
 ! A135  A(36,38,39)           122.5253         estimate D2E/DX2                !
 ! A136  A(4,39,38)             99.6456         estimate D2E/DX2                !
 ! A137  A(4,39,41)            114.6662         estimate D2E/DX2                !
 ! A138  A(4,39,76)            109.5706         estimate D2E/DX2                !
 ! A139  A(38,39,41)           116.7292         estimate D2E/DX2                !
 ! A140  A(38,39,76)           108.8427         estimate D2E/DX2                !
 ! A141  A(41,39,76)           107.1122         estimate D2E/DX2                !
 ! A142  A(18,40,32)           118.37           estimate D2E/DX2                !
 ! A143  A(18,40,37)           129.8312         estimate D2E/DX2                !
 ! A144  A(32,40,37)           108.9367         estimate D2E/DX2                !
 ! A145  A(1,41,39)            118.9643         estimate D2E/DX2                !
 ! A146  A(1,41,42)            103.8548         estimate D2E/DX2                !
 ! A147  A(1,41,75)            107.6838         estimate D2E/DX2                !
 ! A148  A(39,41,42)           110.8419         estimate D2E/DX2                !
 ! A149  A(39,41,75)           106.1047         estimate D2E/DX2                !
 ! A150  A(42,41,75)           109.1294         estimate D2E/DX2                !
 ! A151  A(41,42,43)           124.7592         estimate D2E/DX2                !
 ! A152  A(41,42,66)           111.3414         estimate D2E/DX2                !
 ! A153  A(43,42,66)           118.8677         estimate D2E/DX2                !
 ! A154  A(36,43,42)           119.8371         estimate D2E/DX2                !
 ! A155  A(36,43,44)           106.0181         estimate D2E/DX2                !
 ! A156  A(42,43,44)           120.4595         estimate D2E/DX2                !
 ! A157  A(34,44,43)           109.0686         estimate D2E/DX2                !
 ! A158  A(34,44,47)           117.4159         estimate D2E/DX2                !
 ! A159  A(43,44,47)           120.7247         estimate D2E/DX2                !
 ! A160  A(14,45,20)           106.39           estimate D2E/DX2                !
 ! A161  A(14,45,46)           118.9838         estimate D2E/DX2                !
 ! A162  A(20,45,46)           128.9912         estimate D2E/DX2                !
 ! A163  A(37,46,45)           130.4516         estimate D2E/DX2                !
 ! A164  A(37,46,48)           108.5308         estimate D2E/DX2                !
 ! A165  A(45,46,48)           118.3005         estimate D2E/DX2                !
 ! A166  A(18,47,44)           122.8304         estimate D2E/DX2                !
 ! A167  A(18,47,49)           109.2958         estimate D2E/DX2                !
 ! A168  A(44,47,49)           117.8779         estimate D2E/DX2                !
 ! A169  A(17,48,46)           122.0605         estimate D2E/DX2                !
 ! A170  A(17,48,50)           119.6337         estimate D2E/DX2                !
 ! A171  A(46,48,50)           110.2409         estimate D2E/DX2                !
 ! A172  A(47,49,51)           108.1854         estimate D2E/DX2                !
 ! A173  A(47,49,66)           120.6116         estimate D2E/DX2                !
 ! A174  A(51,49,66)           119.8751         estimate D2E/DX2                !
 ! A175  A(21,50,33)           123.8951         estimate D2E/DX2                !
 ! A176  A(21,50,48)           119.6702         estimate D2E/DX2                !
 ! A177  A(33,50,48)           109.2            estimate D2E/DX2                !
 ! A178  A(19,51,49)           109.3325         estimate D2E/DX2                !
 ! A179  A(19,51,52)           123.3725         estimate D2E/DX2                !
 ! A180  A(49,51,52)           117.3845         estimate D2E/DX2                !
 ! A181  A(51,52,53)           118.983          estimate D2E/DX2                !
 ! A182  A(51,52,64)           122.2462         estimate D2E/DX2                !
 ! A183  A(53,52,64)           108.6641         estimate D2E/DX2                !
 ! A184  A(52,53,54)           118.2234         estimate D2E/DX2                !
 ! A185  A(52,53,62)           108.2079         estimate D2E/DX2                !
 ! A186  A(54,53,62)           122.7831         estimate D2E/DX2                !
 ! A187  A(20,54,53)           122.9189         estimate D2E/DX2                !
 ! A188  A(20,54,55)           109.2911         estimate D2E/DX2                !
 ! A189  A(53,54,55)           117.9328         estimate D2E/DX2                !
 ! A190  A(14,55,54)           107.6951         estimate D2E/DX2                !
 ! A191  A(14,55,60)           121.1616         estimate D2E/DX2                !
 ! A192  A(54,55,60)           119.8687         estimate D2E/DX2                !
 ! A193  A(17,56,22)           118.8471         estimate D2E/DX2                !
 ! A194  A(17,56,57)           108.0528         estimate D2E/DX2                !
 ! A195  A(22,56,57)           120.0187         estimate D2E/DX2                !
 ! A196  A(15,57,56)           117.7526         estimate D2E/DX2                !
 ! A197  A(15,57,58)           119.5187         estimate D2E/DX2                !
 ! A198  A(56,57,58)           108.4647         estimate D2E/DX2                !
 ! A199  A(16,58,57)           106.5196         estimate D2E/DX2                !
 ! A200  A(16,58,59)           119.9246         estimate D2E/DX2                !
 ! A201  A(57,58,59)           120.2833         estimate D2E/DX2                !
 ! A202  A(11,59,58)           120.0785         estimate D2E/DX2                !
 ! A203  A(11,59,60)           107.553          estimate D2E/DX2                !
 ! A204  A(58,59,60)           120.3768         estimate D2E/DX2                !
 ! A205  A(55,60,59)           118.5859         estimate D2E/DX2                !
 ! A206  A(55,60,61)           120.3706         estimate D2E/DX2                !
 ! A207  A(59,60,61)           108.4435         estimate D2E/DX2                !
 ! A208  A(9,61,60)            107.5866         estimate D2E/DX2                !
 ! A209  A(9,61,62)            118.5168         estimate D2E/DX2                !
 ! A210  A(60,61,62)           120.3356         estimate D2E/DX2                !
 ! A211  A(53,62,61)           118.3668         estimate D2E/DX2                !
 ! A212  A(53,62,63)           110.1951         estimate D2E/DX2                !
 ! A213  A(61,62,63)           124.4026         estimate D2E/DX2                !
 ! A214  A(8,63,62)            115.6395         estimate D2E/DX2                !
 ! A215  A(8,63,64)            113.3308         estimate D2E/DX2                !
 ! A216  A(8,63,72)            107.6909         estimate D2E/DX2                !
 ! A217  A(62,63,64)           100.32           estimate D2E/DX2                !
 ! A218  A(62,63,72)           109.5244         estimate D2E/DX2                !
 ! A219  A(64,63,72)           110.1649         estimate D2E/DX2                !
 ! A220  A(52,64,63)           110.2025         estimate D2E/DX2                !
 ! A221  A(52,64,65)           119.6654         estimate D2E/DX2                !
 ! A222  A(63,64,65)           124.8328         estimate D2E/DX2                !
 ! A223  A(1,65,64)            126.4446         estimate D2E/DX2                !
 ! A224  A(1,65,66)            111.0259         estimate D2E/DX2                !
 ! A225  A(64,65,66)           119.1931         estimate D2E/DX2                !
 ! A226  A(42,66,49)           120.9697         estimate D2E/DX2                !
 ! A227  A(42,66,65)           108.9542         estimate D2E/DX2                !
 ! A228  A(49,66,65)           121.1812         estimate D2E/DX2                !
 ! D1    D(41,1,2,3)           -21.2367         estimate D2E/DX2                !
 ! D2    D(41,1,2,8)          -142.2749         estimate D2E/DX2                !
 ! D3    D(41,1,2,73)           97.2366         estimate D2E/DX2                !
 ! D4    D(65,1,2,3)            99.4195         estimate D2E/DX2                !
 ! D5    D(65,1,2,8)           -21.6187         estimate D2E/DX2                !
 ! D6    D(65,1,2,73)         -142.1071         estimate D2E/DX2                !
 ! D7    D(74,1,2,3)          -141.7889         estimate D2E/DX2                !
 ! D8    D(74,1,2,8)            97.1729         estimate D2E/DX2                !
 ! D9    D(74,1,2,73)          -23.3156         estimate D2E/DX2                !
 ! D10   D(2,1,41,39)            6.9217         estimate D2E/DX2                !
 ! D11   D(2,1,41,42)          130.6567         estimate D2E/DX2                !
 ! D12   D(2,1,41,75)         -113.6917         estimate D2E/DX2                !
 ! D13   D(65,1,41,39)        -118.0228         estimate D2E/DX2                !
 ! D14   D(65,1,41,42)           5.7122         estimate D2E/DX2                !
 ! D15   D(65,1,41,75)         121.3638         estimate D2E/DX2                !
 ! D16   D(74,1,41,39)         127.5246         estimate D2E/DX2                !
 ! D17   D(74,1,41,42)        -108.7404         estimate D2E/DX2                !
 ! D18   D(74,1,41,75)           6.9111         estimate D2E/DX2                !
 ! D19   D(2,1,65,64)           20.3174         estimate D2E/DX2                !
 ! D20   D(2,1,65,66)         -138.6601         estimate D2E/DX2                !
 ! D21   D(41,1,65,64)         148.9373         estimate D2E/DX2                !
 ! D22   D(41,1,65,66)         -10.0403         estimate D2E/DX2                !
 ! D23   D(74,1,65,64)         -97.6641         estimate D2E/DX2                !
 ! D24   D(74,1,65,66)         103.3583         estimate D2E/DX2                !
 ! D25   D(1,2,3,4)             17.7842         estimate D2E/DX2                !
 ! D26   D(1,2,3,5)           -142.1973         estimate D2E/DX2                !
 ! D27   D(8,2,3,4)            147.3795         estimate D2E/DX2                !
 ! D28   D(8,2,3,5)            -12.602          estimate D2E/DX2                !
 ! D29   D(73,2,3,4)           -99.99           estimate D2E/DX2                !
 ! D30   D(73,2,3,5)           100.0285         estimate D2E/DX2                !
 ! D31   D(1,2,8,6)            131.7775         estimate D2E/DX2                !
 ! D32   D(1,2,8,63)             7.0448         estimate D2E/DX2                !
 ! D33   D(1,2,8,71)          -113.4328         estimate D2E/DX2                !
 ! D34   D(3,2,8,6)              6.1106         estimate D2E/DX2                !
 ! D35   D(3,2,8,63)          -118.6221         estimate D2E/DX2                !
 ! D36   D(3,2,8,71)           120.9003         estimate D2E/DX2                !
 ! D37   D(73,2,8,6)          -107.5908         estimate D2E/DX2                !
 ! D38   D(73,2,8,63)          127.6765         estimate D2E/DX2                !
 ! D39   D(73,2,8,71)            7.1989         estimate D2E/DX2                !
 ! D40   D(2,3,4,26)          -155.0029         estimate D2E/DX2                !
 ! D41   D(2,3,4,39)             3.3697         estimate D2E/DX2                !
 ! D42   D(5,3,4,26)             3.7162         estimate D2E/DX2                !
 ! D43   D(5,3,4,39)           162.0888         estimate D2E/DX2                !
 ! D44   D(2,3,5,6)             14.545          estimate D2E/DX2                !
 ! D45   D(2,3,5,13)           163.96           estimate D2E/DX2                !
 ! D46   D(4,3,5,6)           -147.5585         estimate D2E/DX2                !
 ! D47   D(4,3,5,13)             1.8566         estimate D2E/DX2                !
 ! D48   D(3,4,26,25)           -5.6365         estimate D2E/DX2                !
 ! D49   D(3,4,26,27)          150.5242         estimate D2E/DX2                !
 ! D50   D(39,4,26,25)        -166.0176         estimate D2E/DX2                !
 ! D51   D(39,4,26,27)          -9.857          estimate D2E/DX2                !
 ! D52   D(3,4,39,38)         -144.6322         estimate D2E/DX2                !
 ! D53   D(3,4,39,41)          -19.1759         estimate D2E/DX2                !
 ! D54   D(3,4,39,76)          101.2817         estimate D2E/DX2                !
 ! D55   D(26,4,39,38)          15.8019         estimate D2E/DX2                !
 ! D56   D(26,4,39,41)         141.2582         estimate D2E/DX2                !
 ! D57   D(26,4,39,76)         -98.2842         estimate D2E/DX2                !
 ! D58   D(3,5,6,8)            -10.0837         estimate D2E/DX2                !
 ! D59   D(3,5,6,9)            146.1195         estimate D2E/DX2                !
 ! D60   D(13,5,6,8)          -158.6601         estimate D2E/DX2                !
 ! D61   D(13,5,6,9)            -2.4569         estimate D2E/DX2                !
 ! D62   D(3,5,13,12)         -148.5232         estimate D2E/DX2                !
 ! D63   D(3,5,13,25)           -5.6479         estimate D2E/DX2                !
 ! D64   D(6,5,13,12)           -3.2056         estimate D2E/DX2                !
 ! D65   D(6,5,13,25)          139.6697         estimate D2E/DX2                !
 ! D66   D(5,6,8,2)              1.984          estimate D2E/DX2                !
 ! D67   D(5,6,8,63)           131.5416         estimate D2E/DX2                !
 ! D68   D(5,6,8,71)          -111.9625         estimate D2E/DX2                !
 ! D69   D(9,6,8,2)           -152.1247         estimate D2E/DX2                !
 ! D70   D(9,6,8,63)           -22.5671         estimate D2E/DX2                !
 ! D71   D(9,6,8,71)            93.9289         estimate D2E/DX2                !
 ! D72   D(5,6,9,11)             5.1267         estimate D2E/DX2                !
 ! D73   D(5,6,9,61)          -130.9927         estimate D2E/DX2                !
 ! D74   D(8,6,9,11)           157.3969         estimate D2E/DX2                !
 ! D75   D(8,6,9,61)            21.2774         estimate D2E/DX2                !
 ! D76   D(23,7,10,21)           4.9107         estimate D2E/DX2                !
 ! D77   D(23,7,10,30)         116.7156         estimate D2E/DX2                !
 ! D78   D(23,7,10,68)        -119.1329         estimate D2E/DX2                !
 ! D79   D(28,7,10,21)        -115.9296         estimate D2E/DX2                !
 ! D80   D(28,7,10,30)          -4.1247         estimate D2E/DX2                !
 ! D81   D(28,7,10,68)         120.0269         estimate D2E/DX2                !
 ! D82   D(67,7,10,21)         124.4933         estimate D2E/DX2                !
 ! D83   D(67,7,10,30)        -123.7018         estimate D2E/DX2                !
 ! D84   D(67,7,10,68)           0.4498         estimate D2E/DX2                !
 ! D85   D(10,7,23,22)           5.3067         estimate D2E/DX2                !
 ! D86   D(10,7,23,24)        -154.5425         estimate D2E/DX2                !
 ! D87   D(28,7,23,22)         118.9848         estimate D2E/DX2                !
 ! D88   D(28,7,23,24)         -40.8644         estimate D2E/DX2                !
 ! D89   D(67,7,23,22)        -115.7255         estimate D2E/DX2                !
 ! D90   D(67,7,23,24)          84.4253         estimate D2E/DX2                !
 ! D91   D(10,7,28,27)         153.8892         estimate D2E/DX2                !
 ! D92   D(10,7,28,29)          -6.4197         estimate D2E/DX2                !
 ! D93   D(23,7,28,27)          40.2299         estimate D2E/DX2                !
 ! D94   D(23,7,28,29)        -120.079          estimate D2E/DX2                !
 ! D95   D(67,7,28,27)         -85.0709         estimate D2E/DX2                !
 ! D96   D(67,7,28,29)         114.6203         estimate D2E/DX2                !
 ! D97   D(2,8,63,62)          126.2135         estimate D2E/DX2                !
 ! D98   D(2,8,63,64)           11.1628         estimate D2E/DX2                !
 ! D99   D(2,8,63,72)         -110.9526         estimate D2E/DX2                !
 ! D100  D(6,8,63,62)            5.194          estimate D2E/DX2                !
 ! D101  D(6,8,63,64)         -109.8567         estimate D2E/DX2                !
 ! D102  D(6,8,63,72)          128.0278         estimate D2E/DX2                !
 ! D103  D(71,8,63,62)        -112.7232         estimate D2E/DX2                !
 ! D104  D(71,8,63,64)         132.2261         estimate D2E/DX2                !
 ! D105  D(71,8,63,72)          10.1106         estimate D2E/DX2                !
 ! D106  D(6,9,11,12)           -2.199          estimate D2E/DX2                !
 ! D107  D(6,9,11,59)         -143.9163         estimate D2E/DX2                !
 ! D108  D(61,9,11,12)         138.4566         estimate D2E/DX2                !
 ! D109  D(61,9,11,59)          -3.2608         estimate D2E/DX2                !
 ! D110  D(6,9,61,60)          140.3188         estimate D2E/DX2                !
 ! D111  D(6,9,61,62)           -0.5044         estimate D2E/DX2                !
 ! D112  D(11,9,61,60)          -0.8477         estimate D2E/DX2                !
 ! D113  D(11,9,61,62)        -141.6708         estimate D2E/DX2                !
 ! D114  D(7,10,21,22)         -13.6917         estimate D2E/DX2                !
 ! D115  D(7,10,21,50)         136.0861         estimate D2E/DX2                !
 ! D116  D(30,10,21,22)       -124.2014         estimate D2E/DX2                !
 ! D117  D(30,10,21,50)         25.5764         estimate D2E/DX2                !
 ! D118  D(68,10,21,22)        110.0792         estimate D2E/DX2                !
 ! D119  D(68,10,21,50)       -100.143          estimate D2E/DX2                !
 ! D120  D(7,10,30,29)          13.3725         estimate D2E/DX2                !
 ! D121  D(7,10,30,31)        -135.8785         estimate D2E/DX2                !
 ! D122  D(21,10,30,29)        123.9012         estimate D2E/DX2                !
 ! D123  D(21,10,30,31)        -25.3499         estimate D2E/DX2                !
 ! D124  D(68,10,30,29)       -110.4413         estimate D2E/DX2                !
 ! D125  D(68,10,30,31)        100.3077         estimate D2E/DX2                !
 ! D126  D(9,11,12,13)          -3.5303         estimate D2E/DX2                !
 ! D127  D(9,11,12,15)        -141.549          estimate D2E/DX2                !
 ! D128  D(59,11,12,13)        134.5156         estimate D2E/DX2                !
 ! D129  D(59,11,12,15)         -3.5032         estimate D2E/DX2                !
 ! D130  D(9,11,59,58)         148.8802         estimate D2E/DX2                !
 ! D131  D(9,11,59,60)           6.119          estimate D2E/DX2                !
 ! D132  D(12,11,59,58)          6.3461         estimate D2E/DX2                !
 ! D133  D(12,11,59,60)       -136.415          estimate D2E/DX2                !
 ! D134  D(11,12,13,5)           6.109          estimate D2E/DX2                !
 ! D135  D(11,12,13,25)       -140.8381         estimate D2E/DX2                !
 ! D136  D(15,12,13,5)         149.4616         estimate D2E/DX2                !
 ! D137  D(15,12,13,25)          2.5145         estimate D2E/DX2                !
 ! D138  D(11,12,15,24)        141.4728         estimate D2E/DX2                !
 ! D139  D(11,12,15,57)         -5.1097         estimate D2E/DX2                !
 ! D140  D(13,12,15,24)         -0.85           estimate D2E/DX2                !
 ! D141  D(13,12,15,57)       -147.4326         estimate D2E/DX2                !
 ! D142  D(5,13,25,24)        -148.8683         estimate D2E/DX2                !
 ! D143  D(5,13,25,26)           3.6727         estimate D2E/DX2                !
 ! D144  D(12,13,25,24)         -3.1629         estimate D2E/DX2                !
 ! D145  D(12,13,25,26)        149.3781         estimate D2E/DX2                !
 ! D146  D(45,14,16,17)         -3.4865         estimate D2E/DX2                !
 ! D147  D(45,14,16,58)        132.0207         estimate D2E/DX2                !
 ! D148  D(55,14,16,17)       -146.7313         estimate D2E/DX2                !
 ! D149  D(55,14,16,58)        -11.2241         estimate D2E/DX2                !
 ! D150  D(16,14,45,20)       -146.0771         estimate D2E/DX2                !
 ! D151  D(16,14,45,46)          9.8018         estimate D2E/DX2                !
 ! D152  D(55,14,45,20)          0.2612         estimate D2E/DX2                !
 ! D153  D(55,14,45,46)        156.1401         estimate D2E/DX2                !
 ! D154  D(16,14,55,54)        149.0628         estimate D2E/DX2                !
 ! D155  D(16,14,55,60)          5.5662         estimate D2E/DX2                !
 ! D156  D(45,14,55,54)          1.6539         estimate D2E/DX2                !
 ! D157  D(45,14,55,60)       -141.8426         estimate D2E/DX2                !
 ! D158  D(12,15,24,23)       -155.9834         estimate D2E/DX2                !
 ! D159  D(12,15,24,25)         -1.0576         estimate D2E/DX2                !
 ! D160  D(57,15,24,23)        -10.5441         estimate D2E/DX2                !
 ! D161  D(57,15,24,25)        144.3817         estimate D2E/DX2                !
 ! D162  D(12,15,57,56)        145.9457         estimate D2E/DX2                !
 ! D163  D(12,15,57,58)         10.7757         estimate D2E/DX2                !
 ! D164  D(24,15,57,56)          3.6787         estimate D2E/DX2                !
 ! D165  D(24,15,57,58)       -131.4914         estimate D2E/DX2                !
 ! D166  D(14,16,17,48)         -4.5531         estimate D2E/DX2                !
 ! D167  D(14,16,17,56)        136.3935         estimate D2E/DX2                !
 ! D168  D(58,16,17,48)       -144.6327         estimate D2E/DX2                !
 ! D169  D(58,16,17,56)         -3.6861         estimate D2E/DX2                !
 ! D170  D(14,16,58,57)       -133.2881         estimate D2E/DX2                !
 ! D171  D(14,16,58,59)          7.7542         estimate D2E/DX2                !
 ! D172  D(17,16,58,57)          5.9549         estimate D2E/DX2                !
 ! D173  D(17,16,58,59)        146.9972         estimate D2E/DX2                !
 ! D174  D(16,17,48,46)          6.562          estimate D2E/DX2                !
 ! D175  D(16,17,48,50)        152.2473         estimate D2E/DX2                !
 ! D176  D(56,17,48,46)       -130.2761         estimate D2E/DX2                !
 ! D177  D(56,17,48,50)         15.4092         estimate D2E/DX2                !
 ! D178  D(16,17,56,22)       -141.3804         estimate D2E/DX2                !
 ! D179  D(16,17,56,57)         -0.0956         estimate D2E/DX2                !
 ! D180  D(48,17,56,22)          0.0143         estimate D2E/DX2                !
 ! D181  D(48,17,56,57)        141.2991         estimate D2E/DX2                !
 ! D182  D(40,18,19,20)          5.6466         estimate D2E/DX2                !
 ! D183  D(40,18,19,51)        153.4976         estimate D2E/DX2                !
 ! D184  D(47,18,19,20)       -146.1606         estimate D2E/DX2                !
 ! D185  D(47,18,19,51)          1.6903         estimate D2E/DX2                !
 ! D186  D(19,18,40,32)       -141.5857         estimate D2E/DX2                !
 ! D187  D(19,18,40,37)         16.9588         estimate D2E/DX2                !
 ! D188  D(47,18,40,32)          7.4135         estimate D2E/DX2                !
 ! D189  D(47,18,40,37)        165.9581         estimate D2E/DX2                !
 ! D190  D(19,18,47,44)        145.4342         estimate D2E/DX2                !
 ! D191  D(19,18,47,49)          0.7991         estimate D2E/DX2                !
 ! D192  D(40,18,47,44)         -9.949          estimate D2E/DX2                !
 ! D193  D(40,18,47,49)       -154.5841         estimate D2E/DX2                !
 ! D194  D(18,19,20,45)         -0.0993         estimate D2E/DX2                !
 ! D195  D(18,19,20,54)        145.8987         estimate D2E/DX2                !
 ! D196  D(51,19,20,45)       -144.9178         estimate D2E/DX2                !
 ! D197  D(51,19,20,54)          1.0802         estimate D2E/DX2                !
 ! D198  D(18,19,51,49)         -3.6018         estimate D2E/DX2                !
 ! D199  D(18,19,51,52)       -148.1672         estimate D2E/DX2                !
 ! D200  D(20,19,51,49)        148.1203         estimate D2E/DX2                !
 ! D201  D(20,19,51,52)          3.5549         estimate D2E/DX2                !
 ! D202  D(19,20,45,14)        147.065          estimate D2E/DX2                !
 ! D203  D(19,20,45,46)         -5.5518         estimate D2E/DX2                !
 ! D204  D(54,20,45,14)         -2.0325         estimate D2E/DX2                !
 ! D205  D(54,20,45,46)       -154.6493         estimate D2E/DX2                !
 ! D206  D(19,20,54,53)         -4.2371         estimate D2E/DX2                !
 ! D207  D(19,20,54,55)       -149.1052         estimate D2E/DX2                !
 ! D208  D(45,20,54,53)        147.9809         estimate D2E/DX2                !
 ! D209  D(45,20,54,55)          3.1127         estimate D2E/DX2                !
 ! D210  D(10,21,22,23)         17.8588         estimate D2E/DX2                !
 ! D211  D(10,21,22,56)        166.7536         estimate D2E/DX2                !
 ! D212  D(50,21,22,23)       -133.4761         estimate D2E/DX2                !
 ! D213  D(50,21,22,56)         15.4186         estimate D2E/DX2                !
 ! D214  D(10,21,50,33)          0.2619         estimate D2E/DX2                !
 ! D215  D(10,21,50,48)       -146.7443         estimate D2E/DX2                !
 ! D216  D(22,21,50,33)        147.145          estimate D2E/DX2                !
 ! D217  D(22,21,50,48)          0.1387         estimate D2E/DX2                !
 ! D218  D(21,22,23,7)         -14.4042         estimate D2E/DX2                !
 ! D219  D(21,22,23,24)        148.1042         estimate D2E/DX2                !
 ! D220  D(56,22,23,7)        -162.4856         estimate D2E/DX2                !
 ! D221  D(56,22,23,24)          0.0228         estimate D2E/DX2                !
 ! D222  D(21,22,56,17)        -15.3931         estimate D2E/DX2                !
 ! D223  D(21,22,56,57)       -152.0171         estimate D2E/DX2                !
 ! D224  D(23,22,56,17)        129.6913         estimate D2E/DX2                !
 ! D225  D(23,22,56,57)         -6.9327         estimate D2E/DX2                !
 ! D226  D(7,23,24,15)         166.685          estimate D2E/DX2                !
 ! D227  D(7,23,24,25)          17.9967         estimate D2E/DX2                !
 ! D228  D(22,23,24,15)          8.3969         estimate D2E/DX2                !
 ! D229  D(22,23,24,25)       -140.2914         estimate D2E/DX2                !
 ! D230  D(15,24,25,13)          2.5416         estimate D2E/DX2                !
 ! D231  D(15,24,25,26)       -145.8012         estimate D2E/DX2                !
 ! D232  D(23,24,25,13)        154.3026         estimate D2E/DX2                !
 ! D233  D(23,24,25,26)          5.9598         estimate D2E/DX2                !
 ! D234  D(13,25,26,4)           1.7963         estimate D2E/DX2                !
 ! D235  D(13,25,26,27)       -148.9378         estimate D2E/DX2                !
 ! D236  D(24,25,26,4)         147.4923         estimate D2E/DX2                !
 ! D237  D(24,25,26,27)         -3.2418         estimate D2E/DX2                !
 ! D238  D(4,26,27,28)        -155.6302         estimate D2E/DX2                !
 ! D239  D(4,26,27,38)          -1.2395         estimate D2E/DX2                !
 ! D240  D(25,26,27,28)         -2.0066         estimate D2E/DX2                !
 ! D241  D(25,26,27,38)        152.3841         estimate D2E/DX2                !
 ! D242  D(26,27,28,7)         -17.8106         estimate D2E/DX2                !
 ! D243  D(26,27,28,29)        141.065          estimate D2E/DX2                !
 ! D244  D(38,27,28,7)        -169.1515         estimate D2E/DX2                !
 ! D245  D(38,27,28,29)        -10.2758         estimate D2E/DX2                !
 ! D246  D(26,27,38,36)       -143.7659         estimate D2E/DX2                !
 ! D247  D(26,27,38,39)         11.8424         estimate D2E/DX2                !
 ! D248  D(28,27,38,36)         13.0515         estimate D2E/DX2                !
 ! D249  D(28,27,38,39)        168.6598         estimate D2E/DX2                !
 ! D250  D(7,28,29,30)          15.4401         estimate D2E/DX2                !
 ! D251  D(7,28,29,35)         162.9876         estimate D2E/DX2                !
 ! D252  D(27,28,29,30)       -147.7945         estimate D2E/DX2                !
 ! D253  D(27,28,29,35)         -0.2471         estimate D2E/DX2                !
 ! D254  D(28,29,30,10)        -18.3562         estimate D2E/DX2                !
 ! D255  D(28,29,30,31)        132.4267         estimate D2E/DX2                !
 ! D256  D(35,29,30,10)       -166.3398         estimate D2E/DX2                !
 ! D257  D(35,29,30,31)        -15.5569         estimate D2E/DX2                !
 ! D258  D(28,29,35,34)       -128.7181         estimate D2E/DX2                !
 ! D259  D(28,29,35,36)          8.4672         estimate D2E/DX2                !
 ! D260  D(30,29,35,34)         15.7771         estimate D2E/DX2                !
 ! D261  D(30,29,35,36)        152.9624         estimate D2E/DX2                !
 ! D262  D(10,30,31,32)        146.1263         estimate D2E/DX2                !
 ! D263  D(10,30,31,33)         -0.6827         estimate D2E/DX2                !
 ! D264  D(29,30,31,32)         -0.0687         estimate D2E/DX2                !
 ! D265  D(29,30,31,33)       -146.8778         estimate D2E/DX2                !
 ! D266  D(30,31,32,34)         15.1546         estimate D2E/DX2                !
 ! D267  D(30,31,32,40)       -134.3129         estimate D2E/DX2                !
 ! D268  D(33,31,32,34)        166.4621         estimate D2E/DX2                !
 ! D269  D(33,31,32,40)         16.9946         estimate D2E/DX2                !
 ! D270  D(30,31,33,37)        136.9374         estimate D2E/DX2                !
 ! D271  D(30,31,33,50)         26.3816         estimate D2E/DX2                !
 ! D272  D(30,31,33,69)        -99.1431         estimate D2E/DX2                !
 ! D273  D(32,31,33,37)        -12.7961         estimate D2E/DX2                !
 ! D274  D(32,31,33,50)       -123.3519         estimate D2E/DX2                !
 ! D275  D(32,31,33,69)        111.1235         estimate D2E/DX2                !
 ! D276  D(31,32,34,35)        -14.723          estimate D2E/DX2                !
 ! D277  D(31,32,34,44)       -151.804          estimate D2E/DX2                !
 ! D278  D(40,32,34,35)        130.9199         estimate D2E/DX2                !
 ! D279  D(40,32,34,44)         -6.1611         estimate D2E/DX2                !
 ! D280  D(31,32,40,18)        148.7479         estimate D2E/DX2                !
 ! D281  D(31,32,40,37)        -13.9767         estimate D2E/DX2                !
 ! D282  D(34,32,40,18)          0.2731         estimate D2E/DX2                !
 ! D283  D(34,32,40,37)       -162.4514         estimate D2E/DX2                !
 ! D284  D(31,33,37,40)          4.3184         estimate D2E/DX2                !
 ! D285  D(31,33,37,46)       -115.975          estimate D2E/DX2                !
 ! D286  D(31,33,37,70)        124.1734         estimate D2E/DX2                !
 ! D287  D(50,33,37,40)        116.0424         estimate D2E/DX2                !
 ! D288  D(50,33,37,46)         -4.251          estimate D2E/DX2                !
 ! D289  D(50,33,37,70)       -124.1026         estimate D2E/DX2                !
 ! D290  D(69,33,37,40)       -119.8834         estimate D2E/DX2                !
 ! D291  D(69,33,37,46)        119.8232         estimate D2E/DX2                !
 ! D292  D(69,33,37,70)         -0.0284         estimate D2E/DX2                !
 ! D293  D(31,33,50,21)        -26.1352         estimate D2E/DX2                !
 ! D294  D(31,33,50,48)        123.7973         estimate D2E/DX2                !
 ! D295  D(37,33,50,21)       -136.8536         estimate D2E/DX2                !
 ! D296  D(37,33,50,48)         13.0789         estimate D2E/DX2                !
 ! D297  D(69,33,50,21)         99.3732         estimate D2E/DX2                !
 ! D298  D(69,33,50,48)       -110.6943         estimate D2E/DX2                !
 ! D299  D(32,34,35,29)         -0.688          estimate D2E/DX2                !
 ! D300  D(32,34,35,36)       -142.4447         estimate D2E/DX2                !
 ! D301  D(44,34,35,29)        140.9464         estimate D2E/DX2                !
 ! D302  D(44,34,35,36)         -0.8102         estimate D2E/DX2                !
 ! D303  D(32,34,44,43)        145.8311         estimate D2E/DX2                !
 ! D304  D(32,34,44,47)          3.8069         estimate D2E/DX2                !
 ! D305  D(35,34,44,43)          4.3579         estimate D2E/DX2                !
 ! D306  D(35,34,44,47)       -137.6663         estimate D2E/DX2                !
 ! D307  D(29,35,36,38)         -5.8329         estimate D2E/DX2                !
 ! D308  D(29,35,36,43)       -143.8498         estimate D2E/DX2                !
 ! D309  D(34,35,36,38)        135.0354         estimate D2E/DX2                !
 ! D310  D(34,35,36,43)         -2.9816         estimate D2E/DX2                !
 ! D311  D(35,36,38,27)         -4.7096         estimate D2E/DX2                !
 ! D312  D(35,36,38,39)       -157.6616         estimate D2E/DX2                !
 ! D313  D(43,36,38,27)        129.0843         estimate D2E/DX2                !
 ! D314  D(43,36,38,39)        -23.8677         estimate D2E/DX2                !
 ! D315  D(35,36,43,42)        146.1179         estimate D2E/DX2                !
 ! D316  D(35,36,43,44)          5.5242         estimate D2E/DX2                !
 ! D317  D(38,36,43,42)          7.9936         estimate D2E/DX2                !
 ! D318  D(38,36,43,44)       -132.6            estimate D2E/DX2                !
 ! D319  D(33,37,40,18)       -154.6754         estimate D2E/DX2                !
 ! D320  D(33,37,40,32)          5.4317         estimate D2E/DX2                !
 ! D321  D(46,37,40,18)        -40.9986         estimate D2E/DX2                !
 ! D322  D(46,37,40,32)        119.1086         estimate D2E/DX2                !
 ! D323  D(70,37,40,18)         84.1172         estimate D2E/DX2                !
 ! D324  D(70,37,40,32)       -115.7757         estimate D2E/DX2                !
 ! D325  D(33,37,46,45)        154.7366         estimate D2E/DX2                !
 ! D326  D(33,37,46,48)         -5.8059         estimate D2E/DX2                !
 ! D327  D(40,37,46,45)         41.1995         estimate D2E/DX2                !
 ! D328  D(40,37,46,48)       -119.3429         estimate D2E/DX2                !
 ! D329  D(70,37,46,45)        -83.9824         estimate D2E/DX2                !
 ! D330  D(70,37,46,48)        115.4751         estimate D2E/DX2                !
 ! D331  D(27,38,39,4)         -16.6358         estimate D2E/DX2                !
 ! D332  D(27,38,39,41)       -140.6604         estimate D2E/DX2                !
 ! D333  D(27,38,39,76)         98.0102         estimate D2E/DX2                !
 ! D334  D(36,38,39,4)         138.4506         estimate D2E/DX2                !
 ! D335  D(36,38,39,41)         14.426          estimate D2E/DX2                !
 ! D336  D(36,38,39,76)       -106.9033         estimate D2E/DX2                !
 ! D337  D(4,39,41,1)           13.2312         estimate D2E/DX2                !
 ! D338  D(4,39,41,42)        -107.0055         estimate D2E/DX2                !
 ! D339  D(4,39,41,75)         134.6425         estimate D2E/DX2                !
 ! D340  D(38,39,41,1)         129.1885         estimate D2E/DX2                !
 ! D341  D(38,39,41,42)          8.9517         estimate D2E/DX2                !
 ! D342  D(38,39,41,75)       -109.4003         estimate D2E/DX2                !
 ! D343  D(76,39,41,1)        -108.5758         estimate D2E/DX2                !
 ! D344  D(76,39,41,42)        131.1874         estimate D2E/DX2                !
 ! D345  D(76,39,41,75)         12.8354         estimate D2E/DX2                !
 ! D346  D(1,41,42,43)        -154.2413         estimate D2E/DX2                !
 ! D347  D(1,41,42,66)           0.1883         estimate D2E/DX2                !
 ! D348  D(39,41,42,43)        -25.3685         estimate D2E/DX2                !
 ! D349  D(39,41,42,66)        129.0611         estimate D2E/DX2                !
 ! D350  D(75,41,42,43)         91.1323         estimate D2E/DX2                !
 ! D351  D(75,41,42,66)       -114.4381         estimate D2E/DX2                !
 ! D352  D(41,42,43,36)         18.1282         estimate D2E/DX2                !
 ! D353  D(41,42,43,44)        153.0669         estimate D2E/DX2                !
 ! D354  D(66,42,43,36)       -134.5449         estimate D2E/DX2                !
 ! D355  D(66,42,43,44)          0.3938         estimate D2E/DX2                !
 ! D356  D(41,42,66,49)       -154.1563         estimate D2E/DX2                !
 ! D357  D(41,42,66,65)         -6.5321         estimate D2E/DX2                !
 ! D358  D(43,42,66,49)          1.9579         estimate D2E/DX2                !
 ! D359  D(43,42,66,65)        149.5821         estimate D2E/DX2                !
 ! D360  D(36,43,44,34)         -6.0745         estimate D2E/DX2                !
 ! D361  D(36,43,44,47)        134.475          estimate D2E/DX2                !
 ! D362  D(42,43,44,34)       -146.3696         estimate D2E/DX2                !
 ! D363  D(42,43,44,47)         -5.8201         estimate D2E/DX2                !
 ! D364  D(34,44,47,18)          4.1423         estimate D2E/DX2                !
 ! D365  D(34,44,47,49)        145.9729         estimate D2E/DX2                !
 ! D366  D(43,44,47,18)       -133.2849         estimate D2E/DX2                !
 ! D367  D(43,44,47,49)          8.5458         estimate D2E/DX2                !
 ! D368  D(14,45,46,37)       -166.6718         estimate D2E/DX2                !
 ! D369  D(14,45,46,48)         -7.6929         estimate D2E/DX2                !
 ! D370  D(20,45,46,37)        -16.9649         estimate D2E/DX2                !
 ! D371  D(20,45,46,48)        142.0139         estimate D2E/DX2                !
 ! D372  D(37,46,48,17)        163.075          estimate D2E/DX2                !
 ! D373  D(37,46,48,50)         14.5586         estimate D2E/DX2                !
 ! D374  D(45,46,48,17)         -0.1933         estimate D2E/DX2                !
 ! D375  D(45,46,48,50)       -148.7097         estimate D2E/DX2                !
 ! D376  D(18,47,49,51)         -3.0455         estimate D2E/DX2                !
 ! D377  D(18,47,49,66)        140.4262         estimate D2E/DX2                !
 ! D378  D(44,47,49,51)       -149.6655         estimate D2E/DX2                !
 ! D379  D(44,47,49,66)         -6.1938         estimate D2E/DX2                !
 ! D380  D(17,48,50,21)        -15.6026         estimate D2E/DX2                !
 ! D381  D(17,48,50,33)       -167.0066         estimate D2E/DX2                !
 ! D382  D(46,48,50,21)        133.7865         estimate D2E/DX2                !
 ! D383  D(46,48,50,33)        -17.6176         estimate D2E/DX2                !
 ! D384  D(47,49,51,19)          4.15           estimate D2E/DX2                !
 ! D385  D(47,49,51,52)        151.1062         estimate D2E/DX2                !
 ! D386  D(66,49,51,19)       -139.6379         estimate D2E/DX2                !
 ! D387  D(66,49,51,52)          7.3183         estimate D2E/DX2                !
 ! D388  D(47,49,66,42)          0.9681         estimate D2E/DX2                !
 ! D389  D(47,49,66,65)       -142.7361         estimate D2E/DX2                !
 ! D390  D(51,49,66,42)        140.2641         estimate D2E/DX2                !
 ! D391  D(51,49,66,65)         -3.4401         estimate D2E/DX2                !
 ! D392  D(19,51,52,53)         -5.1035         estimate D2E/DX2                !
 ! D393  D(19,51,52,64)        136.3403         estimate D2E/DX2                !
 ! D394  D(49,51,52,53)       -147.0698         estimate D2E/DX2                !
 ! D395  D(49,51,52,64)         -5.626          estimate D2E/DX2                !
 ! D396  D(51,52,53,54)          1.8668         estimate D2E/DX2                !
 ! D397  D(51,52,53,62)        147.2993         estimate D2E/DX2                !
 ! D398  D(64,52,53,54)       -144.3254         estimate D2E/DX2                !
 ! D399  D(64,52,53,62)          1.1072         estimate D2E/DX2                !
 ! D400  D(51,52,64,63)       -155.7262         estimate D2E/DX2                !
 ! D401  D(51,52,64,65)         -0.2166         estimate D2E/DX2                !
 ! D402  D(53,52,64,63)        -10.86           estimate D2E/DX2                !
 ! D403  D(53,52,64,65)        144.6495         estimate D2E/DX2                !
 ! D404  D(52,53,54,20)          2.7327         estimate D2E/DX2                !
 ! D405  D(52,53,54,55)        144.7973         estimate D2E/DX2                !
 ! D406  D(62,53,54,20)       -137.3955         estimate D2E/DX2                !
 ! D407  D(62,53,54,55)          4.6692         estimate D2E/DX2                !
 ! D408  D(52,53,62,61)       -143.0472         estimate D2E/DX2                !
 ! D409  D(52,53,62,63)          8.9318         estimate D2E/DX2                !
 ! D410  D(54,53,62,61)          0.4666         estimate D2E/DX2                !
 ! D411  D(54,53,62,63)        152.4456         estimate D2E/DX2                !
 ! D412  D(20,54,55,14)         -2.9629         estimate D2E/DX2                !
 ! D413  D(20,54,55,60)        141.0919         estimate D2E/DX2                !
 ! D414  D(53,54,55,14)       -149.8177         estimate D2E/DX2                !
 ! D415  D(53,54,55,60)         -5.7629         estimate D2E/DX2                !
 ! D416  D(14,55,60,59)          3.6619         estimate D2E/DX2                !
 ! D417  D(14,55,60,61)        141.1306         estimate D2E/DX2                !
[...]
 Alpha virt. eigenvalues --    1.07930   1.08160   1.08576   1.08857   1.09281
 Alpha virt. eigenvalues --    1.10046   1.10184   1.10462   1.11033   1.11127
 Alpha virt. eigenvalues --    1.11434   1.12470   1.12817   1.13277   1.13841
 Alpha virt. eigenvalues --    1.14438   1.15089   1.15495   1.15832   1.16491
 Alpha virt. eigenvalues --    1.17208   1.17653   1.18155   1.18638   1.19441
 Alpha virt. eigenvalues --    1.19614   1.20523   1.20833   1.21283   1.21815
 Alpha virt. eigenvalues --    1.21894   1.22588   1.22861   1.23081   1.23411
 Alpha virt. eigenvalues --    1.23616   1.24118   1.24434   1.25016   1.25634
 Alpha virt. eigenvalues --    1.26325   1.26682   1.27195   1.27742   1.28268
 Alpha virt. eigenvalues --    1.28739   1.29285   1.29865   1.30433   1.31069
 Alpha virt. eigenvalues --    1.31298   1.31547   1.31927   1.32528   1.32959
 Alpha virt. eigenvalues --    1.33127   1.33864   1.34236   1.34441   1.34678
 Alpha virt. eigenvalues --    1.35057   1.35452   1.36285   1.36473   1.36508
 Alpha virt. eigenvalues --    1.37567   1.37905   1.38354   1.38701   1.38919
 Alpha virt. eigenvalues --    1.39028   1.39776   1.39891   1.40247   1.40714
 Alpha virt. eigenvalues --    1.40935   1.41137   1.41367   1.41613   1.41848
 Alpha virt. eigenvalues --    1.42431   1.42548   1.42762   1.43359   1.43613
 Alpha virt. eigenvalues --    1.44146   1.44459   1.44676   1.45270   1.45860
 Alpha virt. eigenvalues --    1.45897   1.46035   1.46244   1.46561   1.46670
 Alpha virt. eigenvalues --    1.46858   1.47015   1.47422   1.47630   1.47862
 Alpha virt. eigenvalues --    1.47974   1.48323   1.48556   1.48873   1.49087
 Alpha virt. eigenvalues --    1.49313   1.49620   1.49849   1.50047   1.50690
 Alpha virt. eigenvalues --    1.50779   1.51073   1.51457   1.51599   1.51717
 Alpha virt. eigenvalues --    1.52390   1.52435   1.52664   1.52724   1.53020
 Alpha virt. eigenvalues --    1.53485   1.53539   1.53969   1.54056   1.54506
 Alpha virt. eigenvalues --    1.54718   1.54904   1.55181   1.55259   1.55542
 Alpha virt. eigenvalues --    1.55635   1.56127   1.56772   1.57137   1.57200
 Alpha virt. eigenvalues --    1.57701   1.58137   1.58356   1.58632   1.58837
 Alpha virt. eigenvalues --    1.59150   1.59374   1.59897   1.60147   1.60411
 Alpha virt. eigenvalues --    1.60846   1.61255   1.61545   1.62067   1.62538
 Alpha virt. eigenvalues --    1.62648   1.63218   1.63385   1.63663   1.63843
 Alpha virt. eigenvalues --    1.64238   1.64786   1.65694   1.65802   1.66221
 Alpha virt. eigenvalues --    1.66706   1.66768   1.67262   1.67721   1.68508
 Alpha virt. eigenvalues --    1.68775   1.68875   1.69399   1.69685   1.69924
 Alpha virt. eigenvalues --    1.70528   1.70606   1.71150   1.71276   1.71635
 Alpha virt. eigenvalues --    1.71845   1.72280   1.72673   1.73024   1.73384
 Alpha virt. eigenvalues --    1.73796   1.74784   1.75055   1.75295   1.76029
 Alpha virt. eigenvalues --    1.76150   1.76549   1.76951   1.77215   1.77556
 Alpha virt. eigenvalues --    1.77868   1.78236   1.78599   1.79111   1.79347
 Alpha virt. eigenvalues --    1.79898   1.80424   1.80761   1.80933   1.81089
 Alpha virt. eigenvalues --    1.81533   1.81752   1.82305   1.82713   1.83245
 Alpha virt. eigenvalues --    1.83991   1.84392   1.84568   1.84714   1.85286
 Alpha virt. eigenvalues --    1.86205   1.86687   1.86937   1.87121   1.87608
 Alpha virt. eigenvalues --    1.88315   1.88744   1.89000   1.89331   1.89574
 Alpha virt. eigenvalues --    1.89822   1.90212   1.90551   1.91152   1.91483
 Alpha virt. eigenvalues --    1.91933   1.92182   1.92543   1.92929   1.93145
 Alpha virt. eigenvalues --    1.93843   1.94152   1.94518   1.95085   1.96118
 Alpha virt. eigenvalues --    1.96241   1.96589   1.97359   1.97780   1.97874
 Alpha virt. eigenvalues --    1.98145   1.98794   1.99280   1.99845   2.00590
 Alpha virt. eigenvalues --    2.00730   2.01102   2.01649   2.01977   2.02484
 Alpha virt. eigenvalues --    2.02659   2.03192   2.03428   2.03943   2.04064
 Alpha virt. eigenvalues --    2.04722   2.05267   2.05484   2.05864   2.06923
 Alpha virt. eigenvalues --    2.07694   2.08189   2.08458   2.08733   2.08899
 Alpha virt. eigenvalues --    2.09743   2.10014   2.10145   2.10597   2.10744
 Alpha virt. eigenvalues --    2.11175   2.11280   2.11592   2.11939   2.12246
 Alpha virt. eigenvalues --    2.12677   2.12794   2.13025   2.13743   2.14223
 Alpha virt. eigenvalues --    2.14607   2.14706   2.15521   2.15748   2.16420
 Alpha virt. eigenvalues --    2.17335   2.17465   2.18265   2.18874   2.19080
 Alpha virt. eigenvalues --    2.19391   2.20172   2.20318   2.20796   2.21750
 Alpha virt. eigenvalues --    2.22453   2.22887   2.23052   2.23437   2.23807
 Alpha virt. eigenvalues --    2.23989   2.24281   2.24984   2.25663   2.25914
 Alpha virt. eigenvalues --    2.26572   2.27778   2.28240   2.28423   2.28903
 Alpha virt. eigenvalues --    2.29785   2.30085   2.31361   2.31545   2.32136
 Alpha virt. eigenvalues --    2.32609   2.32778   2.33519   2.33997   2.34226
 Alpha virt. eigenvalues --    2.34967   2.35621   2.36914   2.37032   2.37622
 Alpha virt. eigenvalues --    2.38045   2.39017   2.39063   2.39538   2.39836
 Alpha virt. eigenvalues --    2.40433   2.40843   2.41509   2.41894   2.42178
 Alpha virt. eigenvalues --    2.42378   2.42581   2.43044   2.43482   2.43605
 Alpha virt. eigenvalues --    2.44560   2.44761   2.45239   2.45820   2.45898
 Alpha virt. eigenvalues --    2.46185   2.46500   2.47081   2.47614   2.48434
 Alpha virt. eigenvalues --    2.48921   2.49288   2.50040   2.50993   2.51137
 Alpha virt. eigenvalues --    2.51737   2.52462   2.52701   2.53333   2.53935
 Alpha virt. eigenvalues --    2.54486   2.54966   2.55368   2.56096   2.56895
 Alpha virt. eigenvalues --    2.57145   2.57581   2.57796   2.58459   2.58921
 Alpha virt. eigenvalues --    2.59293   2.59572   2.59720   2.60083   2.60514
 Alpha virt. eigenvalues --    2.61042   2.61297   2.61617   2.62046   2.62843
 Alpha virt. eigenvalues --    2.64565   2.65046   2.65551   2.66079   2.66890
 Alpha virt. eigenvalues --    2.66976   2.67764   2.68205   2.68354   2.68929
 Alpha virt. eigenvalues --    2.69900   2.70668   2.71166   2.71444   2.72380
 Alpha virt. eigenvalues --    2.73012   2.73214   2.73592   2.74418   2.75841
 Alpha virt. eigenvalues --    2.76266   2.76885   2.77324   2.77356   2.79272
 Alpha virt. eigenvalues --    2.79620   2.80006   2.80568   2.81092   2.81667
 Alpha virt. eigenvalues --    2.82368   2.82674   2.83455   2.84350   2.84878
 Alpha virt. eigenvalues --    2.85423   2.86675   2.87271   2.87699   2.88431
 Alpha virt. eigenvalues --    2.88701   2.88805   2.89877   2.90602   2.91254
 Alpha virt. eigenvalues --    2.91817   2.92107   2.92840   2.93059   2.93906
 Alpha virt. eigenvalues --    2.94316   2.94628   2.95215   2.96104   2.97032
 Alpha virt. eigenvalues --    2.97222   2.98069   2.98326   2.98546   2.98812
 Alpha virt. eigenvalues --    2.99234   2.99602   3.00004   3.01067   3.01286
 Alpha virt. eigenvalues --    3.01952   3.02116   3.02306   3.02719   3.02838
 Alpha virt. eigenvalues --    3.04194   3.04524   3.04668   3.05407   3.05872
 Alpha virt. eigenvalues --    3.06071   3.06408   3.06795   3.07359   3.07550
 Alpha virt. eigenvalues --    3.07719   3.08098   3.08543   3.09059   3.09080
 Alpha virt. eigenvalues --    3.09401   3.09686   3.10372   3.10679   3.11452
 Alpha virt. eigenvalues --    3.11783   3.12381   3.12529   3.13006   3.13051
 Alpha virt. eigenvalues --    3.13493   3.13750   3.14113   3.14708   3.14879
 Alpha virt. eigenvalues --    3.15532   3.15640   3.15760   3.16216   3.16315
 Alpha virt. eigenvalues --    3.16569   3.16855   3.17613   3.17932   3.18271
 Alpha virt. eigenvalues --    3.18534   3.18997   3.19255   3.19859   3.20538
 Alpha virt. eigenvalues --    3.21088   3.21420   3.22165   3.22646   3.23197
 Alpha virt. eigenvalues --    3.23397   3.24160   3.25292   3.27476   3.27964
 Alpha virt. eigenvalues --    3.29299   3.29976   3.30503   3.32417   3.33304
 Alpha virt. eigenvalues --    3.33963   3.34666   3.35714   3.37095   3.37427
 Alpha virt. eigenvalues --    3.41130   3.41837   3.42500   3.43789   3.45685
 Alpha virt. eigenvalues --    3.46484   3.47745   3.49121   3.50030   3.52272
 Alpha virt. eigenvalues --    3.53965   3.54349   3.55233   3.55712   3.57275
 Alpha virt. eigenvalues --    3.57789   3.58437   3.59423   3.61126   3.62203
 Alpha virt. eigenvalues --    3.62712   3.63884   3.64587   3.66402   3.67061
 Alpha virt. eigenvalues --    3.67252   3.69201   3.70363   3.71005   3.73081
 Alpha virt. eigenvalues --    3.73136   3.75116   3.76053   3.76748   3.78349
 Alpha virt. eigenvalues --    3.78706   3.79722   3.80004   3.81484   3.83172
 Alpha virt. eigenvalues --    3.84049   3.85572   3.86974   3.87443   3.87861
 Alpha virt. eigenvalues --    3.88184   3.88804   3.89510   3.89883   3.91423
 Alpha virt. eigenvalues --    3.92172   3.92958   3.93507   3.94008   3.96474
 Alpha virt. eigenvalues --    3.97460   3.99049   4.01082   4.02397   4.03156
 Alpha virt. eigenvalues --    4.05231   4.09433   4.10606   4.12534   4.17500
 Alpha virt. eigenvalues --    4.22535   4.25302   4.28376   4.29657   4.34266
 Alpha virt. eigenvalues --    4.35765   4.37710   4.39024   4.39891   4.40732
 Alpha virt. eigenvalues --    4.41336   4.43203   4.44944   4.50430   4.50979
 Alpha virt. eigenvalues --    4.53984   4.57592   4.59797   4.61074   4.63038
 Alpha virt. eigenvalues --    4.66908   4.70314   4.71719   4.72290   4.75652
 Alpha virt. eigenvalues --    4.80719   4.84812   4.90345   4.91767   4.95364
 Alpha virt. eigenvalues --    5.00756   5.02343   5.03022   5.05603  23.08326
 Alpha virt. eigenvalues --   23.22085  23.27927  23.33184  23.45353  23.50931
 Alpha virt. eigenvalues --   23.51377  23.55418  23.58511  23.65204  23.67598
 Alpha virt. eigenvalues --   23.71233  23.74621  23.77052  23.79664  23.80342
 Alpha virt. eigenvalues --   23.81010  23.81704  23.83793  23.84731  23.85043
 Alpha virt. eigenvalues --   23.85714  23.86014  23.86814  23.87778  23.89028
 Alpha virt. eigenvalues --   23.89752  23.91149  23.93622  23.93988  23.95583
 Alpha virt. eigenvalues --   23.96788  23.97998  23.98147  23.99179  23.99485
 Alpha virt. eigenvalues --   24.00235  24.00881  24.01060  24.01787  24.02468
 Alpha virt. eigenvalues --   24.02971  24.03456  24.04689  24.04908  24.05038
 Alpha virt. eigenvalues --   24.05824  24.06891  24.07661  24.07863  24.09475
 Alpha virt. eigenvalues --   24.10306  24.11583  24.11743  24.12573  24.12890
 Alpha virt. eigenvalues --   24.13594  24.14040  24.14607  24.15345  24.15770
 Alpha virt. eigenvalues --   24.16481  24.17069  24.17568  24.18459  24.19564
          Condensed to atoms (all electrons):
 Mulliken charges:
               1
     1  C   -0.130595
     2  C   -0.127341
     3  C   -0.013040
     4  C   -0.039080
     5  C    0.030546
     6  C   -0.022322
     7  C   -0.122127
     8  C   -0.132420
     9  C    0.001255
    10  C   -0.171992
    11  C   -0.000825
    12  C   -0.005688
    13  C   -0.012792
    14  C   -0.007324
    15  C   -0.006108
    16  C   -0.006657
    17  C   -0.012086
    18  C    0.014238
    19  C   -0.004242
    20  C   -0.004655
    21  C   -0.004973
    22  C    0.030744
    23  C   -0.024750
    24  C    0.008878
    25  C   -0.003271
    26  C    0.019589
    27  C    0.045743
    28  C   -0.028436
    29  C    0.027573
    30  C   -0.006080
    31  C   -0.006319
    32  C    0.033344
    33  C   -0.171809
    34  C   -0.007740
    35  C   -0.014137
    36  C    0.001106
    37  C   -0.125514
    38  C   -0.050071
    39  C   -0.115754
    40  C   -0.027656
    41  C   -0.137871
    42  C   -0.019174
    43  C   -0.005717
    44  C   -0.007774
    45  C    0.016269
    46  C   -0.024970
    47  C   -0.006103
    48  C    0.031637
    49  C   -0.011883
    50  C   -0.006099
    51  C   -0.010911
    52  C    0.010781
    53  C    0.017869
    54  C   -0.009979
    55  C   -0.001837
    56  C   -0.011617
    57  C   -0.008666
    58  C   -0.013517
    59  C   -0.003372
    60  C   -0.001365
    61  C   -0.000485
    62  C   -0.029766
    63  C   -0.140646
    64  C   -0.010545
    65  C   -0.018398
    66  C    0.042200
    67  H    0.161826
    68  H    0.157641
    69  H    0.158217
    70  H    0.162858
    71  H    0.149519
    72  H    0.163325
    73  H    0.145955
    74  H    0.145541
    75  H    0.147650
    76  H    0.162195
 Sum of Mulliken charges =  -0.00000
 Mulliken charges with hydrogens summed into heavy atoms:
               1
     1  C    0.014946
     2  C    0.018614
     3  C   -0.013040
     4  C   -0.039080
     5  C    0.030546
     6  C   -0.022322
     7  C    0.039700
     8  C    0.017099
     9  C    0.001255
    10  C   -0.014352
    11  C   -0.000825
    12  C   -0.005688
    13  C   -0.012792
    14  C   -0.007324
    15  C   -0.006108
    16  C   -0.006657
    17  C   -0.012086
    18  C    0.014238
    19  C   -0.004242
    20  C   -0.004655
    21  C   -0.004973
    22  C    0.030744
    23  C   -0.024750
    24  C    0.008878
    25  C   -0.003271
    26  C    0.019589
    27  C    0.045743
    28  C   -0.028436
    29  C    0.027573
    30  C   -0.006080
    31  C   -0.006319
    32  C    0.033344
    33  C   -0.013593
    34  C   -0.007740
    35  C   -0.014137
    36  C    0.001106
    37  C    0.037344
    38  C   -0.050071
    39  C    0.046442
    40  C   -0.027656
    41  C    0.009779
    42  C   -0.019174
    43  C   -0.005717
    44  C   -0.007774
    45  C    0.016269
    46  C   -0.024970
    47  C   -0.006103
    48  C    0.031637
    49  C   -0.011883
    50  C   -0.006099
    51  C   -0.010911
    52  C    0.010781
    53  C    0.017869
    54  C   -0.009979
    55  C   -0.001837
    56  C   -0.011617
    57  C   -0.008666
    58  C   -0.013517
    59  C   -0.003372
    60  C   -0.001365
    61  C   -0.000485
    62  C   -0.029766
    63  C    0.022680
    64  C   -0.010545
    65  C   -0.018398
    66  C    0.042200
 Electronic spatial extent (au):  <R**2>=          21867.3555
 Charge=             -0.0000 electrons
 Dipole moment (field-independent basis, Debye):
    X=             -1.1366    Y=             -2.8682    Z=             -1.4537  Tot=              3.4105
 Quadrupole moment (field-independent basis, Debye-Ang):
   XX=           -332.2620   YY=           -380.7930   ZZ=           -370.6629
   XY=              5.0013   XZ=              5.4362   YZ=              8.4826
 Traceless Quadrupole moment (field-independent basis, Debye-Ang):
   XX=             28.9773   YY=            -19.5537   ZZ=             -9.4236
   XY=              5.0013   XZ=              5.4362   YZ=              8.4826
 Octapole moment (field-independent basis, Debye-Ang**2):
  XXX=            -49.9641  YYY=            -47.4938  ZZZ=            -17.3446  XYY=            -44.0470
  XXY=            -48.1023  XXZ=            -16.9680  XZZ=             38.9934  YZZ=            -23.8091
  YYZ=            -24.8587  XYZ=            -12.7948
 Hexadecapole moment (field-independent basis, Debye-Ang**3):
 XXXX=         -12156.7913 YYYY=         -11410.9390 ZZZZ=          -8776.8493 XXXY=             16.2598
 XXXZ=            105.2724 YYYX=            165.5369 YYYZ=            100.7879 ZZZX=             29.9701
 ZZZY=             86.1282 XXYY=          -4074.1466 XXZZ=          -3486.6891 YYZZ=          -3372.2519
 XXYZ=             93.8831 YYXZ=             61.2758 ZZXY=              7.2001
 N-N= 1.001318604060D+04 E-N=-2.587647855298D+04  KE= 2.511053317182D+03
 No NMR shielding tensors so no spin-rotation constants.
 Leave Link  601 at Wed Jul 20 05:30:19 2022, MaxMem=  1342177280 cpu:              63.1 elap:               1.5
 (Enter /home/mkliu/g16/l9999.exe)
 1\1\GINC-NODE01\FOpt\RB3LYP\6-311G(d,p)\C66H10\MKLIU\20-Jul-2022\0\\#P
  opt b3lyp/6-311G(d, p) empiricaldispersion=GD3\\force\\0,1\C,12.51265
 98632,11.8815126255,21.9471679435\C,12.5003633358,12.9878376405,23.056
 1921526\C,12.7835939951,14.3788613297,22.5254778362\C,12.6979194121,14
 .8019596191,21.2326275464\C,13.5897505415,15.1146303403,23.4240417771\
 C,14.1598092026,14.2344642521,24.3845450062\C,15.6664412892,17.3766366
 12,18.733801463\C,13.535276221,12.8511583407,24.2825546764\C,15.422343
 8614,14.4981260388,24.8652300035\C,16.9692073766,17.0129789877,17.8916
 089217\C,16.1006120481,15.7128401713,24.4821729013\C,15.5012907885,16.
 6109941892,23.5888151119\C,14.2439247792,16.2752204016,22.9976748155\C
 ,19.2809326699,14.0596787487,22.6021533517\C,16.2762118959,17.30575609
 82,22.6029257496\C,19.2436749868,15.4529614657,22.5920954292\C,19.3118
 301247,16.1240636571,21.3371106344\C,17.5045424731,11.6131611451,19.29
 01307091\C,17.7680611816,11.3145609793,20.7295370399\C,18.5510333661,1
 2.0354481114,21.628362785\C,18.0692713331,16.8983519038,18.9240595883\
 C,17.6206904276,17.4374269459,20.1667761516\C,16.1840208622,17.5440496
 454,20.1659613337\C,15.5075839194,17.3934012702,21.3635122173\C,14.219
 3981063,16.6949344149,21.619238544\C,13.4582466282,15.9279927279,20.73
 38916042\C,13.6980978678,15.6833688119,19.2941630469\C,14.727582027,16
 .1856037833,18.4976460207\C,15.3084054404,15.3150257435,17.5255217801\
 C,16.6934231778,15.6308913692,17.34377834\C,17.6247244041,14.620681353
 2,17.3469274614\C,17.1947884653,13.2717653096,17.538706151\C,19.028298
 4536,14.7854286451,17.8884071527\C,15.8440580776,12.9460440347,17.4047
 202328\C,14.863637456,13.9981513202,17.3852515789\C,13.7048267199,13.5
 510483437,18.0831769686\C,19.3022715019,13.456270817,18.7233593575\C,1
 3.1055351513,14.4050939774,18.9821910872\C,12.226600793,13.9108851301,
 20.1177262192\C,18.0470589089,12.6076975365,18.4949368654\C,12.2816837
 61,12.3503446309,20.4298456362\C,13.4074105854,11.6751942401,19.666694
 8415\C,13.9341509237,12.1501115628,18.4926654091\C,15.3037478463,11.84
 70758096,18.1283460611\C,19.3166323732,13.2836236649,21.3647798752\C,1
 9.5046967459,13.9504387294,20.1627857221\C,16.1391431752,11.1752497416
 ,19.020436557\C,19.5047954349,15.3918051392,20.1649628842\C,15.5732031
 176,10.6485480779,20.212619917\C,19.0022231737,15.8860003168,18.923687
 6236\C,16.5622152112,10.6689176001,21.2378883863\C,16.129812691,10.807
 8329627,22.5515167654\C,16.9418238546,11.5171193953,23.4837890107\C,18
 .1354379817,12.0890029426,23.0315874469\C,18.5436003412,13.3360745143,
 23.5986082176\C,18.3367920391,17.1842614652,21.3390923547\C,17.6641433
 388,17.1661257573,22.5949498539\C,18.2772998677,16.1449672054,23.42843
 80444\C,17.513895842,15.4337769847,24.3422559388\C,17.6950027887,14.00
 59755158,24.4952110266\C,16.4322698055,13.41999462,24.8823058564\C,16.
 0849186756,12.1719605041,24.4307227352\C,14.6350083303,11.7063580547,2
 4.2281132617\C,14.7457267593,11.0246726201,22.879714664\C,13.821018300
 7,11.1169880255,21.8860765439\C,14.2289519129,10.9070968352,20.5335409
 733\H,15.2024891643,18.3039497464,18.3859241426\H,17.1780007022,17.754
 6665966,17.116171861\H,19.7780902148,14.9416639577,17.1084446653\H,20.
 1928081149,12.9290136388,18.3702722964\H,12.9498476412,12.6618436742,2
 5.1840690878\H,14.3749498499,10.9766191158,25.0023540938\H,11.49975530
 98,12.9817668531,23.4975458383\H,11.7056472118,11.1829985712,22.184267
 1602\H,11.3236188892,11.9459373112,20.0995316996\H,11.1827007112,14.14
 33934075,19.876455854\\Version=ES64L-G16RevA.03\State=1-A\HF=-2521.492
 6123\RMSD=3.753e-09\RMSF=7.314e-05\Dipole=-1.2309638,-0.1669292,-0.507
 2396\Quadrupole=9.4763858,-7.295052,-2.1813338,5.6839358,-13.1022582,-
 12.4239278\PG=C01 [X(C66H10)]\\@


 MEN HAVE BECOME THE TOOLS OF THEIR TOOLS... THOREAU   
 Job cpu time:       1 days  3 hours  8 minutes 33.4 seconds.
 Elapsed time:       0 days  0 hours 34 minutes  0.9 seconds.
 File lengths (MBytes):  RWF=    957 Int=      0 D2E=      0 Chk=    119 Scr=      1
 Normal termination of Gaussian 16 at Wed Jul 20 05:30:20 2022.
