 Entering Gaussian System, Link 0=g16
 Input=dihept_2_addons_2.gjf
 Output=dihept_2_addons_2.log
 Initial command:
 /home/mkliu/g16/l1.exe "/data/scratch/Gau-166150.inp" -scrdir="/data/scratch/"
 Entering Link 1 = /home/mkliu/g16/l1.exe PID=    166151.
  
 Copyright (c) 1988,1990,1992,1993,1995,1998,2003,2009,2016,
            Gaussian, Inc.  All Rights Reserved.
  
 This is part of the Gaussian(R) 16 program.  It is based on
 the Gaussian(R) 09 system (copyright 2009, Gaussian, Inc.),
 the Gaussian(R) 03 system (copyright 2003, Gaussian, Inc.),
 the Gaussian(R) 98 system (copyright 1998, Gaussian, Inc.),
 the Gaussian(R) 94 system (copyright 1995, Gaussian, Inc.),
 the Gaussian 92(TM) system (copyright 1992, Gaussian, Inc.),
 the Gaussian 90(TM) system (copyright 1990, Gaussian, Inc.),
 the Gaussian 88(TM) system (copyright 1988, Gaussian, Inc.),
 the Gaussian 86(TM) system (copyright 1986, Carnegie Mellon
 University), and the Gaussian 82(TM) system (copyright 1983,
 Carnegie Mellon University). Gaussian is a federally registered
 trademark of Gaussian, Inc.
  
 This software contains proprietary and confidential information,
 including trade secrets, belonging to Gaussian, Inc.
  
 This software is provided under written license and may be
 used, copied, transmitted, or stored only in accord with that
 written license.
  
 The following legend is applicable only to US Government
 contracts under FAR:
  
                    RESTRICTED RIGHTS LEGEND
  
 Use, reproduction and disclosure by the US Government is
 subject to restrictions as set forth in subparagraphs (a)
 and (c) of the Commercial Computer Software - Restricted
 Rights clause in FAR 52.227-19.
  
 Gaussian, Inc.
 340 Quinnipiac St., Bldg. 40, Wallingford CT 06492
  
  
 ---------------------------------------------------------------
 Warning -- This program may not be used in any manner that
 competes with the business of Gaussian, Inc. or will provide
 assistance to any competitor of Gaussian, Inc.  The licensee
 of this program is prohibited from giving any competitor of
 Gaussian, Inc. access to this program.  By using this program,
 the user acknowledges that Gaussian, Inc. is engaged in the
 business of creating and licensing software in the field of
 computational chemistry and represents and warrants to the
 licensee that it is not a competitor of Gaussian, Inc. and that
 it will not use this program in any manner prohibited above.
 ---------------------------------------------------------------
  

 Cite this work as:
 Gaussian 16, Revision A.03,
 M. J. Frisch, G. W. Trucks, H. B. Schlegel, G. E. Scuseria, 
 M. A. Robb, J. R. Cheeseman, G. Scalmani, V. Barone, 
 G. A. Petersson, H. Nakatsuji, X. Li, M. Caricato, A. V. Marenich, 
 J. Bloino, B. G. Janesko, R. Gomperts, B. Mennucci, H. P. Hratchian, 
 J. V. Ortiz, A. F. Izmaylov, J. L. Sonnenberg, D. Williams-Young, 
 F. Ding, F. Lipparini, F. Egidi, J. Goings, B. Peng, A. Petrone, 
 T. Henderson, D. Ranasinghe, V. G. Zakrzewski, J. Gao, N. Rega, 
 G. Zheng, W. Liang, M. Hada, M. Ehara, K. Toyota, R. Fukuda, 
 J. Hasegawa, M. Ishida, T. Nakajima, Y. Honda, O. Kitao, H. Nakai, 
 T. Vreven, K. Throssell, J. A. Montgomery, Jr., J. E. Peralta, 
 F. Ogliaro, M. J. Bearpark, J. J. Heyd, E. N. Brothers, K. N. Kudin, 
 V. N. Staroverov, T. A. Keith, R. Kobayashi, J. Normand, 
 K. Raghavachari, A. P. Rendell, J. C. Burant, S. S. Iyengar, 
 J. Tomasi, M. Cossi, J. M. Millam, M. Klene, C. Adamo, R. Cammi, 
 J. W. Ochterski, R. L. Martin, K. Morokuma, O. Farkas, 
 J. B. Foresman, and D. J. Fox, Gaussian, Inc., Wallingford CT, 2016.
 
 ******************************************
 Gaussian 16:  ES64L-G16RevA.03 25-Dec-2016
                20-Jul-2022 
 ******************************************
 %mem=10GB
 %chk=dihept_2_addons_2.chk
 %nprocshared=48
 Will use up to   48 processors via shared memory.
 -------------------------------------------------
 #P opt b3lyp/6-311G(d, p) empiricaldispersion=GD3
 -------------------------------------------------
 1/18=20,19=15,26=3,38=1/1,3;
 2/9=110,12=2,17=6,18=5,40=1/2;
 3/5=4,6=6,7=101,11=2,25=1,30=1,71=1,74=-5,124=31/1,2,3;
 4//1;
 5/5=2,38=5/2;
 6/7=2,8=2,9=2,10=2,28=1/1;
 7//1,2,3,16;
 1/18=20,19=15,26=3/3(2);
 2/9=110/2;
 99//99;
 2/9=110/2;
 3/5=4,6=6,7=101,11=2,25=1,30=1,71=1,74=-5,124=31/1,2,3;
 4/5=5,16=3,69=1/1;
 5/5=2,38=5/2;
 7//1,2,3,16;
 1/18=20,19=15,26=3/3(-5);
 2/9=110/2;
 6/7=2,8=2,9=2,10=2,19=2,28=1/1;
 99/9=1/99;
 Leave Link    1 at Wed Jul 20 12:20:37 2022, MaxMem=  1342177280 cpu:               2.0 elap:               0.0
 (Enter /home/mkliu/g16/l101.exe)
 -----
 force
 -----
 Symbolic Z-matrix:
 Charge =  0 Multiplicity = 1
 C                     12.81098   12.08934   21.89079 
 C                     12.81994   13.03406   22.90588 
 C                     12.70365   14.43379   22.57995 
 C                     12.64064   14.84725   21.25556 
 C                     13.50737   15.17568   23.49457 
 C                     14.13516   14.24811   24.40258 
 C                     15.6461   17.33865   18.74933 
 C                     13.74825   12.91803   24.00286 
 C                     15.4202   14.49785   24.86004 
 C                     16.92747   16.97371   17.91935 
 C                     16.08835   15.71614   24.49079 
 C                     15.48082   16.58735   23.59307 
 C                     14.19965   16.28634   23.02969 
 C                     19.24764   14.05     22.60652 
 C                     16.25023   17.25973   22.5903 
 C                     19.21661   15.43971   22.59734 
 C                     19.30229   16.11666   21.34216 
 C                     17.4462   11.59293   19.30552 
 C                     17.69891   11.33531   20.72903 
 C                     18.48432   12.06031   21.62281 
 C                     18.03307   16.88544   18.93629 
 C                     17.58095   17.40551   20.17367 
 C                     16.14928   17.49541   20.1737 
 C                     15.48111   17.34197   21.3675 
 C                     14.18898   16.6877   21.63763 
 C                     13.40804   15.96683   20.74894 
 C                     13.69056   15.68915   19.32988 
 C                     14.70745   16.16448   18.53291 
 C                     15.28203   15.28343   17.55753 
 C                     16.64678   15.60579   17.35871 
 C                     17.57654   14.58368   17.34942 
 C                     17.16381   13.21514   17.49629 
 C                     18.7801   14.72699   18.11379 
 C                     15.82046   12.90267   17.3799 
 C                     14.85652   13.96404   17.40775 
 C                     13.72012   13.51381   18.13654 
 C                     18.98702   13.5675   18.87249 
 C                     13.13481   14.38395   19.045 
 C                     12.5236   13.8576   20.2278 
 C                     17.99776   12.58013   18.50396 
 C                     12.60688   12.50247   20.52894 
 C                     13.39316   11.64346   19.67645 
 C                     13.92563   12.13436   18.49977 
 C                     15.2786   11.80462   18.11595 
 C                     19.27057   13.27696   21.38162 
 C                     19.47218   13.94113   20.18182 
 C                     16.09851   11.1431   19.02286 
 C                     19.52445   15.39419   20.18265 
 C                     15.52865   10.59637   20.21542 
 C                     18.97828   15.87759   18.94457 
 C                     16.52555   10.65411   21.24191 
 C                     16.12151   10.74828   22.56604 
 C                     16.92521   11.49016   23.48065 
 C                     18.08534   12.09392   23.01693 
 C                     18.49821   13.3375   23.59473 
 C                     18.30817   17.15018   21.33567 
 C                     17.63101   17.12387   22.58707 
 C                     18.25245   16.12836   23.42363 
 C                     17.49537   15.43012   24.3447 
 C                     17.66978   14.00968   24.49053 
 C                     16.4004   13.4397   24.8561 
 C                     16.05075   12.18036   24.39566 
 C                     14.69352   11.89656   24.00077 
 C                     14.73615   10.96688   22.89967 
 C                     13.79185   11.0318   21.88761 
 C                     14.18454   10.79253   20.52438 
 H                     15.17724   18.2675   18.4079 
 H                     17.14573   17.70391   17.13525 
 
 ITRead=  0  0  0  0  0  0  0  0  0  0  0  0  0  0  0  0  0  0  0  0
 ITRead=  0  0  0  0  0  0  0  0  0  0  0  0  0  0  0  0  0  0  0  0
 ITRead=  0  0  0  0  0  0  0  0  0  0  0  0  0  0  0  0  0  0  0  0
 ITRead=  0  0  0  0  0  0  0  0
 MicOpt= -1 -1 -1 -1 -1 -1 -1 -1 -1 -1 -1 -1 -1 -1 -1 -1 -1 -1 -1 -1
 MicOpt= -1 -1 -1 -1 -1 -1 -1 -1 -1 -1 -1 -1 -1 -1 -1 -1 -1 -1 -1 -1
 MicOpt= -1 -1 -1 -1 -1 -1 -1 -1 -1 -1 -1 -1 -1 -1 -1 -1 -1 -1 -1 -1
 MicOpt= -1 -1 -1 -1 -1 -1 -1 -1
 NAtoms=     68 NQM=       68 NQMF=       0 NMMI=      0 NMMIF=      0
                NMic=       0 NMicF=      0.
                    Isotopes and Nuclear Properties:
 (Nuclear quadrupole moments (NQMom) in fm**2, nuclear magnetic moments (NMagM)
  in nuclear magnetons)

  Atom         1           2           3           4           5           6           7           8           9          10
 IAtWgt=          12          12          12          12          12          12          12          12          12          12
 AtmWgt=  12.0000000  12.0000000  12.0000000  12.0000000  12.0000000  12.0000000  12.0000000  12.0000000  12.0000000  12.0000000
 NucSpn=           0           0           0           0           0           0           0           0           0           0
 AtZEff=  -0.0000000  -0.0000000  -0.0000000  -0.0000000  -0.0000000  -0.0000000  -0.0000000  -0.0000000  -0.0000000  -0.0000000
 NQMom=    0.0000000   0.0000000   0.0000000   0.0000000   0.0000000   0.0000000   0.0000000   0.0000000   0.0000000   0.0000000
 NMagM=    0.0000000   0.0000000   0.0000000   0.0000000   0.0000000   0.0000000   0.0000000   0.0000000   0.0000000   0.0000000
 AtZNuc=   6.0000000   6.0000000   6.0000000   6.0000000   6.0000000   6.0000000   6.0000000   6.0000000   6.0000000   6.0000000

  Atom        11          12          13          14          15          16          17          18          19          20
 IAtWgt=          12          12          12          12          12          12          12          12          12          12
 AtmWgt=  12.0000000  12.0000000  12.0000000  12.0000000  12.0000000  12.0000000  12.0000000  12.0000000  12.0000000  12.0000000
 NucSpn=           0           0           0           0           0           0           0           0           0           0
 AtZEff=  -0.0000000  -0.0000000  -0.0000000  -0.0000000  -0.0000000  -0.0000000  -0.0000000  -0.0000000  -0.0000000  -0.0000000
 NQMom=    0.0000000   0.0000000   0.0000000   0.0000000   0.0000000   0.0000000   0.0000000   0.0000000   0.0000000   0.0000000
 NMagM=    0.0000000   0.0000000   0.0000000   0.0000000   0.0000000   0.0000000   0.0000000   0.0000000   0.0000000   0.0000000
 AtZNuc=   6.0000000   6.0000000   6.0000000   6.0000000   6.0000000   6.0000000   6.0000000   6.0000000   6.0000000   6.0000000

  Atom        21          22          23          24          25          26          27          28          29          30
 IAtWgt=          12          12          12          12          12          12          12          12          12          12
 AtmWgt=  12.0000000  12.0000000  12.0000000  12.0000000  12.0000000  12.0000000  12.0000000  12.0000000  12.0000000  12.0000000
 NucSpn=           0           0           0           0           0           0           0           0           0           0
 AtZEff=  -0.0000000  -0.0000000  -0.0000000  -0.0000000  -0.0000000  -0.0000000  -0.0000000  -0.0000000  -0.0000000  -0.0000000
 NQMom=    0.0000000   0.0000000   0.0000000   0.0000000   0.0000000   0.0000000   0.0000000   0.0000000   0.0000000   0.0000000
 NMagM=    0.0000000   0.0000000   0.0000000   0.0000000   0.0000000   0.0000000   0.0000000   0.0000000   0.0000000   0.0000000
 AtZNuc=   6.0000000   6.0000000   6.0000000   6.0000000   6.0000000   6.0000000   6.0000000   6.0000000   6.0000000   6.0000000

  Atom        31          32          33          34          35          36          37          38          39          40
 IAtWgt=          12          12          12          12          12          12          12          12          12          12
 AtmWgt=  12.0000000  12.0000000  12.0000000  12.0000000  12.0000000  12.0000000  12.0000000  12.0000000  12.0000000  12.0000000
 NucSpn=           0           0           0           0           0           0           0           0           0           0
 AtZEff=  -0.0000000  -0.0000000  -0.0000000  -0.0000000  -0.0000000  -0.0000000  -0.0000000  -0.0000000  -0.0000000  -0.0000000
 NQMom=    0.0000000   0.0000000   0.0000000   0.0000000   0.0000000   0.0000000   0.0000000   0.0000000   0.0000000   0.0000000
 NMagM=    0.0000000   0.0000000   0.0000000   0.0000000   0.0000000   0.0000000   0.0000000   0.0000000   0.0000000   0.0000000
 AtZNuc=   6.0000000   6.0000000   6.0000000   6.0000000   6.0000000   6.0000000   6.0000000   6.0000000   6.0000000   6.0000000

  Atom        41          42          43          44          45          46          47          48          49          50
 IAtWgt=          12          12          12          12          12          12          12          12          12          12
 AtmWgt=  12.0000000  12.0000000  12.0000000  12.0000000  12.0000000  12.0000000  12.0000000  12.0000000  12.0000000  12.0000000
 NucSpn=           0           0           0           0           0           0           0           0           0           0
 AtZEff=  -0.0000000  -0.0000000  -0.0000000  -0.0000000  -0.0000000  -0.0000000  -0.0000000  -0.0000000  -0.0000000  -0.0000000
 NQMom=    0.0000000   0.0000000   0.0000000   0.0000000   0.0000000   0.0000000   0.0000000   0.0000000   0.0000000   0.0000000
 NMagM=    0.0000000   0.0000000   0.0000000   0.0000000   0.0000000   0.0000000   0.0000000   0.0000000   0.0000000   0.0000000
 AtZNuc=   6.0000000   6.0000000   6.0000000   6.0000000   6.0000000   6.0000000   6.0000000   6.0000000   6.0000000   6.0000000

  Atom        51          52          53          54          55          56          57          58          59          60
 IAtWgt=          12          12          12          12          12          12          12          12          12          12
 AtmWgt=  12.0000000  12.0000000  12.0000000  12.0000000  12.0000000  12.0000000  12.0000000  12.0000000  12.0000000  12.0000000
 NucSpn=           0           0           0           0           0           0           0           0           0           0
 AtZEff=  -0.0000000  -0.0000000  -0.0000000  -0.0000000  -0.0000000  -0.0000000  -0.0000000  -0.0000000  -0.0000000  -0.0000000
 NQMom=    0.0000000   0.0000000   0.0000000   0.0000000   0.0000000   0.0000000   0.0000000   0.0000000   0.0000000   0.0000000
 NMagM=    0.0000000   0.0000000   0.0000000   0.0000000   0.0000000   0.0000000   0.0000000   0.0000000   0.0000000   0.0000000
 AtZNuc=   6.0000000   6.0000000   6.0000000   6.0000000   6.0000000   6.0000000   6.0000000   6.0000000   6.0000000   6.0000000

  Atom        61          62          63          64          65          66          67          68
 IAtWgt=          12          12          12          12          12          12           1           1
 AtmWgt=  12.0000000  12.0000000  12.0000000  12.0000000  12.0000000  12.0000000   1.0078250   1.0078250
 NucSpn=           0           0           0           0           0           0           1           1
 AtZEff=  -0.0000000  -0.0000000  -0.0000000  -0.0000000  -0.0000000  -0.0000000  -0.0000000  -0.0000000
 NQMom=    0.0000000   0.0000000   0.0000000   0.0000000   0.0000000   0.0000000   0.0000000   0.0000000
 NMagM=    0.0000000   0.0000000   0.0000000   0.0000000   0.0000000   0.0000000   2.7928460   2.7928460
 AtZNuc=   6.0000000   6.0000000   6.0000000   6.0000000   6.0000000   6.0000000   1.0000000   1.0000000
 Leave Link  101 at Wed Jul 20 12:20:38 2022, MaxMem=  1342177280 cpu:              26.3 elap:               0.6
 (Enter /home/mkliu/g16/l103.exe)

 GradGradGradGradGradGradGradGradGradGradGradGradGradGradGradGradGradGrad
 Berny optimization.
 Initialization pass.
                           ----------------------------
                           !    Initial Parameters    !
                           ! (Angstroms and Degrees)  !
 --------------------------                            --------------------------
 ! Name  Definition              Value          Derivative Info.                !
 --------------------------------------------------------------------------------
 ! R1    R(1,2)                  1.3867         estimate D2E/DX2                !
 ! R2    R(1,41)                 1.4377         estimate D2E/DX2                !
 ! R3    R(1,65)                 1.4424         estimate D2E/DX2                !
 ! R4    R(2,3)                  1.4419         estimate D2E/DX2                !
 ! R5    R(2,8)                  1.4417         estimate D2E/DX2                !
 ! R6    R(3,4)                  1.3889         estimate D2E/DX2                !
 ! R7    R(3,5)                  1.4258         estimate D2E/DX2                !
 ! R8    R(4,26)                 1.4488         estimate D2E/DX2                !
 ! R9    R(4,39)                 1.4316         estimate D2E/DX2                !
 ! R10   R(5,6)                  1.4419         estimate D2E/DX2                !
 ! R11   R(5,13)                 1.3889         estimate D2E/DX2                !
 ! R12   R(6,8)                  1.4417         estimate D2E/DX2                !
 ! R13   R(6,9)                  1.3867         estimate D2E/DX2                !
 ! R14   R(7,10)                 1.5697         estimate D2E/DX2                !
 ! R15   R(7,23)                 1.5187         estimate D2E/DX2                !
 ! R16   R(7,28)                 1.5187         estimate D2E/DX2                !
 ! R17   R(7,67)                 1.0951         estimate D2E/DX2                !
 ! R18   R(8,63)                 1.3917         estimate D2E/DX2                !
 ! R19   R(9,11)                 1.4377         estimate D2E/DX2                !
 ! R20   R(9,61)                 1.4424         estimate D2E/DX2                !
 ! R21   R(10,21)                1.5048         estimate D2E/DX2                !
 ! R22   R(10,30)                1.5048         estimate D2E/DX2                !
 ! R23   R(10,68)                1.0935         estimate D2E/DX2                !
 ! R24   R(11,12)                1.3907         estimate D2E/DX2                !
 ! R25   R(11,59)                1.4432         estimate D2E/DX2                !
 ! R26   R(12,13)                1.4316         estimate D2E/DX2                !
 ! R27   R(12,15)                1.4317         estimate D2E/DX2                !
 ! R28   R(13,25)                1.4488         estimate D2E/DX2                !
 ! R29   R(14,16)                1.3901         estimate D2E/DX2                !
 ! R30   R(14,45)                1.4486         estimate D2E/DX2                !
 ! R31   R(14,55)                1.4303         estimate D2E/DX2                !
 ! R32   R(15,24)                1.4469         estimate D2E/DX2                !
 ! R33   R(15,57)                1.3875         estimate D2E/DX2                !
 ! R34   R(16,17)                1.4287         estimate D2E/DX2                !
 ! R35   R(16,58)                1.4445         estimate D2E/DX2                !
 ! R36   R(17,48)                1.3841         estimate D2E/DX2                !
 ! R37   R(17,56)                1.434          estimate D2E/DX2                !
 ! R38   R(18,19)                1.4685         estimate D2E/DX2                !
 ! R39   R(18,40)                1.3861         estimate D2E/DX2                !
 ! R40   R(18,47)                1.4486         estimate D2E/DX2                !
 ! R41   R(19,20)                1.3933         estimate D2E/DX2                !
 ! R42   R(19,51)                1.4505         estimate D2E/DX2                !
 ! R43   R(20,45)                1.4685         estimate D2E/DX2                !
 ! R44   R(20,54)                1.4505         estimate D2E/DX2                !
 ! R45   R(21,22)                1.4163         estimate D2E/DX2                !
 ! R46   R(21,50)                1.3818         estimate D2E/DX2                !
 ! R47   R(22,23)                1.4345         estimate D2E/DX2                !
 ! R48   R(22,56)                1.3944         estimate D2E/DX2                !
 ! R49   R(23,24)                1.3766         estimate D2E/DX2                !
 ! R50   R(24,25)                1.4733         estimate D2E/DX2                !
 ! R51   R(25,26)                1.3854         estimate D2E/DX2                !
 ! R52   R(26,27)                1.4733         estimate D2E/DX2                !
 ! R53   R(27,28)                1.3766         estimate D2E/DX2                !
 ! R54   R(27,38)                1.4469         estimate D2E/DX2                !
 ! R55   R(28,29)                1.4345         estimate D2E/DX2                !
 ! R56   R(29,30)                1.4163         estimate D2E/DX2                !
 ! R57   R(29,35)                1.3944         estimate D2E/DX2                !
 ! R58   R(30,31)                1.3818         estimate D2E/DX2                !
 ! R59   R(31,32)                1.4369         estimate D2E/DX2                !
 ! R60   R(31,33)                1.433          estimate D2E/DX2                !
 ! R61   R(32,34)                1.3841         estimate D2E/DX2                !
 ! R62   R(32,40)                1.454          estimate D2E/DX2                !
 ! R63   R(33,37)                1.401          estimate D2E/DX2                !
 ! R64   R(33,50)                1.433          estimate D2E/DX2                !
 ! R65   R(34,35)                1.434          estimate D2E/DX2                !
 ! R66   R(34,44)                1.4287         estimate D2E/DX2                !
 ! R67   R(35,36)                1.4231         estimate D2E/DX2                !
 ! R68   R(36,38)                1.3875         estimate D2E/DX2                !
 ! R69   R(36,43)                1.4412         estimate D2E/DX2                !
 ! R70   R(37,40)                1.4455         estimate D2E/DX2                !
 ! R71   R(37,46)                1.4455         estimate D2E/DX2                !
 ! R72   R(38,39)                1.4317         estimate D2E/DX2                !
 ! R73   R(39,41)                1.3907         estimate D2E/DX2                !
 ! R74   R(41,42)                1.4432         estimate D2E/DX2                !
 ! R75   R(42,43)                1.3817         estimate D2E/DX2                !
 ! R76   R(42,66)                1.4385         estimate D2E/DX2                !
 ! R77   R(43,44)                1.4445         estimate D2E/DX2                !
 ! R78   R(44,47)                1.3901         estimate D2E/DX2                !
 ! R79   R(45,46)                1.3861         estimate D2E/DX2                !
 ! R80   R(46,48)                1.454          estimate D2E/DX2                !
 ! R81   R(47,49)                1.4303         estimate D2E/DX2                !
 ! R82   R(48,50)                1.4369         estimate D2E/DX2                !
 ! R83   R(49,51)                1.4321         estimate D2E/DX2                !
 ! R84   R(49,66)                1.393          estimate D2E/DX2                !
 ! R85   R(51,52)                1.3876         estimate D2E/DX2                !
 ! R86   R(52,53)                1.4258         estimate D2E/DX2                !
 ! R87   R(52,64)                1.4416         estimate D2E/DX2                !
 ! R88   R(53,54)                1.3876         estimate D2E/DX2                !
 ! R89   R(53,62)                1.4416         estimate D2E/DX2                !
 ! R90   R(54,55)                1.4321         estimate D2E/DX2                !
 ! R91   R(55,60)                1.393          estimate D2E/DX2                !
 ! R92   R(56,57)                1.4231         estimate D2E/DX2                !
 ! R93   R(57,58)                1.4412         estimate D2E/DX2                !
 ! R94   R(58,59)                1.3817         estimate D2E/DX2                !
 ! R95   R(59,60)                1.4385         estimate D2E/DX2                !
 ! R96   R(60,61)                1.4387         estimate D2E/DX2                !
 ! R97   R(61,62)                1.3857         estimate D2E/DX2                !
 ! R98   R(62,63)                1.4417         estimate D2E/DX2                !
 ! R99   R(63,64)                1.4417         estimate D2E/DX2                !
 ! R100  R(64,65)                1.3857         estimate D2E/DX2                !
 ! R101  R(65,66)                1.4387         estimate D2E/DX2                !
 ! A1    A(2,1,41)             119.9039         estimate D2E/DX2                !
 ! A2    A(2,1,65)             119.783          estimate D2E/DX2                !
 ! A3    A(41,1,65)            107.766          estimate D2E/DX2                !
 ! A4    A(1,2,3)              119.6937         estimate D2E/DX2                !
 ! A5    A(1,2,8)              120.4175         estimate D2E/DX2                !
 ! A6    A(3,2,8)              107.5808         estimate D2E/DX2                !
 ! A7    A(2,3,4)              120.5447         estimate D2E/DX2                !
 ! A8    A(2,3,5)              108.3405         estimate D2E/DX2                !
 ! A9    A(4,3,5)              118.8405         estimate D2E/DX2                !
 ! A10   A(3,4,26)             122.6476         estimate D2E/DX2                !
 ! A11   A(3,4,39)             118.8494         estimate D2E/DX2                !
 ! A12   A(26,4,39)            109.0547         estimate D2E/DX2                !
 ! A13   A(3,5,6)              108.3405         estimate D2E/DX2                !
 ! A14   A(3,5,13)             118.8405         estimate D2E/DX2                !
 ! A15   A(6,5,13)             120.5447         estimate D2E/DX2                !
 ! A16   A(5,6,8)              107.5808         estimate D2E/DX2                !
 ! A17   A(5,6,9)              119.6937         estimate D2E/DX2                !
 ! A18   A(8,6,9)              120.4175         estimate D2E/DX2                !
 ! A19   A(10,7,23)            104.4439         estimate D2E/DX2                !
 ! A20   A(10,7,28)            104.444          estimate D2E/DX2                !
 ! A21   A(10,7,67)            112.4482         estimate D2E/DX2                !
 ! A22   A(23,7,28)            114.7217         estimate D2E/DX2                !
 ! A23   A(23,7,67)            110.2869         estimate D2E/DX2                !
 ! A24   A(28,7,67)            110.2869         estimate D2E/DX2                !
 ! A25   A(2,8,6)              108.029          estimate D2E/DX2                !
 ! A26   A(2,8,63)             119.6867         estimate D2E/DX2                !
 ! A27   A(6,8,63)             119.6867         estimate D2E/DX2                !
 ! A28   A(6,9,11)             119.9039         estimate D2E/DX2                !
 ! A29   A(6,9,61)             119.783          estimate D2E/DX2                !
 ! A30   A(11,9,61)            107.766          estimate D2E/DX2                !
 ! A31   A(7,10,21)            104.8376         estimate D2E/DX2                !
 ! A32   A(7,10,30)            104.8376         estimate D2E/DX2                !
 ! A33   A(7,10,68)            112.759          estimate D2E/DX2                !
 ! A34   A(21,10,30)           109.6037         estimate D2E/DX2                !
 ! A35   A(21,10,68)           112.1558         estimate D2E/DX2                !
 ! A36   A(30,10,68)           112.1558         estimate D2E/DX2                !
 ! A37   A(9,11,12)            119.5792         estimate D2E/DX2                !
 ! A38   A(9,11,59)            108.1284         estimate D2E/DX2                !
 ! A39   A(12,11,59)           118.9932         estimate D2E/DX2                !
 ! A40   A(11,12,13)           120.8822         estimate D2E/DX2                !
 ! A41   A(11,12,15)           120.7697         estimate D2E/DX2                !
 ! A42   A(13,12,15)           107.7022         estimate D2E/DX2                !
 ! A43   A(5,13,12)            118.8494         estimate D2E/DX2                !
 ! A44   A(5,13,25)            122.6476         estimate D2E/DX2                !
 ! A45   A(12,13,25)           109.0547         estimate D2E/DX2                !
 ! A46   A(16,14,45)           121.8883         estimate D2E/DX2                !
 ! A47   A(16,14,55)           119.3972         estimate D2E/DX2                !
 ! A48   A(45,14,55)           109.0662         estimate D2E/DX2                !
 ! A49   A(12,15,24)           109.4485         estimate D2E/DX2                !
 ! A50   A(12,15,57)           119.3726         estimate D2E/DX2                !
 ! A51   A(24,15,57)           122.1816         estimate D2E/DX2                !
 ! A52   A(14,16,17)           118.5656         estimate D2E/DX2                !
 ! A53   A(14,16,58)           119.1919         estimate D2E/DX2                !
 ! A54   A(17,16,58)           108.4633         estimate D2E/DX2                !
 ! A55   A(16,17,48)           119.8873         estimate D2E/DX2                !
 ! A56   A(16,17,56)           107.6914         estimate D2E/DX2                !
 ! A57   A(48,17,56)           118.9252         estimate D2E/DX2                !
 ! A58   A(19,18,40)           128.0987         estimate D2E/DX2                !
 ! A59   A(19,18,47)           107.143          estimate D2E/DX2                !
 ! A60   A(40,18,47)           118.5883         estimate D2E/DX2                !
 ! A61   A(18,19,20)           128.8682         estimate D2E/DX2                !
 ! A62   A(18,19,51)           106.6149         estimate D2E/DX2                !
 ! A63   A(20,19,51)           118.2651         estimate D2E/DX2                !
 ! A64   A(19,20,45)           128.8682         estimate D2E/DX2                !
 ! A65   A(19,20,54)           118.265          estimate D2E/DX2                !
 ! A66   A(45,20,54)           106.6149         estimate D2E/DX2                !
 ! A67   A(10,21,22)           109.5324         estimate D2E/DX2                !
 ! A68   A(10,21,50)           123.3289         estimate D2E/DX2                !
 ! A69   A(22,21,50)           118.7483         estimate D2E/DX2                !
 ! A70   A(21,22,23)           109.9757         estimate D2E/DX2                !
 ! A71   A(21,22,56)           119.6257         estimate D2E/DX2                !
 ! A72   A(23,22,56)           122.1382         estimate D2E/DX2                !
 ! A73   A(7,23,22)            108.9156         estimate D2E/DX2                !
 ! A74   A(7,23,24)            129.8647         estimate D2E/DX2                !
 ! A75   A(22,23,24)           118.5188         estimate D2E/DX2                !
 ! A76   A(15,24,23)           118.7635         estimate D2E/DX2                !
 ! A77   A(15,24,25)           106.6185         estimate D2E/DX2                !
 ! A78   A(23,24,25)           129.3585         estimate D2E/DX2                !
 ! A79   A(13,25,24)           107.0215         estimate D2E/DX2                !
 ! A80   A(13,25,26)           118.4481         estimate D2E/DX2                !
 ! A81   A(24,25,26)           127.4331         estimate D2E/DX2                !
 ! A82   A(4,26,25)            118.4481         estimate D2E/DX2                !
 ! A83   A(4,26,27)            107.0215         estimate D2E/DX2                !
 ! A84   A(25,26,27)           127.4331         estimate D2E/DX2                !
 ! A85   A(26,27,28)           129.3585         estimate D2E/DX2                !
 ! A86   A(26,27,38)           106.6185         estimate D2E/DX2                !
 ! A87   A(28,27,38)           118.7635         estimate D2E/DX2                !
 ! A88   A(7,28,27)            129.8647         estimate D2E/DX2                !
 ! A89   A(7,28,29)            108.9156         estimate D2E/DX2                !
 ! A90   A(27,28,29)           118.5188         estimate D2E/DX2                !
 ! A91   A(28,29,30)           109.9757         estimate D2E/DX2                !
 ! A92   A(28,29,35)           122.1382         estimate D2E/DX2                !
 ! A93   A(30,29,35)           119.6257         estimate D2E/DX2                !
 ! A94   A(10,30,29)           109.5324         estimate D2E/DX2                !
 ! A95   A(10,30,31)           123.3289         estimate D2E/DX2                !
 ! A96   A(29,30,31)           118.7483         estimate D2E/DX2                !
 ! A97   A(30,31,32)           120.7002         estimate D2E/DX2                !
 ! A98   A(30,31,33)           119.1827         estimate D2E/DX2                !
 ! A99   A(32,31,33)           106.3784         estimate D2E/DX2                !
 ! A100  A(31,32,34)           119.0244         estimate D2E/DX2                !
 ! A101  A(31,32,40)           108.7862         estimate D2E/DX2                !
 ! A102  A(34,32,40)           121.0874         estimate D2E/DX2                !
 ! A103  A(31,33,37)           109.2772         estimate D2E/DX2                !
 ! A104  A(31,33,50)           120.3797         estimate D2E/DX2                !
 ! A105  A(37,33,50)           109.2772         estimate D2E/DX2                !
 ! A106  A(32,34,35)           118.9252         estimate D2E/DX2                !
 ! A107  A(32,34,44)           119.8874         estimate D2E/DX2                !
 ! A108  A(35,34,44)           107.6914         estimate D2E/DX2                !
 ! A109  A(29,35,34)           119.8205         estimate D2E/DX2                !
 ! A110  A(29,35,36)           119.2109         estimate D2E/DX2                !
 ! A111  A(34,35,36)           108.2137         estimate D2E/DX2                !
 ! A112  A(35,36,38)           118.2797         estimate D2E/DX2                !
 ! A113  A(35,36,43)           108.5427         estimate D2E/DX2                !
 ! A114  A(38,36,43)           119.6967         estimate D2E/DX2                !
 ! A115  A(33,37,40)           109.0373         estimate D2E/DX2                !
 ! A116  A(33,37,46)           109.0373         estimate D2E/DX2                !
 ! A117  A(40,37,46)           129.5857         estimate D2E/DX2                !
 ! A118  A(27,38,36)           122.1816         estimate D2E/DX2                !
 ! A119  A(27,38,39)           109.4485         estimate D2E/DX2                !
 ! A120  A(36,38,39)           119.3726         estimate D2E/DX2                !
 ! A121  A(4,39,38)            107.7022         estimate D2E/DX2                !
 ! A122  A(4,39,41)            120.8822         estimate D2E/DX2                !
 ! A123  A(38,39,41)           120.7696         estimate D2E/DX2                !
 ! A124  A(18,40,32)           118.9202         estimate D2E/DX2                !
 ! A125  A(18,40,37)           127.6905         estimate D2E/DX2                !
 ! A126  A(32,40,37)           105.7178         estimate D2E/DX2                !
 ! A127  A(1,41,39)            119.5792         estimate D2E/DX2                !
 ! A128  A(1,41,42)            108.1283         estimate D2E/DX2                !
 ! A129  A(39,41,42)           118.9932         estimate D2E/DX2                !
 ! A130  A(41,42,43)           120.1012         estimate D2E/DX2                !
 ! A131  A(41,42,66)           107.6755         estimate D2E/DX2                !
 ! A132  A(43,42,66)           120.0093         estimate D2E/DX2                !
 ! A133  A(36,43,42)           119.9833         estimate D2E/DX2                !
 ! A134  A(36,43,44)           106.5639         estimate D2E/DX2                !
 ! A135  A(42,43,44)           120.4067         estimate D2E/DX2                !
 ! A136  A(34,44,43)           108.4633         estimate D2E/DX2                !
 ! A137  A(34,44,47)           118.5656         estimate D2E/DX2                !
 ! A138  A(43,44,47)           119.1919         estimate D2E/DX2                !
 ! A139  A(14,45,20)           107.143          estimate D2E/DX2                !
 ! A140  A(14,45,46)           118.5883         estimate D2E/DX2                !
 ! A141  A(20,45,46)           128.0988         estimate D2E/DX2                !
 ! A142  A(37,46,45)           127.6905         estimate D2E/DX2                !
 ! A143  A(37,46,48)           105.7177         estimate D2E/DX2                !
 ! A144  A(45,46,48)           118.9202         estimate D2E/DX2                !
 ! A145  A(18,47,44)           121.8883         estimate D2E/DX2                !
 ! A146  A(18,47,49)           109.0662         estimate D2E/DX2                !
 ! A147  A(44,47,49)           119.3972         estimate D2E/DX2                !
 ! A148  A(17,48,46)           121.0874         estimate D2E/DX2                !
 ! A149  A(17,48,50)           119.0244         estimate D2E/DX2                !
 ! A150  A(46,48,50)           108.7862         estimate D2E/DX2                !
 ! A151  A(47,49,51)           107.7507         estimate D2E/DX2                !
 ! A152  A(47,49,66)           121.0312         estimate D2E/DX2                !
 ! A153  A(51,49,66)           120.4656         estimate D2E/DX2                !
 ! A154  A(21,50,33)           119.1827         estimate D2E/DX2                !
 ! A155  A(21,50,48)           120.7002         estimate D2E/DX2                !
 ! A156  A(33,50,48)           106.3784         estimate D2E/DX2                !
 ! A157  A(19,51,49)           109.1845         estimate D2E/DX2                !
 ! A158  A(19,51,52)           122.7586         estimate D2E/DX2                !
 ! A159  A(49,51,52)           118.9498         estimate D2E/DX2                !
 ! A160  A(51,52,53)           118.902          estimate D2E/DX2                !
 ! A161  A(51,52,64)           120.7262         estimate D2E/DX2                !
 ! A162  A(53,52,64)           108.3211         estimate D2E/DX2                !
 ! A163  A(52,53,54)           118.902          estimate D2E/DX2                !
 ! A164  A(52,53,62)           108.321          estimate D2E/DX2                !
 ! A165  A(54,53,62)           120.7262         estimate D2E/DX2                !
 ! A166  A(20,54,53)           122.7586         estimate D2E/DX2                !
 ! A167  A(20,54,55)           109.1845         estimate D2E/DX2                !
 ! A168  A(53,54,55)           118.9498         estimate D2E/DX2                !
 ! A169  A(14,55,54)           107.7507         estimate D2E/DX2                !
 ! A170  A(14,55,60)           121.0313         estimate D2E/DX2                !
 ! A171  A(54,55,60)           120.4656         estimate D2E/DX2                !
 ! A172  A(17,56,22)           119.8205         estimate D2E/DX2                !
 ! A173  A(17,56,57)           108.2137         estimate D2E/DX2                !
 ! A174  A(22,56,57)           119.2109         estimate D2E/DX2                !
 ! A175  A(15,57,56)           118.2798         estimate D2E/DX2                !
 ! A176  A(15,57,58)           119.6967         estimate D2E/DX2                !
 ! A177  A(56,57,58)           108.5427         estimate D2E/DX2                !
 ! A178  A(16,58,57)           106.5639         estimate D2E/DX2                !
 ! A179  A(16,58,59)           120.4067         estimate D2E/DX2                !
 ! A180  A(57,58,59)           119.9833         estimate D2E/DX2                !
 ! A181  A(11,59,58)           120.1012         estimate D2E/DX2                !
 ! A182  A(11,59,60)           107.6755         estimate D2E/DX2                !
 ! A183  A(58,59,60)           120.0093         estimate D2E/DX2                !
 ! A184  A(55,60,59)           118.9062         estimate D2E/DX2                !
 ! A185  A(55,60,61)           119.797          estimate D2E/DX2                !
 ! A186  A(59,60,61)           108.0587         estimate D2E/DX2                !
 ! A187  A(9,61,60)            108.0374         estimate D2E/DX2                !
 ! A188  A(9,61,62)            119.7452         estimate D2E/DX2                !
 ! A189  A(60,61,62)           119.8844         estimate D2E/DX2                !
 ! A190  A(53,62,61)           119.5342         estimate D2E/DX2                !
 ! A191  A(53,62,63)           107.6341         estimate D2E/DX2                !
 ! A192  A(61,62,63)           120.494          estimate D2E/DX2                !
 ! A193  A(8,63,62)            119.6374         estimate D2E/DX2                !
 ! A194  A(8,63,64)            119.6374         estimate D2E/DX2                !
 ! A195  A(62,63,64)           107.9566         estimate D2E/DX2                !
 ! A196  A(52,64,63)           107.6341         estimate D2E/DX2                !
 ! A197  A(52,64,65)           119.5342         estimate D2E/DX2                !
 ! A198  A(63,64,65)           120.494          estimate D2E/DX2                !
 ! A199  A(1,65,64)            119.7452         estimate D2E/DX2                !
 ! A200  A(1,65,66)            108.0374         estimate D2E/DX2                !
 ! A201  A(64,65,66)           119.8844         estimate D2E/DX2                !
 ! A202  A(42,66,49)           118.9063         estimate D2E/DX2                !
 ! A203  A(42,66,65)           108.0587         estimate D2E/DX2                !
 ! A204  A(49,66,65)           119.797          estimate D2E/DX2                !
 ! D1    D(41,1,2,3)            -3.6711         estimate D2E/DX2                !
 ! D2    D(41,1,2,8)          -141.2325         estimate D2E/DX2                !
 ! D3    D(65,1,2,3)           133.6115         estimate D2E/DX2                !
 ! D4    D(65,1,2,8)            -3.9499         estimate D2E/DX2                !
 ! D5    D(2,1,41,39)            4.9772         estimate D2E/DX2                !
 ! D6    D(2,1,41,42)          145.5365         estimate D2E/DX2                !
 ! D7    D(65,1,41,39)        -136.8336         estimate D2E/DX2                !
 ! D8    D(65,1,41,42)           3.7257         estimate D2E/DX2                !
 ! D9    D(2,1,65,64)            0.0322         estimate D2E/DX2                !
 ! D10   D(2,1,65,66)         -142.1167         estimate D2E/DX2                !
 ! D11   D(41,1,65,64)         141.8974         estimate D2E/DX2                !
 ! D12   D(41,1,65,66)          -0.2515         estimate D2E/DX2                !
 ! D13   D(1,2,3,4)             -2.78           estimate D2E/DX2                !
 ! D14   D(1,2,3,5)           -144.5642         estimate D2E/DX2                !
 ! D15   D(8,2,3,4)            139.5993         estimate D2E/DX2                !
 ! D16   D(8,2,3,5)             -2.185          estimate D2E/DX2                !
 ! D17   D(1,2,8,6)            145.5856         estimate D2E/DX2                !
 ! D18   D(1,2,8,63)             3.8585         estimate D2E/DX2                !
 ! D19   D(3,2,8,6)              3.5311         estimate D2E/DX2                !
 ! D20   D(3,2,8,63)          -138.1961         estimate D2E/DX2                !
 ! D21   D(2,3,4,26)          -134.952          estimate D2E/DX2                !
 ! D22   D(2,3,4,39)             7.7614         estimate D2E/DX2                !
 ! D23   D(5,3,4,26)             2.9542         estimate D2E/DX2                !
 ! D24   D(5,3,4,39)           145.6676         estimate D2E/DX2                !
 ! D25   D(2,3,5,6)              0.0            estimate D2E/DX2                !
 ! D26   D(2,3,5,13)           142.5391         estimate D2E/DX2                !
 ! D27   D(4,3,5,6)           -142.5391         estimate D2E/DX2                !
 ! D28   D(4,3,5,13)             0.0            estimate D2E/DX2                !
 ! D29   D(3,4,26,25)           -2.9431         estimate D2E/DX2                !
 ! D30   D(3,4,26,27)          149.7851         estimate D2E/DX2                !
 ! D31   D(39,4,26,25)        -148.7921         estimate D2E/DX2                !
 ! D32   D(39,4,26,27)           3.936          estimate D2E/DX2                !
 ! D33   D(3,4,39,38)         -151.1977         estimate D2E/DX2                !
 ! D34   D(3,4,39,41)           -6.4498         estimate D2E/DX2                !
 ! D35   D(26,4,39,38)          -3.858          estimate D2E/DX2                !
 ! D36   D(26,4,39,41)         140.8899         estimate D2E/DX2                !
 ! D37   D(3,5,6,8)              2.1849         estimate D2E/DX2                !
 ! D38   D(3,5,6,9)            144.5642         estimate D2E/DX2                !
 ! D39   D(13,5,6,8)          -139.5993         estimate D2E/DX2                !
 ! D40   D(13,5,6,9)             2.78           estimate D2E/DX2                !
 ! D41   D(3,5,13,12)         -145.6676         estimate D2E/DX2                !
 ! D42   D(3,5,13,25)           -2.9542         estimate D2E/DX2                !
 ! D43   D(6,5,13,12)           -7.7614         estimate D2E/DX2                !
 ! D44   D(6,5,13,25)          134.952          estimate D2E/DX2                !
 ! D45   D(5,6,8,2)             -3.531          estimate D2E/DX2                !
 ! D46   D(5,6,8,63)           138.1961         estimate D2E/DX2                !
 ! D47   D(9,6,8,2)           -145.5856         estimate D2E/DX2                !
 ! D48   D(9,6,8,63)            -3.8585         estimate D2E/DX2                !
 ! D49   D(5,6,9,11)             3.6711         estimate D2E/DX2                !
 ! D50   D(5,6,9,61)          -133.6116         estimate D2E/DX2                !
 ! D51   D(8,6,9,11)           141.2325         estimate D2E/DX2                !
 ! D52   D(8,6,9,61)             3.9499         estimate D2E/DX2                !
 ! D53   D(23,7,10,21)           2.6991         estimate D2E/DX2                !
 ! D54   D(23,7,10,30)         118.1182         estimate D2E/DX2                !
 ! D55   D(23,7,10,68)        -119.5914         estimate D2E/DX2                !
 ! D56   D(28,7,10,21)        -118.1182         estimate D2E/DX2                !
 ! D57   D(28,7,10,30)          -2.6991         estimate D2E/DX2                !
 ! D58   D(28,7,10,68)         119.5914         estimate D2E/DX2                !
 ! D59   D(67,7,10,21)         122.2904         estimate D2E/DX2                !
 ! D60   D(67,7,10,30)        -122.2904         estimate D2E/DX2                !
 ! D61   D(67,7,10,68)           0.0            estimate D2E/DX2                !
 ! D62   D(10,7,23,22)           6.5308         estimate D2E/DX2                !
 ! D63   D(10,7,23,24)        -154.153          estimate D2E/DX2                !
 ! D64   D(28,7,23,22)         120.2436         estimate D2E/DX2                !
 ! D65   D(28,7,23,24)         -40.4402         estimate D2E/DX2                !
 ! D66   D(67,7,23,22)        -114.5069         estimate D2E/DX2                !
 ! D67   D(67,7,23,24)          84.8094         estimate D2E/DX2                !
 ! D68   D(10,7,28,27)         154.153          estimate D2E/DX2                !
 ! D69   D(10,7,28,29)          -6.5308         estimate D2E/DX2                !
 ! D70   D(23,7,28,27)          40.4402         estimate D2E/DX2                !
 ! D71   D(23,7,28,29)        -120.2435         estimate D2E/DX2                !
 ! D72   D(67,7,28,27)         -84.8094         estimate D2E/DX2                !
 ! D73   D(67,7,28,29)         114.5069         estimate D2E/DX2                !
 ! D74   D(2,8,63,62)          137.1752         estimate D2E/DX2                !
 ! D75   D(2,8,63,64)            0.1387         estimate D2E/DX2                !
 ! D76   D(6,8,63,62)           -0.1387         estimate D2E/DX2                !
 ! D77   D(6,8,63,64)         -137.1752         estimate D2E/DX2                !
 ! D78   D(6,9,11,12)           -4.9772         estimate D2E/DX2                !
 ! D79   D(6,9,11,59)         -145.5364         estimate D2E/DX2                !
 ! D80   D(61,9,11,12)         136.8336         estimate D2E/DX2                !
 ! D81   D(61,9,11,59)          -3.7257         estimate D2E/DX2                !
 ! D82   D(6,9,61,60)          142.1167         estimate D2E/DX2                !
 ! D83   D(6,9,61,62)           -0.0322         estimate D2E/DX2                !
 ! D84   D(11,9,61,60)           0.2515         estimate D2E/DX2                !
 ! D85   D(11,9,61,62)        -141.8974         estimate D2E/DX2                !
 ! D86   D(7,10,21,22)         -11.2527         estimate D2E/DX2                !
 ! D87   D(7,10,21,50)         136.3202         estimate D2E/DX2                !
 ! D88   D(30,10,21,22)       -123.3118         estimate D2E/DX2                !
 ! D89   D(30,10,21,50)         24.2611         estimate D2E/DX2                !
 ! D90   D(68,10,21,22)        111.4293         estimate D2E/DX2                !
 ! D91   D(68,10,21,50)       -100.9978         estimate D2E/DX2                !
 ! D92   D(7,10,30,29)          11.2527         estimate D2E/DX2                !
 ! D93   D(7,10,30,31)        -136.3202         estimate D2E/DX2                !
 ! D94   D(21,10,30,29)        123.3118         estimate D2E/DX2                !
 ! D95   D(21,10,30,31)        -24.261          estimate D2E/DX2                !
 ! D96   D(68,10,30,29)       -111.4293         estimate D2E/DX2                !
 ! D97   D(68,10,30,31)        100.9978         estimate D2E/DX2                !
 ! D98   D(9,11,12,13)          -0.1057         estimate D2E/DX2                !
 ! D99   D(9,11,12,15)        -140.3193         estimate D2E/DX2                !
 ! D100  D(59,11,12,13)        136.2445         estimate D2E/DX2                !
 ! D101  D(59,11,12,15)         -3.9692         estimate D2E/DX2                !
 ! D102  D(9,11,59,58)         148.101          estimate D2E/DX2                !
 ! D103  D(9,11,59,60)           5.7768         estimate D2E/DX2                !
 ! D104  D(12,11,59,58)          7.2727         estimate D2E/DX2                !
 ! D105  D(12,11,59,60)       -135.0516         estimate D2E/DX2                !
 ! D106  D(11,12,13,5)           6.4498         estimate D2E/DX2                !
 ! D107  D(11,12,13,25)       -140.8899         estimate D2E/DX2                !
 ! D108  D(15,12,13,5)         151.1977         estimate D2E/DX2                !
 ! D109  D(15,12,13,25)          3.858          estimate D2E/DX2                !
 ! D110  D(11,12,15,24)        142.5288         estimate D2E/DX2                !
 ! D111  D(11,12,15,57)         -5.347          estimate D2E/DX2                !
 ! D112  D(13,12,15,24)         -2.2666         estimate D2E/DX2                !
 ! D113  D(13,12,15,57)       -150.1424         estimate D2E/DX2                !
 ! D114  D(5,13,25,24)        -149.7851         estimate D2E/DX2                !
 ! D115  D(5,13,25,26)           2.9431         estimate D2E/DX2                !
 ! D116  D(12,13,25,24)         -3.9361         estimate D2E/DX2                !
 ! D117  D(12,13,25,26)        148.7922         estimate D2E/DX2                !
 ! D118  D(45,14,16,17)         -4.3431         estimate D2E/DX2                !
 ! D119  D(45,14,16,58)        131.4831         estimate D2E/DX2                !
 ! D120  D(55,14,16,17)       -146.7264         estimate D2E/DX2                !
 ! D121  D(55,14,16,58)        -10.9003         estimate D2E/DX2                !
 ! D122  D(16,14,45,20)       -144.6382         estimate D2E/DX2                !
 ! D123  D(16,14,45,46)          9.9782         estimate D2E/DX2                !
 ! D124  D(55,14,45,20)          1.1226         estimate D2E/DX2                !
 ! D125  D(55,14,45,46)        155.7391         estimate D2E/DX2                !
 ! D126  D(16,14,55,54)        148.7532         estimate D2E/DX2                !
 ! D127  D(16,14,55,60)          4.2782         estimate D2E/DX2                !
 ! D128  D(45,14,55,54)          2.0063         estimate D2E/DX2                !
 ! D129  D(45,14,55,60)       -142.4687         estimate D2E/DX2                !
 ! D130  D(12,15,24,23)       -156.9091         estimate D2E/DX2                !
 ! D131  D(12,15,24,25)         -0.1575         estimate D2E/DX2                !
 ! D132  D(57,15,24,23)        -10.1059         estimate D2E/DX2                !
 ! D133  D(57,15,24,25)        146.6457         estimate D2E/DX2                !
 ! D134  D(12,15,57,56)        147.596          estimate D2E/DX2                !
 ! D135  D(12,15,57,58)         11.3318         estimate D2E/DX2                !
 ! D136  D(24,15,57,56)          3.9258         estimate D2E/DX2                !
 ! D137  D(24,15,57,58)       -132.3383         estimate D2E/DX2                !
 ! D138  D(14,16,17,48)         -5.3455         estimate D2E/DX2                !
 ! D139  D(14,16,17,56)        134.9075         estimate D2E/DX2                !
 ! D140  D(58,16,17,48)       -145.4533         estimate D2E/DX2                !
 ! D141  D(58,16,17,56)         -5.2003         estimate D2E/DX2                !
 ! D142  D(14,16,58,57)       -132.4693         estimate D2E/DX2                !
 ! D143  D(14,16,58,59)          8.7073         estimate D2E/DX2                !
 ! D144  D(17,16,58,57)          7.3483         estimate D2E/DX2                !
 ! D145  D(17,16,58,59)        148.5249         estimate D2E/DX2                !
 ! D146  D(16,17,48,46)          9.4205         estimate D2E/DX2                !
 ! D147  D(16,17,48,50)        149.2924         estimate D2E/DX2                !
 ! D148  D(56,17,48,46)       -126.474          estimate D2E/DX2                !
 ! D149  D(56,17,48,50)         13.3979         estimate D2E/DX2                !
 ! D150  D(16,17,56,22)       -140.3624         estimate D2E/DX2                !
 ! D151  D(16,17,56,57)          0.9699         estimate D2E/DX2                !
 ! D152  D(48,17,56,22)          0.338          estimate D2E/DX2                !
 ! D153  D(48,17,56,57)        141.6703         estimate D2E/DX2                !
 ! D154  D(40,18,19,20)          4.1088         estimate D2E/DX2                !
 ! D155  D(40,18,19,51)        155.1797         estimate D2E/DX2                !
 ! D156  D(47,18,19,20)       -147.3156         estimate D2E/DX2                !
 ! D157  D(47,18,19,51)          3.7553         estimate D2E/DX2                !
 ! D158  D(19,18,40,32)       -142.8068         estimate D2E/DX2                !
 ! D159  D(19,18,40,37)          2.0757         estimate D2E/DX2                !
 ! D160  D(47,18,40,32)          5.8253         estimate D2E/DX2                !
 ! D161  D(47,18,40,37)        150.7079         estimate D2E/DX2                !
 ! D162  D(19,18,47,44)        144.6382         estimate D2E/DX2                !
 ! D163  D(19,18,47,49)         -1.1227         estimate D2E/DX2                !
 ! D164  D(40,18,47,44)         -9.9782         estimate D2E/DX2                !
 ! D165  D(40,18,47,49)       -155.7391         estimate D2E/DX2                !
 ! D166  D(18,19,20,45)          0.0            estimate D2E/DX2                !
 ! D167  D(18,19,20,54)        148.2455         estimate D2E/DX2                !
 ! D168  D(51,19,20,45)       -148.2455         estimate D2E/DX2                !
 ! D169  D(51,19,20,54)          0.0            estimate D2E/DX2                !
 ! D170  D(18,19,51,49)         -5.0718         estimate D2E/DX2                !
 ! D171  D(18,19,51,52)       -151.5112         estimate D2E/DX2                !
 ! D172  D(20,19,51,49)        149.6122         estimate D2E/DX2                !
 ! D173  D(20,19,51,52)          3.1727         estimate D2E/DX2                !
 ! D174  D(19,20,45,14)        147.3155         estimate D2E/DX2                !
 ! D175  D(19,20,45,46)         -4.1089         estimate D2E/DX2                !
 ! D176  D(54,20,45,14)         -3.7553         estimate D2E/DX2                !
 ! D177  D(54,20,45,46)       -155.1797         estimate D2E/DX2                !
 ! D178  D(19,20,54,53)         -3.1727         estimate D2E/DX2                !
 ! D179  D(19,20,54,55)       -149.6121         estimate D2E/DX2                !
 ! D180  D(45,20,54,53)        151.5112         estimate D2E/DX2                !
 ! D181  D(45,20,54,55)          5.0718         estimate D2E/DX2                !
 ! D182  D(10,21,22,23)         16.0629         estimate D2E/DX2                !
 ! D183  D(10,21,22,56)        165.1383         estimate D2E/DX2                !
 ! D184  D(50,21,22,23)       -133.2052         estimate D2E/DX2                !
 ! D185  D(50,21,22,56)         15.8702         estimate D2E/DX2                !
 ! D186  D(10,21,50,33)        -11.7335         estimate D2E/DX2                !
 ! D187  D(10,21,50,48)       -146.7429         estimate D2E/DX2                !
 ! D188  D(22,21,50,33)        133.0676         estimate D2E/DX2                !
 ! D189  D(22,21,50,48)         -1.9418         estimate D2E/DX2                !
 ! D190  D(21,22,23,7)         -14.1143         estimate D2E/DX2                !
 ! D191  D(21,22,23,24)        149.0901         estimate D2E/DX2                !
 ! D192  D(56,22,23,7)        -162.273          estimate D2E/DX2                !
 ! D193  D(56,22,23,24)          0.9314         estimate D2E/DX2                !
 ! D194  D(21,22,56,17)        -15.1944         estimate D2E/DX2                !
 ! D195  D(21,22,56,57)       -152.3531         estimate D2E/DX2                !
 ! D196  D(23,22,56,17)        130.0278         estimate D2E/DX2                !
 ! D197  D(23,22,56,57)         -7.1308         estimate D2E/DX2                !
 ! D198  D(7,23,24,15)         166.5522         estimate D2E/DX2                !
 ! D199  D(7,23,24,25)          15.8389         estimate D2E/DX2                !
 ! D200  D(22,23,24,15)          7.415          estimate D2E/DX2                !
 ! D201  D(22,23,24,25)       -143.2982         estimate D2E/DX2                !
 ! D202  D(15,24,25,13)          2.4833         estimate D2E/DX2                !
 ! D203  D(15,24,25,26)       -147.0281         estimate D2E/DX2                !
 ! D204  D(23,24,25,13)        155.8989         estimate D2E/DX2                !
 ! D205  D(23,24,25,26)          6.3876         estimate D2E/DX2                !
 ! D206  D(13,25,26,4)           0.0            estimate D2E/DX2                !
 ! D207  D(13,25,26,27)       -146.5115         estimate D2E/DX2                !
 ! D208  D(24,25,26,4)         146.5115         estimate D2E/DX2                !
 ! D209  D(24,25,26,27)          0.0            estimate D2E/DX2                !
 ! D210  D(4,26,27,28)        -155.8989         estimate D2E/DX2                !
 ! D211  D(4,26,27,38)          -2.4833         estimate D2E/DX2                !
 ! D212  D(25,26,27,28)         -6.3876         estimate D2E/DX2                !
 ! D213  D(25,26,27,38)        147.028          estimate D2E/DX2                !
 ! D214  D(26,27,28,7)         -15.8389         estimate D2E/DX2                !
 ! D215  D(26,27,28,29)        143.2982         estimate D2E/DX2                !
 ! D216  D(38,27,28,7)        -166.5522         estimate D2E/DX2                !
 ! D217  D(38,27,28,29)         -7.415          estimate D2E/DX2                !
 ! D218  D(26,27,38,36)       -146.6457         estimate D2E/DX2                !
 ! D219  D(26,27,38,39)          0.1575         estimate D2E/DX2                !
 ! D220  D(28,27,38,36)         10.1058         estimate D2E/DX2                !
 ! D221  D(28,27,38,39)        156.9091         estimate D2E/DX2                !
 ! D222  D(7,28,29,30)          14.1143         estimate D2E/DX2                !
 ! D223  D(7,28,29,35)         162.273          estimate D2E/DX2                !
 ! D224  D(27,28,29,30)       -149.0901         estimate D2E/DX2                !
 ! D225  D(27,28,29,35)         -0.9315         estimate D2E/DX2                !
 ! D226  D(28,29,30,10)        -16.0629         estimate D2E/DX2                !
 ! D227  D(28,29,30,31)        133.2052         estimate D2E/DX2                !
 ! D228  D(35,29,30,10)       -165.1383         estimate D2E/DX2                !
 ! D229  D(35,29,30,31)        -15.8702         estimate D2E/DX2                !
 ! D230  D(28,29,35,34)       -130.0278         estimate D2E/DX2                !
 ! D231  D(28,29,35,36)          7.1309         estimate D2E/DX2                !
 ! D232  D(30,29,35,34)         15.1944         estimate D2E/DX2                !
 ! D233  D(30,29,35,36)        152.3531         estimate D2E/DX2                !
 ! D234  D(10,30,31,32)        146.7429         estimate D2E/DX2                !
 ! D235  D(10,30,31,33)         11.7335         estimate D2E/DX2                !
 ! D236  D(29,30,31,32)          1.9418         estimate D2E/DX2                !
 ! D237  D(29,30,31,33)       -133.0676         estimate D2E/DX2                !
 ! D238  D(30,31,32,34)         12.7897         estimate D2E/DX2                !
 ! D239  D(30,31,32,40)       -131.5489         estimate D2E/DX2                !
 ! D240  D(33,31,32,34)        152.747          estimate D2E/DX2                !
 ! D241  D(33,31,32,40)          8.4083         estimate D2E/DX2                !
 ! D242  D(30,31,33,37)        131.5814         estimate D2E/DX2                !
 ! D243  D(30,31,33,50)          3.9598         estimate D2E/DX2                !
 ! D244  D(32,31,33,37)         -9.1011         estimate D2E/DX2                !
 ! D245  D(32,31,33,50)       -136.7226         estimate D2E/DX2                !
 ! D246  D(31,32,34,35)        -13.3979         estimate D2E/DX2                !
 ! D247  D(31,32,34,44)       -149.2924         estimate D2E/DX2                !
 ! D248  D(40,32,34,35)        126.474          estimate D2E/DX2                !
 ! D249  D(40,32,34,44)         -9.4205         estimate D2E/DX2                !
 ! D250  D(31,32,40,18)        147.1262         estimate D2E/DX2                !
 ! D251  D(31,32,40,37)         -4.6513         estimate D2E/DX2                !
 ! D252  D(34,32,40,18)          3.6581         estimate D2E/DX2                !
 ! D253  D(34,32,40,37)       -148.1194         estimate D2E/DX2                !
 ! D254  D(31,33,37,40)          6.3493         estimate D2E/DX2                !
 ! D255  D(31,33,37,46)       -139.9727         estimate D2E/DX2                !
 ! D256  D(50,33,37,40)        139.9727         estimate D2E/DX2                !
 ! D257  D(50,33,37,46)         -6.3494         estimate D2E/DX2                !
 ! D258  D(31,33,50,21)         -3.9598         estimate D2E/DX2                !
 ! D259  D(31,33,50,48)        136.7226         estimate D2E/DX2                !
 ! D260  D(37,33,50,21)       -131.5814         estimate D2E/DX2                !
 ! D261  D(37,33,50,48)          9.1011         estimate D2E/DX2                !
 ! D262  D(32,34,35,29)         -0.338          estimate D2E/DX2                !
 ! D263  D(32,34,35,36)       -141.6703         estimate D2E/DX2                !
 ! D264  D(44,34,35,29)        140.3624         estimate D2E/DX2                !
 ! D265  D(44,34,35,36)         -0.9699         estimate D2E/DX2                !
 ! D266  D(32,34,44,43)        145.4533         estimate D2E/DX2                !
 ! D267  D(32,34,44,47)          5.3456         estimate D2E/DX2                !
 ! D268  D(35,34,44,43)          5.2003         estimate D2E/DX2                !
 ! D269  D(35,34,44,47)       -134.9075         estimate D2E/DX2                !
 ! D270  D(29,35,36,38)         -4.5492         estimate D2E/DX2                !
 ! D271  D(29,35,36,43)       -145.2465         estimate D2E/DX2                !
 ! D272  D(34,35,36,38)        137.058          estimate D2E/DX2                !
 ! D273  D(34,35,36,43)         -3.6393         estimate D2E/DX2                !
 ! D274  D(35,36,38,27)         -3.9258         estimate D2E/DX2                !
 ! D275  D(35,36,38,39)       -147.596          estimate D2E/DX2                !
 ! D276  D(43,36,38,27)        132.3383         estimate D2E/DX2                !
 ! D277  D(43,36,38,39)        -11.3318         estimate D2E/DX2                !
 ! D278  D(35,36,43,42)        148.12           estimate D2E/DX2                !
 ! D279  D(35,36,43,44)          6.7459         estimate D2E/DX2                !
 ! D280  D(38,36,43,42)          8.0728         estimate D2E/DX2                !
 ! D281  D(38,36,43,44)       -133.3013         estimate D2E/DX2                !
 ! D282  D(33,37,40,18)       -149.4787         estimate D2E/DX2                !
 ! D283  D(33,37,40,32)         -1.0175         estimate D2E/DX2                !
 ! D284  D(46,37,40,18)        -12.3364         estimate D2E/DX2                !
 ! D285  D(46,37,40,32)        136.1248         estimate D2E/DX2                !
 ! D286  D(33,37,46,45)        149.4786         estimate D2E/DX2                !
 ! D287  D(33,37,46,48)          1.0175         estimate D2E/DX2                !
 ! D288  D(40,37,46,45)         12.3363         estimate D2E/DX2                !
 ! D289  D(40,37,46,48)       -136.1248         estimate D2E/DX2                !
 ! D290  D(27,38,39,4)           2.2665         estimate D2E/DX2                !
 ! D291  D(27,38,39,41)       -142.5288         estimate D2E/DX2                !
 ! D292  D(36,38,39,4)         150.1424         estimate D2E/DX2                !
 ! D293  D(36,38,39,41)          5.3471         estimate D2E/DX2                !
 ! D294  D(4,39,41,1)            0.1057         estimate D2E/DX2                !
 ! D295  D(4,39,41,42)        -136.2445         estimate D2E/DX2                !
 ! D296  D(38,39,41,1)         140.3193         estimate D2E/DX2                !
 ! D297  D(38,39,41,42)          3.9691         estimate D2E/DX2                !
 ! D298  D(1,41,42,43)        -148.1011         estimate D2E/DX2                !
 ! D299  D(1,41,42,66)          -5.7768         estimate D2E/DX2                !
 ! D300  D(39,41,42,43)         -7.2727         estimate D2E/DX2                !
 ! D301  D(39,41,42,66)        135.0516         estimate D2E/DX2                !
 ! D302  D(41,42,43,36)          1.3318         estimate D2E/DX2                !
 ! D303  D(41,42,43,44)        137.4041         estimate D2E/DX2                !
 ! D304  D(66,42,43,36)       -136.4086         estimate D2E/DX2                !
 ! D305  D(66,42,43,44)         -0.3364         estimate D2E/DX2                !
 ! D306  D(41,42,66,49)       -135.3843         estimate D2E/DX2                !
 ! D307  D(41,42,66,65)          5.6115         estimate D2E/DX2                !
 ! D308  D(43,42,66,49)          6.9809         estimate D2E/DX2                !
 ! D309  D(43,42,66,65)        147.9768         estimate D2E/DX2                !
 ! D310  D(36,43,44,34)         -7.3483         estimate D2E/DX2                !
 ! D311  D(36,43,44,47)        132.4693         estimate D2E/DX2                !
 ! D312  D(42,43,44,34)       -148.5248         estimate D2E/DX2                !
 ! D313  D(42,43,44,47)         -8.7073         estimate D2E/DX2                !
 ! D314  D(34,44,47,18)          4.343          estimate D2E/DX2                !
 ! D315  D(34,44,47,49)        146.7264         estimate D2E/DX2                !
 ! D316  D(43,44,47,18)       -131.4831         estimate D2E/DX2                !
 ! D317  D(43,44,47,49)         10.9003         estimate D2E/DX2                !
 ! D318  D(14,45,46,37)       -150.7079         estimate D2E/DX2                !
 ! D319  D(14,45,46,48)         -5.8254         estimate D2E/DX2                !
 ! D320  D(20,45,46,37)         -2.0756         estimate D2E/DX2                !
 ! D321  D(20,45,46,48)        142.8068         estimate D2E/DX2                !
 ! D322  D(37,46,48,17)        148.1194         estimate D2E/DX2                !
 ! D323  D(37,46,48,50)          4.6513         estimate D2E/DX2                !
 ! D324  D(45,46,48,17)         -3.6581         estimate D2E/DX2                !
 ! D325  D(45,46,48,50)       -147.1262         estimate D2E/DX2                !
 ! D326  D(18,47,49,51)         -2.0062         estimate D2E/DX2                !
 ! D327  D(18,47,49,66)        142.4687         estimate D2E/DX2                !
 ! D328  D(44,47,49,51)       -148.7531         estimate D2E/DX2                !
 ! D329  D(44,47,49,66)         -4.2782         estimate D2E/DX2                !
 ! D330  D(17,48,50,21)        -12.7897         estimate D2E/DX2                !
 ! D331  D(17,48,50,33)       -152.7469         estimate D2E/DX2                !
 ! D332  D(46,48,50,21)        131.5489         estimate D2E/DX2                !
 ! D333  D(46,48,50,33)         -8.4083         estimate D2E/DX2                !
 ! D334  D(47,49,51,19)          4.4284         estimate D2E/DX2                !
 ! D335  D(47,49,51,52)        152.3362         estimate D2E/DX2                !
 ! D336  D(66,49,51,19)       -140.2857         estimate D2E/DX2                !
 ! D337  D(66,49,51,52)          7.6221         estimate D2E/DX2                !
 ! D338  D(47,49,66,42)         -4.7341         estimate D2E/DX2                !
 ! D339  D(47,49,66,65)       -141.1407         estimate D2E/DX2                !
 ! D340  D(51,49,66,42)        135.3218         estimate D2E/DX2                !
 ! D341  D(51,49,66,65)         -1.0849         estimate D2E/DX2                !
 ! D342  D(19,51,52,53)         -3.192          estimate D2E/DX2                !
 ! D343  D(19,51,52,64)        135.0394         estimate D2E/DX2                !
 ! D344  D(49,51,52,53)       -146.5599         estimate D2E/DX2                !
 ! D345  D(49,51,52,64)         -8.3284         estimate D2E/DX2                !
 ! D346  D(51,52,53,54)          0.0            estimate D2E/DX2                !
 ! D347  D(51,52,53,62)        142.9014         estimate D2E/DX2                !
 ! D348  D(64,52,53,54)       -142.9015         estimate D2E/DX2                !
 ! D349  D(64,52,53,62)          0.0            estimate D2E/DX2                !
 ! D350  D(51,52,64,63)       -139.8735         estimate D2E/DX2                !
 ! D351  D(51,52,64,65)          2.5072         estimate D2E/DX2                !
 ! D352  D(53,52,64,63)          2.2258         estimate D2E/DX2                !
 ! D353  D(53,52,64,65)        144.6065         estimate D2E/DX2                !
 ! D354  D(52,53,54,20)          3.192          estimate D2E/DX2                !
 ! D355  D(52,53,54,55)        146.5598         estimate D2E/DX2                !
 ! D356  D(62,53,54,20)       -135.0394         estimate D2E/DX2                !
 ! D357  D(62,53,54,55)          8.3284         estimate D2E/DX2                !
 ! D358  D(52,53,62,61)       -144.6065         estimate D2E/DX2                !
 ! D359  D(52,53,62,63)         -2.2257         estimate D2E/DX2                !
 ! D360  D(54,53,62,61)         -2.5072         estimate D2E/DX2                !
 ! D361  D(54,53,62,63)        139.8735         estimate D2E/DX2                !
 ! D362  D(20,54,55,14)         -4.4284         estimate D2E/DX2                !
 ! D363  D(20,54,55,60)        140.2857         estimate D2E/DX2                !
 ! D364  D(53,54,55,14)       -152.3362         estimate D2E/DX2                !
 ! D365  D(53,54,55,60)         -7.622          estimate D2E/DX2                !
 ! D366  D(14,55,60,59)          4.7341         estimate D2E/DX2                !
 ! D367  D(14,55,60,61)        141.1407         estimate D2E/DX2                !
 ! D368  D(54,55,60,59)       -135.3218         estimate D2E/DX2                !
 ! D369  D(54,55,60,61)          1.0848         estimate D2E/DX2                !
 ! D370  D(17,56,57,15)       -137.058          estimate D2E/DX2                !
 ! D371  D(17,56,57,58)          3.6394         estimate D2E/DX2                !
 ! D372  D(22,56,57,15)          4.5492         estimate D2E/DX2                !
 ! D373  D(22,56,57,58)        145.2465         estimate D2E/DX2                !
 ! D374  D(15,57,58,16)        133.3013         estimate D2E/DX2                !
 ! D375  D(15,57,58,59)         -8.0729         estimate D2E/DX2                !
 ! D376  D(56,57,58,16)         -6.7459         estimate D2E/DX2                !
 ! D377  D(56,57,58,59)       -148.12           estimate D2E/DX2                !
 ! D378  D(16,58,59,11)       -137.4041         estimate D2E/DX2                !
 ! D379  D(16,58,59,60)          0.3364         estimate D2E/DX2                !
 ! D380  D(57,58,59,11)         -1.3318         estimate D2E/DX2                !
 ! D381  D(57,58,59,60)        136.4087         estimate D2E/DX2                !
 ! D382  D(11,59,60,55)        135.3843         estimate D2E/DX2                !
 ! D383  D(11,59,60,61)         -5.6115         estimate D2E/DX2                !
 ! D384  D(58,59,60,55)         -6.981          estimate D2E/DX2                !
 ! D385  D(58,59,60,61)       -147.9768         estimate D2E/DX2                !
 ! D386  D(55,60,61,9)        -137.2587         estimate D2E/DX2                !
 ! D387  D(55,60,61,62)          4.8281         estimate D2E/DX2                !
 ! D388  D(59,60,61,9)           3.3284         estimate D2E/DX2                !
 ! D389  D(59,60,61,62)        145.4152         estimate D2E/DX2                !
 ! D390  D(9,61,62,53)         133.5627         estimate D2E/DX2                !
 ! D391  D(9,61,62,63)          -3.9748         estimate D2E/DX2                !
 ! D392  D(60,61,62,53)         -4.1434         estimate D2E/DX2                !
 ! D393  D(60,61,62,63)       -141.6809         estimate D2E/DX2                !
 ! D394  D(53,62,63,8)        -137.8921         estimate D2E/DX2                !
 ! D395  D(53,62,63,64)          3.5943         estimate D2E/DX2                !
 ! D396  D(61,62,63,8)           4.0581         estimate D2E/DX2                !
 ! D397  D(61,62,63,64)        145.5444         estimate D2E/DX2                !
 ! D398  D(8,63,64,52)         137.892          estimate D2E/DX2                !
 ! D399  D(8,63,64,65)          -4.058          estimate D2E/DX2                !
 ! D400  D(62,63,64,52)         -3.5943         estimate D2E/DX2                !
 ! D401  D(62,63,64,65)       -145.5444         estimate D2E/DX2                !
 ! D402  D(52,64,65,1)        -133.5627         estimate D2E/DX2                !
 ! D403  D(52,64,65,66)          4.1434         estimate D2E/DX2                !
 ! D404  D(63,64,65,1)           3.9748         estimate D2E/DX2                !
 ! D405  D(63,64,65,66)        141.6809         estimate D2E/DX2                !
 ! D406  D(1,65,66,42)          -3.3284         estimate D2E/DX2                !
 ! D407  D(1,65,66,49)         137.2587         estimate D2E/DX2                !
 ! D408  D(64,65,66,42)       -145.4153         estimate D2E/DX2                !
 ! D409  D(64,65,66,49)         -4.8281         estimate D2E/DX2                !
 --------------------------------------------------------------------------------
 Trust Radius=3.00D-01 FncErr=1.00D-07 GrdErr=1.00D-06 EigMax=2.50D+02 EigMin=1.00D-04
 Number of steps in this run=    408 maximum allowed number of steps=    408.
 GradGradGradGradGradGradGradGradGradGradGradGradGradGradGradGradGradGrad

 Leave Link  103 at Wed Jul 20 12:20:38 2022, MaxMem=  1342177280 cpu:               1.4 elap:               0.0
 (Enter /home/mkliu/g16/l202.exe)
 Stoichiometry    C66H2
 Framework group  C1[X(C66H2)]
 Deg. of freedom   198
 Full point group                 C1      NOp   1
 Largest Abelian subgroup         C1      NOp   1
 Largest concise Abelian subgroup C1      NOp   1
                         Standard orientation:                         
 ---------------------------------------------------------------------
 Center     Atomic      Atomic             Coordinates (Angstroms)
 Number     Number       Type             X           Y           Z
 ---------------------------------------------------------------------
      1          6           0       -3.050706    2.314380    0.834487
      2          6           0       -3.384075    1.166604    1.537658
      3          6           0       -2.532721    0.712900    2.609268
      4          6           0       -1.352642    1.382847    2.905098
      5          6           0       -2.532722   -0.712896    2.609269
      6          6           0       -3.384077   -1.166600    1.537658
      7          6           0        3.057540   -0.000001    2.506274
      8          6           0       -3.868998    0.000002    0.843044
      9          6           0       -3.050709   -2.314377    0.834488
     10          6           0        4.089292   -0.000002    1.323301
     11          6           0       -1.904381   -3.088063    1.227322
     12          6           0       -1.078253   -2.623057    2.244811
     13          6           0       -1.352643   -1.382844    2.905098
     14          6           0        0.157768   -2.793281   -2.232202
     15          6           0        0.343702   -2.763379    2.155467
     16          6           0        0.799330   -3.493019   -1.216759
     17          6           0        2.114937   -3.088384   -0.833948
     18          6           0        0.746105    1.618211   -2.841779
     19          6           0       -0.353472    0.696660   -3.155252
     20          6           0       -0.353473   -0.696661   -3.155252
     21          6           0        3.756956   -1.229640    0.522140
     22          6           0        2.851530   -2.039146    1.250766
     23          6           0        2.261200   -1.278912    2.314397
     24          6           0        0.979601   -1.588219    2.710620
     25          6           0       -0.103235   -0.692689    3.153492
     26          6           0       -0.103234    0.692691    3.153492
     27          6           0        0.979603    1.588220    2.710620
     28          6           0        2.261202    1.278911    2.314397
     29          6           0        2.851532    2.039144    1.250765
     30          6           0        3.756957    1.229637    0.522140
     31          6           0        3.697905    1.243337   -0.858285
     32          6           0        2.764723    2.093880   -1.544257
     33          6           0        3.710426   -0.000002   -1.570534
     34          6           0        2.114941    3.088381   -0.833949
     35          6           0        2.162983    3.061613    0.599034
     36          6           0        0.892574    3.468963    1.094373
     37          6           0        2.679468   -0.000002   -2.519209
     38          6           0        0.343705    2.763380    2.155466
     39          6           0       -1.078249    2.623059    2.244810
     40          6           0        2.064497    1.307809   -2.547195
     41          6           0       -1.904377    3.088066    1.227320
     42          6           0       -1.304467    3.638665    0.035761
     43          6           0        0.061494    3.837899   -0.023774
     44          6           0        0.799334    3.493018   -1.216761
     45          6           0        0.746103   -1.618213   -2.841778
     46          6           0        2.064495   -1.307813   -2.547195
     47          6           0        0.157771    2.793280   -2.232203
     48          6           0        2.764720   -2.093884   -1.544256
     49          6           0       -1.262916    2.633998   -2.185982
     50          6           0        3.697904   -1.243341   -0.858285
[...]
 Alpha virt. eigenvalues --    0.80859   0.81475   0.81886   0.82274   0.82322
 Alpha virt. eigenvalues --    0.82894   0.83264   0.83537   0.84134   0.84162
 Alpha virt. eigenvalues --    0.84660   0.84994   0.85063   0.85438   0.85648
 Alpha virt. eigenvalues --    0.85992   0.86860   0.86983   0.87510   0.88121
 Alpha virt. eigenvalues --    0.88527   0.89097   0.89754   0.90092   0.90871
 Alpha virt. eigenvalues --    0.91523   0.91563   0.91847   0.92528   0.92946
 Alpha virt. eigenvalues --    0.92980   0.93941   0.94104   0.94162   0.94514
 Alpha virt. eigenvalues --    0.94665   0.94992   0.95780   0.95804   0.96031
 Alpha virt. eigenvalues --    0.96636   0.97030   0.97360   0.98004   0.98413
 Alpha virt. eigenvalues --    0.98629   0.98974   0.99033   1.00573   1.00977
 Alpha virt. eigenvalues --    1.01322   1.01326   1.02675   1.02960   1.03436
 Alpha virt. eigenvalues --    1.03480   1.03587   1.04555   1.04866   1.05032
 Alpha virt. eigenvalues --    1.05278   1.05739   1.05935   1.06448   1.06938
 Alpha virt. eigenvalues --    1.06985   1.07689   1.07815   1.08709   1.08863
 Alpha virt. eigenvalues --    1.09246   1.09247   1.09980   1.10825   1.11127
 Alpha virt. eigenvalues --    1.11210   1.11944   1.12041   1.12807   1.13434
 Alpha virt. eigenvalues --    1.14111   1.14176   1.14688   1.15609   1.15669
 Alpha virt. eigenvalues --    1.16280   1.16630   1.17737   1.17950   1.18564
 Alpha virt. eigenvalues --    1.19168   1.19560   1.20248   1.20459   1.20825
 Alpha virt. eigenvalues --    1.20886   1.21528   1.22059   1.22229   1.22980
 Alpha virt. eigenvalues --    1.23306   1.24012   1.24451   1.24645   1.25084
 Alpha virt. eigenvalues --    1.25684   1.25973   1.26148   1.26310   1.27318
 Alpha virt. eigenvalues --    1.27705   1.28247   1.29191   1.29507   1.29807
 Alpha virt. eigenvalues --    1.31213   1.31318   1.31847   1.32012   1.32900
 Alpha virt. eigenvalues --    1.32950   1.33116   1.33451   1.33452   1.33559
 Alpha virt. eigenvalues --    1.34332   1.34771   1.34978   1.35569   1.35582
 Alpha virt. eigenvalues --    1.35904   1.35909   1.37219   1.37486   1.37632
 Alpha virt. eigenvalues --    1.38138   1.38341   1.38346   1.38441   1.39058
 Alpha virt. eigenvalues --    1.39278   1.39697   1.40332   1.40485   1.40665
 Alpha virt. eigenvalues --    1.40987   1.41075   1.41787   1.42553   1.42717
 Alpha virt. eigenvalues --    1.43055   1.43211   1.43342   1.43947   1.43987
 Alpha virt. eigenvalues --    1.44322   1.44537   1.44827   1.44877   1.45120
 Alpha virt. eigenvalues --    1.45682   1.45886   1.46141   1.46611   1.46773
 Alpha virt. eigenvalues --    1.46951   1.46984   1.47132   1.47545   1.47591
 Alpha virt. eigenvalues --    1.47678   1.47966   1.48151   1.48463   1.48972
 Alpha virt. eigenvalues --    1.49276   1.49379   1.49731   1.49935   1.50515
 Alpha virt. eigenvalues --    1.50575   1.50930   1.51332   1.51430   1.51460
 Alpha virt. eigenvalues --    1.51871   1.52153   1.52501   1.52725   1.52755
 Alpha virt. eigenvalues --    1.52934   1.53433   1.53876   1.54443   1.55521
 Alpha virt. eigenvalues --    1.55530   1.55634   1.56073   1.56181   1.56201
 Alpha virt. eigenvalues --    1.56442   1.57112   1.57902   1.58574   1.59313
 Alpha virt. eigenvalues --    1.59563   1.60118   1.60282   1.60456   1.61592
 Alpha virt. eigenvalues --    1.62279   1.62556   1.62886   1.63240   1.63388
 Alpha virt. eigenvalues --    1.64113   1.64440   1.64974   1.65483   1.65573
 Alpha virt. eigenvalues --    1.65820   1.66847   1.67023   1.67545   1.67557
 Alpha virt. eigenvalues --    1.68213   1.68347   1.68455   1.68642   1.68924
 Alpha virt. eigenvalues --    1.69739   1.70048   1.70141   1.71298   1.71648
 Alpha virt. eigenvalues --    1.71704   1.72526   1.73175   1.73188   1.73710
 Alpha virt. eigenvalues --    1.73910   1.74575   1.75254   1.75533   1.75919
 Alpha virt. eigenvalues --    1.76111   1.76819   1.76826   1.77472   1.77595
 Alpha virt. eigenvalues --    1.78325   1.78400   1.78630   1.79033   1.79669
 Alpha virt. eigenvalues --    1.80268   1.80535   1.80650   1.81058   1.81354
 Alpha virt. eigenvalues --    1.81477   1.82329   1.82378   1.82620   1.83312
 Alpha virt. eigenvalues --    1.84030   1.84150   1.84652   1.85300   1.85914
 Alpha virt. eigenvalues --    1.86424   1.87644   1.87916   1.88457   1.88797
 Alpha virt. eigenvalues --    1.89277   1.89473   1.90044   1.90210   1.90757
 Alpha virt. eigenvalues --    1.91413   1.92141   1.92532   1.92681   1.93092
 Alpha virt. eigenvalues --    1.93101   1.93282   1.94050   1.94609   1.95686
 Alpha virt. eigenvalues --    1.96250   1.96272   1.97774   1.97933   1.98865
 Alpha virt. eigenvalues --    1.99077   2.00023   2.00810   2.01322   2.01332
 Alpha virt. eigenvalues --    2.01916   2.02361   2.02562   2.02603   2.02860
 Alpha virt. eigenvalues --    2.03065   2.03947   2.04216   2.04577   2.04802
 Alpha virt. eigenvalues --    2.04848   2.05348   2.06240   2.06686   2.06736
 Alpha virt. eigenvalues --    2.07804   2.08450   2.08511   2.09043   2.09134
 Alpha virt. eigenvalues --    2.09925   2.10086   2.10542   2.11150   2.11367
 Alpha virt. eigenvalues --    2.11468   2.12358   2.13001   2.13004   2.14534
 Alpha virt. eigenvalues --    2.15517   2.15664   2.16461   2.17601   2.17681
 Alpha virt. eigenvalues --    2.17856   2.18621   2.19626   2.20165   2.20704
 Alpha virt. eigenvalues --    2.21077   2.22068   2.22149   2.23521   2.23957
 Alpha virt. eigenvalues --    2.24068   2.24228   2.24871   2.25164   2.25391
 Alpha virt. eigenvalues --    2.25993   2.26095   2.27761   2.28523   2.28530
 Alpha virt. eigenvalues --    2.28784   2.29950   2.30211   2.30889   2.31197
 Alpha virt. eigenvalues --    2.31313   2.31822   2.33085   2.33121   2.34582
 Alpha virt. eigenvalues --    2.35016   2.35115   2.35388   2.36729   2.36784
 Alpha virt. eigenvalues --    2.37799   2.38979   2.39101   2.39617   2.39795
 Alpha virt. eigenvalues --    2.40180   2.40598   2.40766   2.41428   2.41753
 Alpha virt. eigenvalues --    2.41956   2.42752   2.43149   2.43486   2.43791
 Alpha virt. eigenvalues --    2.44688   2.45043   2.45587   2.45634   2.45940
 Alpha virt. eigenvalues --    2.46022   2.46674   2.47165   2.47949   2.48217
 Alpha virt. eigenvalues --    2.50466   2.51269   2.51536   2.52548   2.52655
 Alpha virt. eigenvalues --    2.53108   2.53347   2.55008   2.55377   2.55834
 Alpha virt. eigenvalues --    2.56201   2.56254   2.56477   2.57187   2.57257
 Alpha virt. eigenvalues --    2.57269   2.57649   2.58689   2.58778   2.59385
 Alpha virt. eigenvalues --    2.59407   2.60069   2.60231   2.60734   2.61185
 Alpha virt. eigenvalues --    2.62239   2.63018   2.63785   2.63949   2.64714
 Alpha virt. eigenvalues --    2.64888   2.65332   2.65617   2.66386   2.66669
 Alpha virt. eigenvalues --    2.66815   2.69522   2.69542   2.70124   2.70188
 Alpha virt. eigenvalues --    2.70787   2.70927   2.72887   2.73329   2.74241
 Alpha virt. eigenvalues --    2.74928   2.75177   2.76230   2.78085   2.78697
 Alpha virt. eigenvalues --    2.79632   2.79689   2.80435   2.80555   2.81313
 Alpha virt. eigenvalues --    2.82002   2.83707   2.84167   2.84214   2.84403
 Alpha virt. eigenvalues --    2.84799   2.85829   2.87218   2.88132   2.88797
 Alpha virt. eigenvalues --    2.89497   2.90489   2.90722   2.91620   2.92554
 Alpha virt. eigenvalues --    2.92702   2.93428   2.93594   2.94666   2.95075
 Alpha virt. eigenvalues --    2.96149   2.97006   2.97127   2.98175   2.98246
 Alpha virt. eigenvalues --    2.98347   2.99078   2.99489   2.99783   3.00127
 Alpha virt. eigenvalues --    3.00730   3.01169   3.01701   3.02248   3.02448
 Alpha virt. eigenvalues --    3.02883   3.03038   3.03345   3.03805   3.04156
 Alpha virt. eigenvalues --    3.04271   3.04575   3.04901   3.05146   3.05309
 Alpha virt. eigenvalues --    3.05591   3.05914   3.06134   3.06255   3.06271
 Alpha virt. eigenvalues --    3.06507   3.07279   3.07843   3.08554   3.08681
 Alpha virt. eigenvalues --    3.09428   3.09558   3.10530   3.10676   3.10717
 Alpha virt. eigenvalues --    3.11208   3.11686   3.11745   3.12762   3.13081
 Alpha virt. eigenvalues --    3.13141   3.13350   3.13654   3.13701   3.13880
 Alpha virt. eigenvalues --    3.14287   3.14416   3.14691   3.15004   3.15222
 Alpha virt. eigenvalues --    3.15841   3.16118   3.16459   3.16543   3.17172
 Alpha virt. eigenvalues --    3.17380   3.17766   3.17839   3.19560   3.19645
 Alpha virt. eigenvalues --    3.20073   3.20385   3.20899   3.21410   3.21639
 Alpha virt. eigenvalues --    3.22050   3.26286   3.26899   3.27509   3.34750
 Alpha virt. eigenvalues --    3.35563   3.36392   3.39066   3.40087   3.43067
 Alpha virt. eigenvalues --    3.43676   3.45822   3.46316   3.49333   3.49513
 Alpha virt. eigenvalues --    3.49624   3.50770   3.51580   3.53148   3.54217
 Alpha virt. eigenvalues --    3.55058   3.55987   3.56160   3.56459   3.57830
 Alpha virt. eigenvalues --    3.58741   3.59992   3.60132   3.60744   3.62669
 Alpha virt. eigenvalues --    3.64069   3.64661   3.65449   3.65657   3.66762
 Alpha virt. eigenvalues --    3.68700   3.68918   3.69752   3.70095   3.70690
 Alpha virt. eigenvalues --    3.71460   3.72485   3.73735   3.74904   3.75064
 Alpha virt. eigenvalues --    3.76095   3.76766   3.78292   3.82281   3.82430
 Alpha virt. eigenvalues --    3.84071   3.84393   3.84776   3.85788   3.86263
 Alpha virt. eigenvalues --    3.87815   3.87912   3.88053   3.88935   3.89691
 Alpha virt. eigenvalues --    3.90194   3.91281   3.91619   3.92061   3.92745
 Alpha virt. eigenvalues --    3.93011   3.95272   3.97375   4.01302   4.06669
 Alpha virt. eigenvalues --    4.12155   4.20620   4.23151   4.23934   4.27150
 Alpha virt. eigenvalues --    4.31923   4.36381   4.37130   4.37976   4.39879
 Alpha virt. eigenvalues --    4.40024   4.41321   4.43735   4.48447   4.55019
 Alpha virt. eigenvalues --    4.58561   4.61936   4.62109   4.63578   4.65237
 Alpha virt. eigenvalues --    4.66069   4.68556   4.75815   4.76817   4.77612
 Alpha virt. eigenvalues --    4.82602   4.90159   4.90300   4.95765   4.98744
 Alpha virt. eigenvalues --    4.99883   5.02729   5.03546   5.04840   5.05147
 Alpha virt. eigenvalues --   23.01015  23.19858  23.22317  23.24914  23.43530
 Alpha virt. eigenvalues --   23.46629  23.46802  23.49150  23.50768  23.64191
 Alpha virt. eigenvalues --   23.65780  23.66327  23.67464  23.70969  23.73101
 Alpha virt. eigenvalues --   23.76820  23.79029  23.81670  23.82608  23.83297
 Alpha virt. eigenvalues --   23.84662  23.87184  23.87519  23.88285  23.91678
 Alpha virt. eigenvalues --   23.92468  23.94066  23.94179  23.94234  23.95715
 Alpha virt. eigenvalues --   23.96235  23.96875  23.97130  23.97444  23.97930
 Alpha virt. eigenvalues --   23.98609  23.99572  23.99595  23.99940  24.00041
 Alpha virt. eigenvalues --   24.00415  24.01300  24.01406  24.01996  24.03191
 Alpha virt. eigenvalues --   24.05605  24.06476  24.06934  24.08009  24.08312
 Alpha virt. eigenvalues --   24.09169  24.09756  24.09894  24.10100  24.10666
 Alpha virt. eigenvalues --   24.10830  24.11088  24.11360  24.12061  24.12261
 Alpha virt. eigenvalues --   24.12675  24.13238  24.13699  24.13921  24.15642
 Alpha virt. eigenvalues --   24.15858
          Condensed to atoms (all electrons):
 Mulliken charges:
               1
     1  C   -0.002977
     2  C   -0.001486
     3  C   -0.003713
     4  C   -0.004117
     5  C   -0.003713
     6  C   -0.001486
     7  C   -0.122389
     8  C    0.000522
     9  C   -0.002977
    10  C   -0.165531
    11  C    0.005218
    12  C   -0.000380
    13  C   -0.004117
    14  C   -0.001025
    15  C   -0.003190
    16  C   -0.001594
    17  C   -0.004470
    18  C    0.000474
    19  C    0.008264
    20  C    0.008264
    21  C   -0.014029
    22  C    0.034950
    23  C   -0.031128
    24  C    0.018598
    25  C   -0.002048
    26  C   -0.002048
    27  C    0.018598
    28  C   -0.031128
    29  C    0.034950
    30  C   -0.014029
    31  C    0.021545
    32  C   -0.013102
    33  C   -0.042624
    34  C   -0.004470
    35  C   -0.006144
    36  C   -0.002295
    37  C   -0.007160
    38  C   -0.003190
    39  C   -0.000380
    40  C    0.018575
    41  C    0.005218
    42  C   -0.003003
    43  C   -0.005892
    44  C   -0.001594
    45  C    0.000474
    46  C    0.018575
    47  C   -0.001025
    48  C   -0.013102
    49  C   -0.001632
    50  C    0.021545
    51  C   -0.003919
    52  C   -0.003507
    53  C   -0.003507
    54  C   -0.003919
    55  C   -0.001632
    56  C   -0.006144
    57  C   -0.002295
    58  C   -0.005892
    59  C   -0.003003
    60  C    0.004476
    61  C   -0.000934
    62  C   -0.001283
    63  C   -0.001302
    64  C   -0.001283
    65  C   -0.000934
    66  C    0.004476
    67  H    0.169056
    68  H    0.168966
 Sum of Mulliken charges =  -0.00000
 Mulliken charges with hydrogens summed into heavy atoms:
               1
     1  C   -0.002977
     2  C   -0.001486
     3  C   -0.003713
     4  C   -0.004117
     5  C   -0.003713
     6  C   -0.001486
     7  C    0.046666
     8  C    0.000522
     9  C   -0.002977
    10  C    0.003435
    11  C    0.005218
    12  C   -0.000380
    13  C   -0.004117
    14  C   -0.001025
    15  C   -0.003190
    16  C   -0.001594
    17  C   -0.004470
    18  C    0.000474
    19  C    0.008264
    20  C    0.008264
    21  C   -0.014029
    22  C    0.034950
    23  C   -0.031128
    24  C    0.018598
    25  C   -0.002048
    26  C   -0.002048
    27  C    0.018598
    28  C   -0.031128
    29  C    0.034950
    30  C   -0.014029
    31  C    0.021545
    32  C   -0.013102
    33  C   -0.042624
    34  C   -0.004470
    35  C   -0.006144
    36  C   -0.002295
    37  C   -0.007160
    38  C   -0.003190
    39  C   -0.000380
    40  C    0.018575
    41  C    0.005218
    42  C   -0.003003
    43  C   -0.005892
    44  C   -0.001594
    45  C    0.000474
    46  C    0.018575
    47  C   -0.001025
    48  C   -0.013102
    49  C   -0.001632
    50  C    0.021545
    51  C   -0.003919
    52  C   -0.003507
    53  C   -0.003507
    54  C   -0.003919
    55  C   -0.001632
    56  C   -0.006144
    57  C   -0.002295
    58  C   -0.005892
    59  C   -0.003003
    60  C    0.004476
    61  C   -0.000934
    62  C   -0.001283
    63  C   -0.001302
    64  C   -0.001283
    65  C   -0.000934
    66  C    0.004476
 Electronic spatial extent (au):  <R**2>=          20818.9638
 Charge=             -0.0000 electrons
 Dipole moment (field-independent basis, Debye):
    X=              2.0678    Y=             -0.0000    Z=              1.3487  Tot=              2.4687
 Quadrupole moment (field-independent basis, Debye-Ang):
   XX=           -360.8004   YY=           -373.3249   ZZ=           -366.4886
   XY=              0.0000   XZ=              9.4538   YZ=             -0.0000
 Traceless Quadrupole moment (field-independent basis, Debye-Ang):
   XX=              6.0709   YY=             -6.4536   ZZ=              0.3827
   XY=              0.0000   XZ=              9.4538   YZ=             -0.0000
 Octapole moment (field-independent basis, Debye-Ang**2):
  XXX=             69.9026  YYY=             -0.0000  ZZZ=             17.4142  XYY=             -4.6264
  XXY=             -0.0000  XXZ=             44.9243  XZZ=             25.2159  YZZ=              0.0000
  YYZ=             -1.2509  XYZ=              0.0000
 Hexadecapole moment (field-independent basis, Debye-Ang**3):
 XXXX=         -12233.2037 YYYY=         -11208.8061 ZZZZ=          -8640.3337 XXXY=              0.0000
 XXXZ=            227.0794 YYYX=             -0.0000 YYYZ=             -0.0000 ZZZX=            105.6922
 ZZZY=             -0.0000 XXYY=          -3972.0436 XXZZ=          -3457.9432 YYZZ=          -3321.8769
 XXYZ=             -0.0000 YYXZ=              2.5769 ZZXY=             -0.0000
 N-N= 9.743143764992D+03 E-N=-2.532105483823D+04  KE= 2.506300448622D+03
 No NMR shielding tensors so no spin-rotation constants.
 Leave Link  601 at Wed Jul 20 12:52:37 2022, MaxMem=  1342177280 cpu:              55.3 elap:               1.4
 (Enter /home/mkliu/g16/l9999.exe)
 1\1\GINC-NODE01\FOpt\RB3LYP\6-311G(d,p)\C66H2\MKLIU\20-Jul-2022\0\\#P 
 opt b3lyp/6-311G(d, p) empiricaldispersion=GD3\\force\\0,1\C,12.794198
 6995,12.0803096532,21.8979670548\C,12.802584695,13.0274160072,22.91553
 26627\C,12.6845067552,14.4379664823,22.5892601696\C,12.6177559311,14.8
 487368422,21.2600549787\C,13.4912049608,15.1826122647,23.5072696743\C,
 14.1257475547,14.2487992135,24.4212705874\C,15.6394060484,17.354561021
 9,18.7423050128\C,13.7372933873,12.9101080039,24.0189106054\C,15.41419
 03611,14.4987676695,24.8794751676\C,16.9383553105,16.9791175486,17.905
 3990395\C,16.0867735395,15.7233832275,24.5083532346\C,15.4770097525,16
 .5996208907,23.6080324403\C,14.1871872713,16.2974451998,23.0460424599\
 C,19.2648025073,14.0523014027,22.6186765948\C,16.2546942364,17.2810317
 38,22.6069048944\C,19.2315091035,15.4463879426,22.6060657723\C,19.3212
 626926,16.1298543809,21.3488345006\C,17.4547475149,11.5809436461,19.29
 09971472\C,17.7123251603,11.3121428576,20.7306022137\C,18.5016643635,1
 2.0407649298,21.6288574557\C,18.0487056715,16.8969304125,18.9337437006
 \C,17.599775102,17.427950945,20.1741800736\C,16.156291775,17.522204063
 9,20.176549634\C,15.481609871,17.3737380356,21.3753834698\C,14.1725178
 865,16.7070489934,21.6422816807\C,13.3873243355,15.982253693,20.748744
 1272\C,13.6663999957,15.6981567896,19.3097039964\C,14.6922173063,16.17
 07483722,18.5104565712\C,15.275358161,15.2823315989,17.5290312012\C,16
 .6475821252,15.6035833617,17.3392877703\C,17.5843646914,14.5801062274,
 17.3297596167\C,17.1595965383,13.2108706977,17.4741495534\C,18.7999970
 077,14.7252636264,18.0977062117\C,15.8148105916,12.8931237696,17.35854
 87288\C,14.8418482468,13.9592391718,17.3839020638\C,13.7018674091,13.5
 105694609,18.1170052795\C,19.0190280061,13.5668026372,18.8449219849\C,
 13.1119300109,14.3800135903,19.0304900448\C,12.5041891848,13.855474084
 6,20.2250107255\C,18.0058160539,12.5736844905,18.4876500424\C,12.58935
 37618,12.4949901694,20.5283461139\C,13.3800902845,11.6307456542,19.667
 7862199\C,13.9114062513,12.1229154622,18.4892913954\C,15.2738057961,11
 .7931170454,18.1022634378\C,19.2912161781,13.2761484216,21.3808687833\
 C,19.4906889059,13.9443387329,20.1774113373\C,16.0946270539,11.1259805
 483,19.0110682163\C,19.5414235589,15.4094840523,20.1846301824\C,15.526
 8268333,10.5776266133,20.210916279\C,18.9974422103,15.8844877289,18.93
 78189816\C,16.5265662995,10.6275004131,21.2457779408\C,16.1264225736,1
 0.727216771,22.5743472514\C,16.9333547613,11.4720785369,23.4926230228\
 C,18.0985201849,12.0785372819,23.0346360394\C,18.5117933799,13.3329851
 038,23.6077599185\C,18.3228815205,17.172506198,21.3452616164\C,17.6403
 903898,17.1461354172,22.5989807191\C,18.2615609365,16.1384497967,23.43
 9697052\C,17.5043335932,15.4377460537,24.3611083859\C,17.6787210446,14
 .0088233274,24.5069279529\C,16.4024251855,13.4331426914,24.8738653975\
 C,16.0526846734,12.1702622968,24.4132489638\C,14.6865321018,11.8846658
 797,24.0165598566\C,14.7300582719,10.9493742809,22.9081215151\C,13.783
 5803219,11.015743257,21.8936623157\C,14.1764382587,10.7759413229,20.52
 13868014\H,15.1834029803,18.2834885179,18.3895144501\H,17.1484473534,1
 7.7150549309,17.123823749\\Version=ES64L-G16RevA.03\State=1-A\HF=-2516
 .5797437\RMSD=7.816e-09\RMSF=5.361e-05\Dipole=-0.0103564,0.7587093,-0.
 6063282\Quadrupole=-4.8403361,4.5123481,0.327988,-0.6785007,0.5875103,
 -6.9559371\PG=C01 [X(C66H2)]\\@


 FORGIVE MY NONSENSE AS I ALSO FORGIVE THOSE WHO THINK THEY TALK SENSE

                                                       -- ROBERT FROST
 Job cpu time:       1 days  1 hours 29 minutes 31.8 seconds.
 Elapsed time:       0 days  0 hours 31 minutes 56.7 seconds.
 File lengths (MBytes):  RWF=    884 Int=      0 D2E=      0 Chk=    109 Scr=      1
 Normal termination of Gaussian 16 at Wed Jul 20 12:52:38 2022.
