 Entering Gaussian System, Link 0=g16
 Input=dihept_6_addons_4.gjf
 Output=dihept_6_addons_4.log
 Initial command:
 /home/mkliu/g16/l1.exe "/data/scratch/Gau-110938.inp" -scrdir="/data/scratch/"
 Entering Link 1 = /home/mkliu/g16/l1.exe PID=    110939.
  
 Copyright (c) 1988,1990,1992,1993,1995,1998,2003,2009,2016,
            Gaussian, Inc.  All Rights Reserved.
  
 This is part of the Gaussian(R) 16 program.  It is based on
 the Gaussian(R) 09 system (copyright 2009, Gaussian, Inc.),
 the Gaussian(R) 03 system (copyright 2003, Gaussian, Inc.),
 the Gaussian(R) 98 system (copyright 1998, Gaussian, Inc.),
 the Gaussian(R) 94 system (copyright 1995, Gaussian, Inc.),
 the Gaussian 92(TM) system (copyright 1992, Gaussian, Inc.),
 the Gaussian 90(TM) system (copyright 1990, Gaussian, Inc.),
 the Gaussian 88(TM) system (copyright 1988, Gaussian, Inc.),
 the Gaussian 86(TM) system (copyright 1986, Carnegie Mellon
 University), and the Gaussian 82(TM) system (copyright 1983,
 Carnegie Mellon University). Gaussian is a federally registered
 trademark of Gaussian, Inc.
  
 This software contains proprietary and confidential information,
 including trade secrets, belonging to Gaussian, Inc.
  
 This software is provided under written license and may be
 used, copied, transmitted, or stored only in accord with that
 written license.
  
 The following legend is applicable only to US Government
 contracts under FAR:
  
                    RESTRICTED RIGHTS LEGEND
  
 Use, reproduction and disclosure by the US Government is
 subject to restrictions as set forth in subparagraphs (a)
 and (c) of the Commercial Computer Software - Restricted
 Rights clause in FAR 52.227-19.
  
 Gaussian, Inc.
 340 Quinnipiac St., Bldg. 40, Wallingford CT 06492
  
  
 ---------------------------------------------------------------
 Warning -- This program may not be used in any manner that
 competes with the business of Gaussian, Inc. or will provide
 assistance to any competitor of Gaussian, Inc.  The licensee
 of this program is prohibited from giving any competitor of
 Gaussian, Inc. access to this program.  By using this program,
 the user acknowledges that Gaussian, Inc. is engaged in the
 business of creating and licensing software in the field of
 computational chemistry and represents and warrants to the
 licensee that it is not a competitor of Gaussian, Inc. and that
 it will not use this program in any manner prohibited above.
 ---------------------------------------------------------------
  

 Cite this work as:
 Gaussian 16, Revision A.03,
 M. J. Frisch, G. W. Trucks, H. B. Schlegel, G. E. Scuseria, 
 M. A. Robb, J. R. Cheeseman, G. Scalmani, V. Barone, 
 G. A. Petersson, H. Nakatsuji, X. Li, M. Caricato, A. V. Marenich, 
 J. Bloino, B. G. Janesko, R. Gomperts, B. Mennucci, H. P. Hratchian, 
 J. V. Ortiz, A. F. Izmaylov, J. L. Sonnenberg, D. Williams-Young, 
 F. Ding, F. Lipparini, F. Egidi, J. Goings, B. Peng, A. Petrone, 
 T. Henderson, D. Ranasinghe, V. G. Zakrzewski, J. Gao, N. Rega, 
 G. Zheng, W. Liang, M. Hada, M. Ehara, K. Toyota, R. Fukuda, 
 J. Hasegawa, M. Ishida, T. Nakajima, Y. Honda, O. Kitao, H. Nakai, 
 T. Vreven, K. Throssell, J. A. Montgomery, Jr., J. E. Peralta, 
 F. Ogliaro, M. J. Bearpark, J. J. Heyd, E. N. Brothers, K. N. Kudin, 
 V. N. Staroverov, T. A. Keith, R. Kobayashi, J. Normand, 
 K. Raghavachari, A. P. Rendell, J. C. Burant, S. S. Iyengar, 
 J. Tomasi, M. Cossi, J. M. Millam, M. Klene, C. Adamo, R. Cammi, 
 J. W. Ochterski, R. L. Martin, K. Morokuma, O. Farkas, 
 J. B. Foresman, and D. J. Fox, Gaussian, Inc., Wallingford CT, 2016.
 
 ******************************************
 Gaussian 16:  ES64L-G16RevA.03 25-Dec-2016
                20-Jul-2022 
 ******************************************
 %mem=10GB
 %chk=dihept_6_addons_4.chk
 %nprocshared=48
 Will use up to   48 processors via shared memory.
 -------------------------------------------------
 #P opt b3lyp/6-311G(d, p) empiricaldispersion=GD3
 -------------------------------------------------
 1/18=20,19=15,26=3,38=1/1,3;
 2/9=110,12=2,17=6,18=5,40=1/2;
 3/5=4,6=6,7=101,11=2,25=1,30=1,71=1,74=-5,124=31/1,2,3;
 4//1;
 5/5=2,38=5/2;
 6/7=2,8=2,9=2,10=2,28=1/1;
 7//1,2,3,16;
 1/18=20,19=15,26=3/3(2);
 2/9=110/2;
 99//99;
 2/9=110/2;
 3/5=4,6=6,7=101,11=2,25=1,30=1,71=1,74=-5,124=31/1,2,3;
 4/5=5,16=3,69=1/1;
 5/5=2,38=5/2;
 7//1,2,3,16;
 1/18=20,19=15,26=3/3(-5);
 2/9=110/2;
 6/7=2,8=2,9=2,10=2,19=2,28=1/1;
 99/9=1/99;
 Leave Link    1 at Wed Jul 20 03:14:41 2022, MaxMem=  1342177280 cpu:               2.0 elap:               0.0
 (Enter /home/mkliu/g16/l101.exe)
 -----
 force
 -----
 Symbolic Z-matrix:
 Charge =  0 Multiplicity = 1
 C                     12.82742   12.11018   21.90177 
 C                     12.82855   13.04776   22.92726 
 C                     12.71053   14.43992   22.60276 
 C                     12.65301   14.84055   21.27306 
 C                     13.51071   15.18682   23.51574 
 C                     14.14016   14.26054   24.42517 
 C                     15.64021   17.36166   18.75492 
 C                     13.75357   12.92971   24.02812 
 C                     15.42618   14.51044   24.87937 
 C                     16.92375   16.99741   17.9207 
 C                     16.09269   15.72843   24.50396 
 C                     15.48147   16.60061   23.60561 
 C                     14.20028   16.29631   23.04496 
 C                     19.22164   14.05247   22.59756 
 C                     16.24477   17.27322   22.60095 
 C                     19.19557   15.44022   22.59349 
 C                     19.25975   16.10199   21.33662 
 C                     17.4353   11.64157   19.34592 
 C                     17.69078   11.33527   20.75995 
 C                     18.48388   12.04563   21.64702 
 C                     18.01576   16.86099   18.94223 
 C                     17.56672   17.39965   20.17826 
 C                     16.13955   17.50925   20.18053 
 C                     15.47334   17.35665   21.37783 
 C                     14.18517   16.69651   21.65192 
 C                     13.41375   15.96269   20.76483 
 C                     13.69754   15.68554   19.35018 
 C                     14.71088   16.17889   18.55187 
 C                     15.29106   15.29652   17.60093 
 C                     16.66503   15.61202   17.40106 
 C                     17.59315   14.60787   17.4 
 C                     17.17086   13.26272   17.59879 
 C                     18.99513   14.75634   17.91834 
 C                     15.82536   12.93334   17.46202 
 C                     14.85683   13.98122   17.46313 
 C                     13.7151   13.52173   18.1536 
 C                     19.25826   13.44719   18.7508 
 C                     13.15493   14.37816   19.06142 
 C                     12.53793   13.8445   20.25635 
 C                     18.00591   12.61391   18.54811 
 C                     12.60961   12.50622   20.54895 
 C                     13.17505   11.45299   19.61173 
 C                     13.77293   12.00698   18.29203 
 C                     15.2783   11.83046   18.15182 
 C                     19.24292   13.27825   21.37353 
 C                     19.44613   13.93177   20.17676 
 C                     16.08902   11.2037   19.05808 
 C                     19.44902   15.36315   20.17611 
 C                     15.50978   10.62918   20.25296 
 C                     18.94601   15.85453   18.94117 
 C                     16.51286   10.66448   21.26866 
 C                     16.11939   10.75179   22.59888 
 C                     16.92781   11.48977   23.51185 
 C                     18.08756   12.09056   23.04052 
 C                     18.49219   13.34323   23.60218 
 C                     18.28963   17.15159   21.33772 
 C                     17.62619   17.13818   22.59528 
 C                     18.24903   16.13873   23.42832 
 C                     17.49597   15.44171   24.35442 
 C                     17.67168   14.02008   24.50216 
 C                     16.40548   13.45091   24.87826 
 C                     16.05481   12.18903   24.42298 
 C                     14.6973   11.90865   24.02704 
 C                     14.74115   10.97847   22.92508 
 C                     13.8053   11.05219   21.90066 
 C                     14.18157   10.80546   20.54716 
 H                     15.16765   18.28884   18.41441 
 H                     17.14562   17.72565   17.13818 
 H                     19.73772   14.92119   17.13522 
 H                     20.14509   12.90362   18.40873 
 H                     13.26258   11.53617   17.4455 
 H                     12.39117   10.72872   19.36312 
 
 ITRead=  0  0  0  0  0  0  0  0  0  0  0  0  0  0  0  0  0  0  0  0
 ITRead=  0  0  0  0  0  0  0  0  0  0  0  0  0  0  0  0  0  0  0  0
 ITRead=  0  0  0  0  0  0  0  0  0  0  0  0  0  0  0  0  0  0  0  0
 ITRead=  0  0  0  0  0  0  0  0  0  0  0  0
 MicOpt= -1 -1 -1 -1 -1 -1 -1 -1 -1 -1 -1 -1 -1 -1 -1 -1 -1 -1 -1 -1
 MicOpt= -1 -1 -1 -1 -1 -1 -1 -1 -1 -1 -1 -1 -1 -1 -1 -1 -1 -1 -1 -1
 MicOpt= -1 -1 -1 -1 -1 -1 -1 -1 -1 -1 -1 -1 -1 -1 -1 -1 -1 -1 -1 -1
 MicOpt= -1 -1 -1 -1 -1 -1 -1 -1 -1 -1 -1 -1
 NAtoms=     72 NQM=       72 NQMF=       0 NMMI=      0 NMMIF=      0
                NMic=       0 NMicF=      0.
                    Isotopes and Nuclear Properties:
 (Nuclear quadrupole moments (NQMom) in fm**2, nuclear magnetic moments (NMagM)
  in nuclear magnetons)

  Atom         1           2           3           4           5           6           7           8           9          10
 IAtWgt=          12          12          12          12          12          12          12          12          12          12
 AtmWgt=  12.0000000  12.0000000  12.0000000  12.0000000  12.0000000  12.0000000  12.0000000  12.0000000  12.0000000  12.0000000
 NucSpn=           0           0           0           0           0           0           0           0           0           0
 AtZEff=  -0.0000000  -0.0000000  -0.0000000  -0.0000000  -0.0000000  -0.0000000  -0.0000000  -0.0000000  -0.0000000  -0.0000000
 NQMom=    0.0000000   0.0000000   0.0000000   0.0000000   0.0000000   0.0000000   0.0000000   0.0000000   0.0000000   0.0000000
 NMagM=    0.0000000   0.0000000   0.0000000   0.0000000   0.0000000   0.0000000   0.0000000   0.0000000   0.0000000   0.0000000
 AtZNuc=   6.0000000   6.0000000   6.0000000   6.0000000   6.0000000   6.0000000   6.0000000   6.0000000   6.0000000   6.0000000

  Atom        11          12          13          14          15          16          17          18          19          20
 IAtWgt=          12          12          12          12          12          12          12          12          12          12
 AtmWgt=  12.0000000  12.0000000  12.0000000  12.0000000  12.0000000  12.0000000  12.0000000  12.0000000  12.0000000  12.0000000
 NucSpn=           0           0           0           0           0           0           0           0           0           0
 AtZEff=  -0.0000000  -0.0000000  -0.0000000  -0.0000000  -0.0000000  -0.0000000  -0.0000000  -0.0000000  -0.0000000  -0.0000000
 NQMom=    0.0000000   0.0000000   0.0000000   0.0000000   0.0000000   0.0000000   0.0000000   0.0000000   0.0000000   0.0000000
 NMagM=    0.0000000   0.0000000   0.0000000   0.0000000   0.0000000   0.0000000   0.0000000   0.0000000   0.0000000   0.0000000
 AtZNuc=   6.0000000   6.0000000   6.0000000   6.0000000   6.0000000   6.0000000   6.0000000   6.0000000   6.0000000   6.0000000

  Atom        21          22          23          24          25          26          27          28          29          30
 IAtWgt=          12          12          12          12          12          12          12          12          12          12
 AtmWgt=  12.0000000  12.0000000  12.0000000  12.0000000  12.0000000  12.0000000  12.0000000  12.0000000  12.0000000  12.0000000
 NucSpn=           0           0           0           0           0           0           0           0           0           0
 AtZEff=  -0.0000000  -0.0000000  -0.0000000  -0.0000000  -0.0000000  -0.0000000  -0.0000000  -0.0000000  -0.0000000  -0.0000000
 NQMom=    0.0000000   0.0000000   0.0000000   0.0000000   0.0000000   0.0000000   0.0000000   0.0000000   0.0000000   0.0000000
 NMagM=    0.0000000   0.0000000   0.0000000   0.0000000   0.0000000   0.0000000   0.0000000   0.0000000   0.0000000   0.0000000
 AtZNuc=   6.0000000   6.0000000   6.0000000   6.0000000   6.0000000   6.0000000   6.0000000   6.0000000   6.0000000   6.0000000

  Atom        31          32          33          34          35          36          37          38          39          40
 IAtWgt=          12          12          12          12          12          12          12          12          12          12
 AtmWgt=  12.0000000  12.0000000  12.0000000  12.0000000  12.0000000  12.0000000  12.0000000  12.0000000  12.0000000  12.0000000
 NucSpn=           0           0           0           0           0           0           0           0           0           0
 AtZEff=  -0.0000000  -0.0000000  -0.0000000  -0.0000000  -0.0000000  -0.0000000  -0.0000000  -0.0000000  -0.0000000  -0.0000000
 NQMom=    0.0000000   0.0000000   0.0000000   0.0000000   0.0000000   0.0000000   0.0000000   0.0000000   0.0000000   0.0000000
 NMagM=    0.0000000   0.0000000   0.0000000   0.0000000   0.0000000   0.0000000   0.0000000   0.0000000   0.0000000   0.0000000
 AtZNuc=   6.0000000   6.0000000   6.0000000   6.0000000   6.0000000   6.0000000   6.0000000   6.0000000   6.0000000   6.0000000

  Atom        41          42          43          44          45          46          47          48          49          50
 IAtWgt=          12          12          12          12          12          12          12          12          12          12
 AtmWgt=  12.0000000  12.0000000  12.0000000  12.0000000  12.0000000  12.0000000  12.0000000  12.0000000  12.0000000  12.0000000
 NucSpn=           0           0           0           0           0           0           0           0           0           0
 AtZEff=  -0.0000000  -0.0000000  -0.0000000  -0.0000000  -0.0000000  -0.0000000  -0.0000000  -0.0000000  -0.0000000  -0.0000000
 NQMom=    0.0000000   0.0000000   0.0000000   0.0000000   0.0000000   0.0000000   0.0000000   0.0000000   0.0000000   0.0000000
 NMagM=    0.0000000   0.0000000   0.0000000   0.0000000   0.0000000   0.0000000   0.0000000   0.0000000   0.0000000   0.0000000
 AtZNuc=   6.0000000   6.0000000   6.0000000   6.0000000   6.0000000   6.0000000   6.0000000   6.0000000   6.0000000   6.0000000

  Atom        51          52          53          54          55          56          57          58          59          60
 IAtWgt=          12          12          12          12          12          12          12          12          12          12
 AtmWgt=  12.0000000  12.0000000  12.0000000  12.0000000  12.0000000  12.0000000  12.0000000  12.0000000  12.0000000  12.0000000
 NucSpn=           0           0           0           0           0           0           0           0           0           0
 AtZEff=  -0.0000000  -0.0000000  -0.0000000  -0.0000000  -0.0000000  -0.0000000  -0.0000000  -0.0000000  -0.0000000  -0.0000000
 NQMom=    0.0000000   0.0000000   0.0000000   0.0000000   0.0000000   0.0000000   0.0000000   0.0000000   0.0000000   0.0000000
 NMagM=    0.0000000   0.0000000   0.0000000   0.0000000   0.0000000   0.0000000   0.0000000   0.0000000   0.0000000   0.0000000
 AtZNuc=   6.0000000   6.0000000   6.0000000   6.0000000   6.0000000   6.0000000   6.0000000   6.0000000   6.0000000   6.0000000

  Atom        61          62          63          64          65          66          67          68          69          70
 IAtWgt=          12          12          12          12          12          12           1           1           1           1
 AtmWgt=  12.0000000  12.0000000  12.0000000  12.0000000  12.0000000  12.0000000   1.0078250   1.0078250   1.0078250   1.0078250
 NucSpn=           0           0           0           0           0           0           1           1           1           1
 AtZEff=  -0.0000000  -0.0000000  -0.0000000  -0.0000000  -0.0000000  -0.0000000  -0.0000000  -0.0000000  -0.0000000  -0.0000000
 NQMom=    0.0000000   0.0000000   0.0000000   0.0000000   0.0000000   0.0000000   0.0000000   0.0000000   0.0000000   0.0000000
 NMagM=    0.0000000   0.0000000   0.0000000   0.0000000   0.0000000   0.0000000   2.7928460   2.7928460   2.7928460   2.7928460
 AtZNuc=   6.0000000   6.0000000   6.0000000   6.0000000   6.0000000   6.0000000   1.0000000   1.0000000   1.0000000   1.0000000

  Atom        71          72
 IAtWgt=           1           1
 AtmWgt=   1.0078250   1.0078250
 NucSpn=           1           1
 AtZEff=  -0.0000000  -0.0000000
 NQMom=    0.0000000   0.0000000
 NMagM=    2.7928460   2.7928460
 AtZNuc=   1.0000000   1.0000000
 Leave Link  101 at Wed Jul 20 03:14:42 2022, MaxMem=  1342177280 cpu:              26.8 elap:               0.6
 (Enter /home/mkliu/g16/l103.exe)

 GradGradGradGradGradGradGradGradGradGradGradGradGradGradGradGradGradGrad
 Berny optimization.
 Initialization pass.
                           ----------------------------
                           !    Initial Parameters    !
                           ! (Angstroms and Degrees)  !
 --------------------------                            --------------------------
 ! Name  Definition              Value          Derivative Info.                !
 --------------------------------------------------------------------------------
 ! R1    R(1,2)                  1.3895         estimate D2E/DX2                !
 ! R2    R(1,41)                 1.4263         estimate D2E/DX2                !
 ! R3    R(1,65)                 1.4407         estimate D2E/DX2                !
 ! R4    R(2,3)                  1.4343         estimate D2E/DX2                !
 ! R5    R(2,8)                  1.4427         estimate D2E/DX2                !
 ! R6    R(3,4)                  1.3899         estimate D2E/DX2                !
 ! R7    R(3,5)                  1.4254         estimate D2E/DX2                !
 ! R8    R(4,26)                 1.4478         estimate D2E/DX2                !
 ! R9    R(4,39)                 1.428          estimate D2E/DX2                !
 ! R10   R(5,6)                  1.4427         estimate D2E/DX2                !
 ! R11   R(5,13)                 1.3886         estimate D2E/DX2                !
 ! R12   R(6,8)                  1.4416         estimate D2E/DX2                !
 ! R13   R(6,9)                  1.3866         estimate D2E/DX2                !
 ! R14   R(7,10)                 1.5736         estimate D2E/DX2                !
 ! R15   R(7,23)                 1.5177         estimate D2E/DX2                !
 ! R16   R(7,28)                 1.5178         estimate D2E/DX2                !
 ! R17   R(7,67)                 1.095          estimate D2E/DX2                !
 ! R18   R(8,63)                 1.3904         estimate D2E/DX2                !
 ! R19   R(9,11)                 1.4383         estimate D2E/DX2                !
 ! R20   R(9,61)                 1.4428         estimate D2E/DX2                !
 ! R21   R(10,21)                1.5015         estimate D2E/DX2                !
 ! R22   R(10,30)                1.5021         estimate D2E/DX2                !
 ! R23   R(10,68)                1.0917         estimate D2E/DX2                !
 ! R24   R(11,12)                1.3933         estimate D2E/DX2                !
 ! R25   R(11,59)                1.4401         estimate D2E/DX2                !
 ! R26   R(12,13)                1.4312         estimate D2E/DX2                !
 ! R27   R(12,15)                1.4298         estimate D2E/DX2                !
 ! R28   R(13,25)                1.4495         estimate D2E/DX2                !
 ! R29   R(14,16)                1.388          estimate D2E/DX2                !
 ! R30   R(14,45)                1.4485         estimate D2E/DX2                !
 ! R31   R(14,55)                1.4298         estimate D2E/DX2                !
 ! R32   R(15,24)                1.4485         estimate D2E/DX2                !
 ! R33   R(15,57)                1.388          estimate D2E/DX2                !
 ! R34   R(16,17)                1.4219         estimate D2E/DX2                !
 ! R35   R(16,58)                1.4425         estimate D2E/DX2                !
 ! R36   R(17,48)                1.3887         estimate D2E/DX2                !
 ! R37   R(17,56)                1.4293         estimate D2E/DX2                !
 ! R38   R(18,19)                1.4692         estimate D2E/DX2                !
 ! R39   R(18,40)                1.3811         estimate D2E/DX2                !
 ! R40   R(18,47)                1.4447         estimate D2E/DX2                !
 ! R41   R(19,20)                1.3858         estimate D2E/DX2                !
 ! R42   R(19,51)                1.4478         estimate D2E/DX2                !
 ! R43   R(20,45)                1.4732         estimate D2E/DX2                !
 ! R44   R(20,54)                1.4495         estimate D2E/DX2                !
 ! R45   R(21,22)                1.4211         estimate D2E/DX2                !
 ! R46   R(21,50)                1.3705         estimate D2E/DX2                !
 ! R47   R(22,23)                1.4314         estimate D2E/DX2                !
 ! R48   R(22,56)                1.3887         estimate D2E/DX2                !
 ! R49   R(23,24)                1.3786         estimate D2E/DX2                !
 ! R50   R(24,25)                1.4732         estimate D2E/DX2                !
 ! R51   R(25,26)                1.3858         estimate D2E/DX2                !
 ! R52   R(26,27)                1.4692         estimate D2E/DX2                !
 ! R53   R(27,28)                1.3811         estimate D2E/DX2                !
 ! R54   R(27,38)                1.4447         estimate D2E/DX2                !
 ! R55   R(28,29)                1.4211         estimate D2E/DX2                !
 ! R56   R(29,30)                1.4238         estimate D2E/DX2                !
 ! R57   R(29,35)                1.392          estimate D2E/DX2                !
 ! R58   R(30,31)                1.3674         estimate D2E/DX2                !
 ! R59   R(31,32)                1.4238         estimate D2E/DX2                !
 ! R60   R(31,33)                1.5021         estimate D2E/DX2                !
 ! R61   R(32,34)                1.392          estimate D2E/DX2                !
 ! R62   R(32,40)                1.4211         estimate D2E/DX2                !
 ! R63   R(33,37)                1.5736         estimate D2E/DX2                !
 ! R64   R(33,50)                1.5015         estimate D2E/DX2                !
 ! R65   R(33,69)                1.0917         estimate D2E/DX2                !
 ! R66   R(34,35)                1.4269         estimate D2E/DX2                !
 ! R67   R(34,44)                1.4112         estimate D2E/DX2                !
 ! R68   R(35,36)                1.4112         estimate D2E/DX2                !
 ! R69   R(36,38)                1.368          estimate D2E/DX2                !
 ! R70   R(36,43)                1.5222         estimate D2E/DX2                !
 ! R71   R(37,40)                1.5178         estimate D2E/DX2                !
 ! R72   R(37,46)                1.5177         estimate D2E/DX2                !
 ! R73   R(37,70)                1.095          estimate D2E/DX2                !
 ! R74   R(38,39)                1.4468         estimate D2E/DX2                !
 ! R75   R(39,41)                1.3718         estimate D2E/DX2                !
 ! R76   R(41,42)                1.519          estimate D2E/DX2                !
 ! R77   R(42,43)                1.5511         estimate D2E/DX2                !
 ! R78   R(42,66)                1.519          estimate D2E/DX2                !
 ! R79   R(42,72)                1.0958         estimate D2E/DX2                !
 ! R80   R(43,44)                1.5222         estimate D2E/DX2                !
 ! R81   R(43,71)                1.0949         estimate D2E/DX2                !
 ! R82   R(44,47)                1.368          estimate D2E/DX2                !
 ! R83   R(45,46)                1.3786         estimate D2E/DX2                !
 ! R84   R(46,48)                1.4314         estimate D2E/DX2                !
 ! R85   R(47,49)                1.4468         estimate D2E/DX2                !
 ! R86   R(48,50)                1.4211         estimate D2E/DX2                !
 ! R87   R(49,51)                1.428          estimate D2E/DX2                !
 ! R88   R(49,66)                1.3718         estimate D2E/DX2                !
 ! R89   R(51,52)                1.3899         estimate D2E/DX2                !
 ! R90   R(52,53)                1.4254         estimate D2E/DX2                !
 ! R91   R(52,64)                1.4343         estimate D2E/DX2                !
 ! R92   R(53,54)                1.3886         estimate D2E/DX2                !
 ! R93   R(53,62)                1.4427         estimate D2E/DX2                !
 ! R94   R(54,55)                1.4312         estimate D2E/DX2                !
 ! R95   R(55,60)                1.3933         estimate D2E/DX2                !
 ! R96   R(56,57)                1.4219         estimate D2E/DX2                !
 ! R97   R(57,58)                1.4425         estimate D2E/DX2                !
 ! R98   R(58,59)                1.3822         estimate D2E/DX2                !
 ! R99   R(59,60)                1.4401         estimate D2E/DX2                !
 ! R100  R(60,61)                1.4383         estimate D2E/DX2                !
 ! R101  R(61,62)                1.3866         estimate D2E/DX2                !
 ! R102  R(62,63)                1.4416         estimate D2E/DX2                !
 ! R103  R(63,64)                1.4427         estimate D2E/DX2                !
 ! R104  R(64,65)                1.3895         estimate D2E/DX2                !
 ! R105  R(65,66)                1.4263         estimate D2E/DX2                !
 ! A1    A(2,1,41)             120.8479         estimate D2E/DX2                !
 ! A2    A(2,1,65)             119.7057         estimate D2E/DX2                !
 ! A3    A(41,1,65)            107.868          estimate D2E/DX2                !
 ! A4    A(1,2,3)              119.2019         estimate D2E/DX2                !
 ! A5    A(1,2,8)              120.5605         estimate D2E/DX2                !
 ! A6    A(3,2,8)              107.7462         estimate D2E/DX2                !
 ! A7    A(2,3,4)              119.9731         estimate D2E/DX2                !
 ! A8    A(2,3,5)              108.5114         estimate D2E/DX2                !
 ! A9    A(4,3,5)              119.0098         estimate D2E/DX2                !
 ! A10   A(3,4,26)             122.5114         estimate D2E/DX2                !
 ! A11   A(3,4,39)             118.9098         estimate D2E/DX2                !
 ! A12   A(26,4,39)            109.453          estimate D2E/DX2                !
 ! A13   A(3,5,6)              108.196          estimate D2E/DX2                !
 ! A14   A(3,5,13)             118.7057         estimate D2E/DX2                !
 ! A15   A(6,5,13)             120.6687         estimate D2E/DX2                !
 ! A16   A(5,6,8)              107.584          estimate D2E/DX2                !
 ! A17   A(5,6,9)              119.6994         estimate D2E/DX2                !
 ! A18   A(8,6,9)              120.3529         estimate D2E/DX2                !
 ! A19   A(10,7,23)            104.6026         estimate D2E/DX2                !
 ! A20   A(10,7,28)            104.3667         estimate D2E/DX2                !
 ! A21   A(10,7,67)            112.5305         estimate D2E/DX2                !
 ! A22   A(23,7,28)            113.7584         estimate D2E/DX2                !
 ! A23   A(23,7,67)            110.5948         estimate D2E/DX2                !
 ! A24   A(28,7,67)            110.7323         estimate D2E/DX2                !
 ! A25   A(2,8,6)              107.8518         estimate D2E/DX2                !
 ! A26   A(2,8,63)             119.6493         estimate D2E/DX2                !
 ! A27   A(6,8,63)             119.7441         estimate D2E/DX2                !
 ! A28   A(6,9,11)             119.7965         estimate D2E/DX2                !
 ! A29   A(6,9,61)             119.7965         estimate D2E/DX2                !
 ! A30   A(11,9,61)            107.8871         estimate D2E/DX2                !
 ! A31   A(7,10,21)            104.6895         estimate D2E/DX2                !
 ! A32   A(7,10,30)            104.8567         estimate D2E/DX2                !
 ! A33   A(7,10,68)            113.0391         estimate D2E/DX2                !
 ! A34   A(21,10,30)           106.0707         estimate D2E/DX2                !
 ! A35   A(21,10,68)           113.6055         estimate D2E/DX2                !
 ! A36   A(30,10,68)           113.7194         estimate D2E/DX2                !
 ! A37   A(9,11,12)            119.6763         estimate D2E/DX2                !
 ! A38   A(9,11,59)            108.0635         estimate D2E/DX2                !
 ! A39   A(12,11,59)           119.0227         estimate D2E/DX2                !
 ! A40   A(11,12,13)           120.809          estimate D2E/DX2                !
 ! A41   A(11,12,15)           120.8851         estimate D2E/DX2                !
 ! A42   A(13,12,15)           107.6169         estimate D2E/DX2                !
 ! A43   A(5,13,12)            118.7912         estimate D2E/DX2                !
 ! A44   A(5,13,25)            122.7709         estimate D2E/DX2                !
 ! A45   A(12,13,25)           109.0938         estimate D2E/DX2                !
 ! A46   A(16,14,45)           122.1544         estimate D2E/DX2                !
 ! A47   A(16,14,55)           119.2364         estimate D2E/DX2                !
 ! A48   A(45,14,55)           109.6402         estimate D2E/DX2                !
 ! A49   A(12,15,24)           109.6402         estimate D2E/DX2                !
 ! A50   A(12,15,57)           119.2364         estimate D2E/DX2                !
 ! A51   A(24,15,57)           122.1544         estimate D2E/DX2                !
 ! A52   A(14,16,17)           117.8443         estimate D2E/DX2                !
 ! A53   A(14,16,58)           119.6554         estimate D2E/DX2                !
 ! A54   A(17,16,58)           108.4104         estimate D2E/DX2                !
 ! A55   A(16,17,48)           119.8165         estimate D2E/DX2                !
 ! A56   A(16,17,56)           108.087          estimate D2E/DX2                !
 ! A57   A(48,17,56)           118.9383         estimate D2E/DX2                !
 ! A58   A(19,18,40)           129.1151         estimate D2E/DX2                !
 ! A59   A(19,18,47)           106.8952         estimate D2E/DX2                !
 ! A60   A(40,18,47)           118.9014         estimate D2E/DX2                !
 ! A61   A(18,19,20)           127.497          estimate D2E/DX2                !
 ! A62   A(18,19,51)           107.0542         estimate D2E/DX2                !
 ! A63   A(20,19,51)           118.5666         estimate D2E/DX2                !
 ! A64   A(19,20,45)           127.2226         estimate D2E/DX2                !
 ! A65   A(19,20,54)           118.3468         estimate D2E/DX2                !
 ! A66   A(45,20,54)           107.0627         estimate D2E/DX2                !
 ! A67   A(10,21,22)           109.116          estimate D2E/DX2                !
 ! A68   A(10,21,50)           124.0437         estimate D2E/DX2                !
 ! A69   A(22,21,50)           119.5709         estimate D2E/DX2                !
 ! A70   A(21,22,23)           110.2096         estimate D2E/DX2                !
 ! A71   A(21,22,56)           119.6034         estimate D2E/DX2                !
 ! A72   A(23,22,56)           122.0993         estimate D2E/DX2                !
 ! A73   A(7,23,22)            108.6088         estimate D2E/DX2                !
 ! A74   A(7,23,24)            130.2406         estimate D2E/DX2                !
 ! A75   A(22,23,24)           118.3414         estimate D2E/DX2                !
 ! A76   A(15,24,23)           118.8395         estimate D2E/DX2                !
 ! A77   A(15,24,25)           106.4256         estimate D2E/DX2                !
 ! A78   A(23,24,25)           129.3258         estimate D2E/DX2                !
 ! A79   A(13,25,24)           107.0627         estimate D2E/DX2                !
 ! A80   A(13,25,26)           118.3468         estimate D2E/DX2                !
 ! A81   A(24,25,26)           127.2226         estimate D2E/DX2                !
 ! A82   A(4,26,25)            118.5666         estimate D2E/DX2                !
 ! A83   A(4,26,27)            107.0542         estimate D2E/DX2                !
 ! A84   A(25,26,27)           127.497          estimate D2E/DX2                !
 ! A85   A(26,27,28)           129.1151         estimate D2E/DX2                !
 ! A86   A(26,27,38)           106.8952         estimate D2E/DX2                !
 ! A87   A(28,27,38)           118.9014         estimate D2E/DX2                !
 ! A88   A(7,28,27)            130.5603         estimate D2E/DX2                !
 ! A89   A(7,28,29)            108.868          estimate D2E/DX2                !
 ! A90   A(27,28,29)           117.6803         estimate D2E/DX2                !
 ! A91   A(28,29,30)           110.5071         estimate D2E/DX2                !
 ! A92   A(28,29,35)           121.7087         estimate D2E/DX2                !
 ! A93   A(30,29,35)           119.77           estimate D2E/DX2                !
 ! A94   A(10,30,29)           108.7851         estimate D2E/DX2                !
 ! A95   A(10,30,31)           124.102          estimate D2E/DX2                !
 ! A96   A(29,30,31)           119.4964         estimate D2E/DX2                !
 ! A97   A(30,31,32)           119.4964         estimate D2E/DX2                !
 ! A98   A(30,31,33)           124.102          estimate D2E/DX2                !
 ! A99   A(32,31,33)           108.7851         estimate D2E/DX2                !
 ! A100  A(31,32,34)           119.77           estimate D2E/DX2                !
 ! A101  A(31,32,40)           110.5071         estimate D2E/DX2                !
 ! A102  A(34,32,40)           121.7087         estimate D2E/DX2                !
 ! A103  A(31,33,37)           104.8567         estimate D2E/DX2                !
 ! A104  A(31,33,50)           106.0707         estimate D2E/DX2                !
 ! A105  A(31,33,69)           113.7195         estimate D2E/DX2                !
 ! A106  A(37,33,50)           104.6895         estimate D2E/DX2                !
 ! A107  A(37,33,69)           113.0391         estimate D2E/DX2                !
 ! A108  A(50,33,69)           113.6055         estimate D2E/DX2                !
 ! A109  A(32,34,35)           118.8327         estimate D2E/DX2                !
 ! A110  A(32,34,44)           120.7721         estimate D2E/DX2                !
 ! A111  A(35,34,44)           108.0847         estimate D2E/DX2                !
 ! A112  A(29,35,34)           118.8327         estimate D2E/DX2                !
 ! A113  A(29,35,36)           120.7721         estimate D2E/DX2                !
 ! A114  A(34,35,36)           108.0847         estimate D2E/DX2                !
 ! A115  A(35,36,38)           116.8816         estimate D2E/DX2                !
 ! A116  A(35,36,43)           109.7415         estimate D2E/DX2                !
 ! A117  A(38,36,43)           125.3247         estimate D2E/DX2                !
 ! A118  A(33,37,40)           104.3667         estimate D2E/DX2                !
 ! A119  A(33,37,46)           104.6026         estimate D2E/DX2                !
 ! A120  A(33,37,70)           112.5305         estimate D2E/DX2                !
 ! A121  A(40,37,46)           113.7584         estimate D2E/DX2                !
 ! A122  A(40,37,70)           110.7323         estimate D2E/DX2                !
 ! A123  A(46,37,70)           110.5948         estimate D2E/DX2                !
 ! A124  A(27,38,36)           123.052          estimate D2E/DX2                !
 ! A125  A(27,38,39)           109.2018         estimate D2E/DX2                !
 ! A126  A(36,38,39)           119.4573         estimate D2E/DX2                !
 ! A127  A(4,39,38)            107.2405         estimate D2E/DX2                !
 ! A128  A(4,39,41)            121.6294         estimate D2E/DX2                !
 ! A129  A(38,39,41)           120.9126         estimate D2E/DX2                !
 ! A130  A(18,40,32)           117.6803         estimate D2E/DX2                !
 ! A131  A(18,40,37)           130.5603         estimate D2E/DX2                !
 ! A132  A(32,40,37)           108.868          estimate D2E/DX2                !
 ! A133  A(1,41,39)            118.7622         estimate D2E/DX2                !
 ! A134  A(1,41,42)            109.623          estimate D2E/DX2                !
 ! A135  A(39,41,42)           124.3522         estimate D2E/DX2                !
 ! A136  A(41,42,43)           114.884          estimate D2E/DX2                !
 ! A137  A(41,42,66)            99.3385         estimate D2E/DX2                !
 ! A138  A(41,42,72)           109.3877         estimate D2E/DX2                !
 ! A139  A(43,42,66)           114.884          estimate D2E/DX2                !
 ! A140  A(43,42,72)           108.588          estimate D2E/DX2                !
 ! A141  A(66,42,72)           109.3877         estimate D2E/DX2                !
 ! A142  A(36,43,42)           114.7176         estimate D2E/DX2                !
 ! A143  A(36,43,44)            98.3141         estimate D2E/DX2                !
 ! A144  A(36,43,71)           109.8709         estimate D2E/DX2                !
 ! A145  A(42,43,44)           114.7176         estimate D2E/DX2                !
 ! A146  A(42,43,71)           108.9398         estimate D2E/DX2                !
 ! A147  A(44,43,71)           109.8709         estimate D2E/DX2                !
 ! A148  A(34,44,43)           109.7415         estimate D2E/DX2                !
 ! A149  A(34,44,47)           116.8816         estimate D2E/DX2                !
 ! A150  A(43,44,47)           125.3247         estimate D2E/DX2                !
 ! A151  A(14,45,20)           106.4256         estimate D2E/DX2                !
 ! A152  A(14,45,46)           118.8395         estimate D2E/DX2                !
 ! A153  A(20,45,46)           129.3258         estimate D2E/DX2                !
 ! A154  A(37,46,45)           130.2406         estimate D2E/DX2                !
 ! A155  A(37,46,48)           108.6088         estimate D2E/DX2                !
 ! A156  A(45,46,48)           118.3414         estimate D2E/DX2                !
 ! A157  A(18,47,44)           123.052          estimate D2E/DX2                !
 ! A158  A(18,47,49)           109.2018         estimate D2E/DX2                !
 ! A159  A(44,47,49)           119.4573         estimate D2E/DX2                !
 ! A160  A(17,48,46)           122.0993         estimate D2E/DX2                !
 ! A161  A(17,48,50)           119.6034         estimate D2E/DX2                !
 ! A162  A(46,48,50)           110.2096         estimate D2E/DX2                !
 ! A163  A(47,49,51)           107.2405         estimate D2E/DX2                !
 ! A164  A(47,49,66)           120.9126         estimate D2E/DX2                !
 ! A165  A(51,49,66)           121.6294         estimate D2E/DX2                !
 ! A166  A(21,50,33)           124.0437         estimate D2E/DX2                !
 ! A167  A(21,50,48)           119.5709         estimate D2E/DX2                !
 ! A168  A(33,50,48)           109.116          estimate D2E/DX2                !
 ! A169  A(19,51,49)           109.453          estimate D2E/DX2                !
 ! A170  A(19,51,52)           122.5114         estimate D2E/DX2                !
 ! A171  A(49,51,52)           118.9098         estimate D2E/DX2                !
 ! A172  A(51,52,53)           119.0098         estimate D2E/DX2                !
 ! A173  A(51,52,64)           119.9731         estimate D2E/DX2                !
 ! A174  A(53,52,64)           108.5114         estimate D2E/DX2                !
 ! A175  A(52,53,54)           118.7057         estimate D2E/DX2                !
 ! A176  A(52,53,62)           108.196          estimate D2E/DX2                !
 ! A177  A(54,53,62)           120.6687         estimate D2E/DX2                !
 ! A178  A(20,54,53)           122.7709         estimate D2E/DX2                !
 ! A179  A(20,54,55)           109.0938         estimate D2E/DX2                !
 ! A180  A(53,54,55)           118.7912         estimate D2E/DX2                !
 ! A181  A(14,55,54)           107.6169         estimate D2E/DX2                !
 ! A182  A(14,55,60)           120.8851         estimate D2E/DX2                !
 ! A183  A(54,55,60)           120.809          estimate D2E/DX2                !
 ! A184  A(17,56,22)           118.9383         estimate D2E/DX2                !
 ! A185  A(17,56,57)           108.087          estimate D2E/DX2                !
 ! A186  A(22,56,57)           119.8165         estimate D2E/DX2                !
 ! A187  A(15,57,56)           117.8443         estimate D2E/DX2                !
 ! A188  A(15,57,58)           119.6554         estimate D2E/DX2                !
 ! A189  A(56,57,58)           108.4103         estimate D2E/DX2                !
 ! A190  A(16,58,57)           106.536          estimate D2E/DX2                !
 ! A191  A(16,58,59)           120.0705         estimate D2E/DX2                !
 ! A192  A(57,58,59)           120.0705         estimate D2E/DX2                !
 ! A193  A(11,59,58)           120.005          estimate D2E/DX2                !
 ! A194  A(11,59,60)           107.7464         estimate D2E/DX2                !
 ! A195  A(58,59,60)           120.005          estimate D2E/DX2                !
 ! A196  A(55,60,59)           119.0227         estimate D2E/DX2                !
 ! A197  A(55,60,61)           119.6763         estimate D2E/DX2                !
 ! A198  A(59,60,61)           108.0635         estimate D2E/DX2                !
 ! A199  A(9,61,60)            107.8871         estimate D2E/DX2                !
 ! A200  A(9,61,62)            119.7965         estimate D2E/DX2                !
 ! A201  A(60,61,62)           119.7965         estimate D2E/DX2                !
 ! A202  A(53,62,61)           119.6994         estimate D2E/DX2                !
 ! A203  A(53,62,63)           107.584          estimate D2E/DX2                !
 ! A204  A(61,62,63)           120.3529         estimate D2E/DX2                !
 ! A205  A(8,63,62)            119.7441         estimate D2E/DX2                !
 ! A206  A(8,63,64)            119.6493         estimate D2E/DX2                !
 ! A207  A(62,63,64)           107.8518         estimate D2E/DX2                !
 ! A208  A(52,64,63)           107.7462         estimate D2E/DX2                !
 ! A209  A(52,64,65)           119.2019         estimate D2E/DX2                !
 ! A210  A(63,64,65)           120.5605         estimate D2E/DX2                !
 ! A211  A(1,65,64)            119.7057         estimate D2E/DX2                !
 ! A212  A(1,65,66)            107.868          estimate D2E/DX2                !
 ! A213  A(64,65,66)           120.8479         estimate D2E/DX2                !
 ! A214  A(42,66,49)           124.3522         estimate D2E/DX2                !
 ! A215  A(42,66,65)           109.623          estimate D2E/DX2                !
 ! A216  A(49,66,65)           118.7622         estimate D2E/DX2                !
 ! D1    D(41,1,2,3)            -4.7828         estimate D2E/DX2                !
 ! D2    D(41,1,2,8)          -142.1353         estimate D2E/DX2                !
 ! D3    D(65,1,2,3)           133.9986         estimate D2E/DX2                !
 ! D4    D(65,1,2,8)            -3.3539         estimate D2E/DX2                !
 ! D5    D(2,1,41,39)            6.6445         estimate D2E/DX2                !
 ! D6    D(2,1,41,42)          158.1767         estimate D2E/DX2                !
 ! D7    D(65,1,41,39)        -136.3893         estimate D2E/DX2                !
 ! D8    D(65,1,41,42)          15.1429         estimate D2E/DX2                !
 ! D9    D(2,1,65,64)            0.0            estimate D2E/DX2                !
 ! D10   D(2,1,65,66)         -143.5312         estimate D2E/DX2                !
 ! D11   D(41,1,65,64)         143.5312         estimate D2E/DX2                !
 ! D12   D(41,1,65,66)           0.0            estimate D2E/DX2                !
 ! D13   D(1,2,3,4)             -2.6801         estimate D2E/DX2                !
 ! D14   D(1,2,3,5)           -144.2598         estimate D2E/DX2                !
 ! D15   D(8,2,3,4)            139.5476         estimate D2E/DX2                !
 ! D16   D(8,2,3,5)             -2.0321         estimate D2E/DX2                !
 ! D17   D(1,2,8,6)            144.8945         estimate D2E/DX2                !
 ! D18   D(1,2,8,63)             3.352          estimate D2E/DX2                !
 ! D19   D(3,2,8,6)              3.2785         estimate D2E/DX2                !
 ! D20   D(3,2,8,63)          -138.2641         estimate D2E/DX2                !
 ! D21   D(2,3,4,26)          -135.3757         estimate D2E/DX2                !
 ! D22   D(2,3,4,39)             8.0536         estimate D2E/DX2                !
 ! D23   D(5,3,4,26)             2.2623         estimate D2E/DX2                !
 ! D24   D(5,3,4,39)           145.6916         estimate D2E/DX2                !
 ! D25   D(2,3,5,6)              0.0013         estimate D2E/DX2                !
 ! D26   D(2,3,5,13)           142.3893         estimate D2E/DX2                !
 ! D27   D(4,3,5,6)           -142.0072         estimate D2E/DX2                !
 ! D28   D(4,3,5,13)             0.3808         estimate D2E/DX2                !
 ! D29   D(3,4,26,25)           -2.7029         estimate D2E/DX2                !
 ! D30   D(3,4,26,27)          150.4222         estimate D2E/DX2                !
 ! D31   D(39,4,26,25)        -149.1201         estimate D2E/DX2                !
 ! D32   D(39,4,26,27)           4.005          estimate D2E/DX2                !
 ! D33   D(3,4,39,38)         -151.608          estimate D2E/DX2                !
 ! D34   D(3,4,39,41)           -6.2347         estimate D2E/DX2                !
 ! D35   D(26,4,39,38)          -3.8069         estimate D2E/DX2                !
 ! D36   D(26,4,39,41)         141.5664         estimate D2E/DX2                !
 ! D37   D(3,5,6,8)              2.0298         estimate D2E/DX2                !
 ! D38   D(3,5,6,9)            144.3105         estimate D2E/DX2                !
 ! D39   D(13,5,6,8)          -139.4823         estimate D2E/DX2                !
 ! D40   D(13,5,6,9)             2.7984         estimate D2E/DX2                !
 ! D41   D(3,5,13,12)         -145.5074         estimate D2E/DX2                !
 ! D42   D(3,5,13,25)           -2.5985         estimate D2E/DX2                !
 ! D43   D(6,5,13,12)           -7.8896         estimate D2E/DX2                !
 ! D44   D(6,5,13,25)          135.0193         estimate D2E/DX2                !
 ! D45   D(5,6,8,2)             -3.271          estimate D2E/DX2                !
 ! D46   D(5,6,8,63)           138.2286         estimate D2E/DX2                !
 ! D47   D(9,6,8,2)           -145.258          estimate D2E/DX2                !
 ! D48   D(9,6,8,63)            -3.7584         estimate D2E/DX2                !
 ! D49   D(5,6,9,11)             3.6512         estimate D2E/DX2                !
 ! D50   D(5,6,9,61)          -133.7197         estimate D2E/DX2                !
 ! D51   D(8,6,9,11)           141.1313         estimate D2E/DX2                !
 ! D52   D(8,6,9,61)             3.7604         estimate D2E/DX2                !
 ! D53   D(23,7,10,21)           4.3256         estimate D2E/DX2                !
 ! D54   D(23,7,10,30)         115.7712         estimate D2E/DX2                !
 ! D55   D(23,7,10,68)        -119.8225         estimate D2E/DX2                !
 ! D56   D(28,7,10,21)        -115.4431         estimate D2E/DX2                !
 ! D57   D(28,7,10,30)          -3.9975         estimate D2E/DX2                !
 ! D58   D(28,7,10,68)         120.4088         estimate D2E/DX2                !
 ! D59   D(67,7,10,21)         124.4324         estimate D2E/DX2                !
 ! D60   D(67,7,10,30)        -124.1221         estimate D2E/DX2                !
 ! D61   D(67,7,10,68)           0.2842         estimate D2E/DX2                !
 ! D62   D(10,7,23,22)           5.8584         estimate D2E/DX2                !
 ! D63   D(10,7,23,24)        -154.3891         estimate D2E/DX2                !
 ! D64   D(28,7,23,22)         119.114          estimate D2E/DX2                !
 ! D65   D(28,7,23,24)         -41.1335         estimate D2E/DX2                !
 ! D66   D(67,7,23,22)        -115.5341         estimate D2E/DX2                !
 ! D67   D(67,7,23,24)          84.2183         estimate D2E/DX2                !
 ! D68   D(10,7,28,27)         153.8927         estimate D2E/DX2                !
 ! D69   D(10,7,28,29)          -5.9395         estimate D2E/DX2                !
 ! D70   D(23,7,28,27)          40.4958         estimate D2E/DX2                !
 ! D71   D(23,7,28,29)        -119.3364         estimate D2E/DX2                !
 ! D72   D(67,7,28,27)         -84.7828         estimate D2E/DX2                !
 ! D73   D(67,7,28,29)         115.385          estimate D2E/DX2                !
 ! D74   D(2,8,63,62)          137.0141         estimate D2E/DX2                !
 ! D75   D(2,8,63,64)            0.0            estimate D2E/DX2                !
 ! D76   D(6,8,63,62)            0.0            estimate D2E/DX2                !
 ! D77   D(6,8,63,64)         -137.0141         estimate D2E/DX2                !
 ! D78   D(6,9,11,12)           -4.8437         estimate D2E/DX2                !
 ! D79   D(6,9,11,59)         -145.4856         estimate D2E/DX2                !
 ! D80   D(61,9,11,12)         137.0177         estimate D2E/DX2                !
 ! D81   D(61,9,11,59)          -3.6242         estimate D2E/DX2                !
 ! D82   D(6,9,61,60)          141.8614         estimate D2E/DX2                !
 ! D83   D(6,9,61,62)            0.0            estimate D2E/DX2                !
 ! D84   D(11,9,61,60)           0.0            estimate D2E/DX2                !
 ! D85   D(11,9,61,62)        -141.8614         estimate D2E/DX2                !
 ! D86   D(7,10,21,22)         -13.2538         estimate D2E/DX2                !
 ! D87   D(7,10,21,50)         136.5717         estimate D2E/DX2                !
 ! D88   D(30,10,21,22)       -123.8248         estimate D2E/DX2                !
 ! D89   D(30,10,21,50)         26.0007         estimate D2E/DX2                !
 ! D90   D(68,10,21,22)        110.5319         estimate D2E/DX2                !
 ! D91   D(68,10,21,50)        -99.6426         estimate D2E/DX2                !
 ! D92   D(7,10,30,29)          12.6625         estimate D2E/DX2                !
 ! D93   D(7,10,30,31)        -136.4731         estimate D2E/DX2                !
 ! D94   D(21,10,30,29)        123.1156         estimate D2E/DX2                !
 ! D95   D(21,10,30,31)        -26.02           estimate D2E/DX2                !
 ! D96   D(68,10,30,29)       -111.3108         estimate D2E/DX2                !
 ! D97   D(68,10,30,31)         99.5536         estimate D2E/DX2                !
 ! D98   D(9,11,12,13)          -0.3475         estimate D2E/DX2                !
 ! D99   D(9,11,12,15)        -140.4588         estimate D2E/DX2                !
 ! D100  D(59,11,12,13)        136.0627         estimate D2E/DX2                !
 ! D101  D(59,11,12,15)         -4.0486         estimate D2E/DX2                !
 ! D102  D(9,11,59,58)         148.1473         estimate D2E/DX2                !
 ! D103  D(9,11,59,60)           5.8563         estimate D2E/DX2                !
 ! D104  D(12,11,59,58)          7.2055         estimate D2E/DX2                !
 ! D105  D(12,11,59,60)       -135.0855         estimate D2E/DX2                !
 ! D106  D(11,12,13,5)           6.6835         estimate D2E/DX2                !
 ! D107  D(11,12,13,25)       -140.8626         estimate D2E/DX2                !
 ! D108  D(15,12,13,5)         151.4126         estimate D2E/DX2                !
 ! D109  D(15,12,13,25)          3.8666         estimate D2E/DX2                !
 ! D110  D(11,12,15,24)        142.542          estimate D2E/DX2                !
 ! D111  D(11,12,15,57)         -5.3793         estimate D2E/DX2                !
 ! D112  D(13,12,15,24)         -2.155          estimate D2E/DX2                !
 ! D113  D(13,12,15,57)       -150.0763         estimate D2E/DX2                !
 ! D114  D(5,13,25,24)        -150.0571         estimate D2E/DX2                !
 ! D115  D(5,13,25,26)           2.141          estimate D2E/DX2                !
 ! D116  D(12,13,25,24)         -4.0646         estimate D2E/DX2                !
 ! D117  D(12,13,25,26)        148.1334         estimate D2E/DX2                !
 ! D118  D(45,14,16,17)         -3.1786         estimate D2E/DX2                !
 ! D119  D(45,14,16,58)        132.1996         estimate D2E/DX2                !
 ! D120  D(55,14,16,17)       -146.9644         estimate D2E/DX2                !
 ! D121  D(55,14,16,58)        -11.5861         estimate D2E/DX2                !
 ! D122  D(16,14,45,20)       -146.4688         estimate D2E/DX2                !
 ! D123  D(16,14,45,46)          9.9611         estimate D2E/DX2                !
 ! D124  D(55,14,45,20)          0.343          estimate D2E/DX2                !
 ! D125  D(55,14,45,46)        156.7729         estimate D2E/DX2                !
 ! D126  D(16,14,55,54)        150.0763         estimate D2E/DX2                !
 ! D127  D(16,14,55,60)          5.3793         estimate D2E/DX2                !
 ! D128  D(45,14,55,54)          2.155          estimate D2E/DX2                !
 ! D129  D(45,14,55,60)       -142.542          estimate D2E/DX2                !
 ! D130  D(12,15,24,23)       -156.7729         estimate D2E/DX2                !
 ! D131  D(12,15,24,25)         -0.343          estimate D2E/DX2                !
 ! D132  D(57,15,24,23)         -9.9612         estimate D2E/DX2                !
 ! D133  D(57,15,24,25)        146.4688         estimate D2E/DX2                !
 ! D134  D(12,15,57,56)        146.9643         estimate D2E/DX2                !
 ! D135  D(12,15,57,58)         11.5861         estimate D2E/DX2                !
 ! D136  D(24,15,57,56)          3.1786         estimate D2E/DX2                !
 ! D137  D(24,15,57,58)       -132.1996         estimate D2E/DX2                !
 ! D138  D(14,16,17,48)         -4.961          estimate D2E/DX2                !
 ! D139  D(14,16,17,56)        135.7403         estimate D2E/DX2                !
 ! D140  D(58,16,17,48)       -144.9192         estimate D2E/DX2                !
 ! D141  D(58,16,17,56)         -4.218          estimate D2E/DX2                !
 ! D142  D(14,16,58,57)       -132.3972         estimate D2E/DX2                !
 ! D143  D(14,16,58,59)          8.487          estimate D2E/DX2                !
 ! D144  D(17,16,58,57)          6.7135         estimate D2E/DX2                !
 ! D145  D(17,16,58,59)        147.5977         estimate D2E/DX2                !
 ! D146  D(16,17,48,46)          6.5974         estimate D2E/DX2                !
 ! D147  D(16,17,48,50)        152.2278         estimate D2E/DX2                !
 ! D148  D(56,17,48,46)       -129.9332         estimate D2E/DX2                !
 ! D149  D(56,17,48,50)         15.6972         estimate D2E/DX2                !
 ! D150  D(16,17,56,22)       -141.103          estimate D2E/DX2                !
 ! D151  D(16,17,56,57)          0.0            estimate D2E/DX2                !
 ! D152  D(48,17,56,22)          0.0            estimate D2E/DX2                !
 ! D153  D(48,17,56,57)        141.103          estimate D2E/DX2                !
 ! D154  D(40,18,19,20)          6.5253         estimate D2E/DX2                !
 ! D155  D(40,18,19,51)        156.4987         estimate D2E/DX2                !
 ! D156  D(47,18,19,20)       -147.3681         estimate D2E/DX2                !
 ! D157  D(47,18,19,51)          2.6053         estimate D2E/DX2                !
 ! D158  D(19,18,40,32)       -142.7937         estimate D2E/DX2                !
 ! D159  D(19,18,40,37)         15.5888         estimate D2E/DX2                !
 ! D160  D(47,18,40,32)          8.4588         estimate D2E/DX2                !
 ! D161  D(47,18,40,37)        166.8413         estimate D2E/DX2                !
 ! D162  D(19,18,47,44)        147.6681         estimate D2E/DX2                !
 ! D163  D(19,18,47,49)         -0.3164         estimate D2E/DX2                !
 ! D164  D(40,18,47,44)         -9.3778         estimate D2E/DX2                !
 ! D165  D(40,18,47,49)       -157.3624         estimate D2E/DX2                !
 ! D166  D(18,19,20,45)          0.5519         estimate D2E/DX2                !
 ! D167  D(18,19,20,54)        146.4991         estimate D2E/DX2                !
 ! D168  D(51,19,20,45)       -146.4433         estimate D2E/DX2                !
 ! D169  D(51,19,20,54)         -0.496          estimate D2E/DX2                !
 ! D170  D(18,19,51,49)         -4.005          estimate D2E/DX2                !
 ! D171  D(18,19,51,52)       -150.4223         estimate D2E/DX2                !
 ! D172  D(20,19,51,49)        149.1202         estimate D2E/DX2                !
 ! D173  D(20,19,51,52)          2.7029         estimate D2E/DX2                !
 ! D174  D(19,20,45,14)        146.2994         estimate D2E/DX2                !
 ! D175  D(19,20,45,46)         -6.7763         estimate D2E/DX2                !
 ! D176  D(54,20,45,14)         -2.6696         estimate D2E/DX2                !
 ! D177  D(54,20,45,46)       -155.7453         estimate D2E/DX2                !
 ! D178  D(19,20,54,53)         -2.1409         estimate D2E/DX2                !
 ! D179  D(19,20,54,55)       -148.1334         estimate D2E/DX2                !
 ! D180  D(45,20,54,53)        150.0571         estimate D2E/DX2                !
 ! D181  D(45,20,54,55)          4.0646         estimate D2E/DX2                !
 ! D182  D(10,21,22,23)         17.8233         estimate D2E/DX2                !
 ! D183  D(10,21,22,56)        167.1859         estimate D2E/DX2                !
 ! D184  D(50,21,22,23)       -133.5656         estimate D2E/DX2                !
 ! D185  D(50,21,22,56)         15.7971         estimate D2E/DX2                !
 ! D186  D(10,21,50,33)          0.0            estimate D2E/DX2                !
 ! D187  D(10,21,50,48)       -146.904          estimate D2E/DX2                !
 ! D188  D(22,21,50,33)        146.904          estimate D2E/DX2                !
 ! D189  D(22,21,50,48)          0.0            estimate D2E/DX2                !
 ! D190  D(21,22,23,7)         -14.7386         estimate D2E/DX2                !
 ! D191  D(21,22,23,24)        148.2172         estimate D2E/DX2                !
 ! D192  D(56,22,23,7)        -163.2023         estimate D2E/DX2                !
 ! D193  D(56,22,23,24)         -0.2465         estimate D2E/DX2                !
 ! D194  D(21,22,56,17)        -15.6972         estimate D2E/DX2                !
 ! D195  D(21,22,56,57)       -152.2278         estimate D2E/DX2                !
 ! D196  D(23,22,56,17)        129.9332         estimate D2E/DX2                !
 ! D197  D(23,22,56,57)         -6.5974         estimate D2E/DX2                !
 ! D198  D(7,23,24,15)         166.8706         estimate D2E/DX2                !
 ! D199  D(7,23,24,25)          16.5949         estimate D2E/DX2                !
 ! D200  D(22,23,24,15)          8.2111         estimate D2E/DX2                !
 ! D201  D(22,23,24,25)       -142.0646         estimate D2E/DX2                !
 ! D202  D(15,24,25,13)          2.6696         estimate D2E/DX2                !
 ! D203  D(15,24,25,26)       -146.2995         estimate D2E/DX2                !
 ! D204  D(23,24,25,13)        155.7453         estimate D2E/DX2                !
 ! D205  D(23,24,25,26)          6.7763         estimate D2E/DX2                !
 ! D206  D(13,25,26,4)           0.496          estimate D2E/DX2                !
 ! D207  D(13,25,26,27)       -146.4991         estimate D2E/DX2                !
 ! D208  D(24,25,26,4)         146.4433         estimate D2E/DX2                !
 ! D209  D(24,25,26,27)         -0.5518         estimate D2E/DX2                !
 ! D210  D(4,26,27,28)        -156.4987         estimate D2E/DX2                !
 ! D211  D(4,26,27,38)          -2.6052         estimate D2E/DX2                !
 ! D212  D(25,26,27,28)         -6.5253         estimate D2E/DX2                !
 ! D213  D(25,26,27,38)        147.3681         estimate D2E/DX2                !
 ! D214  D(26,27,28,7)         -15.5888         estimate D2E/DX2                !
 ! D215  D(26,27,28,29)        142.7938         estimate D2E/DX2                !
 ! D216  D(38,27,28,7)        -166.8413         estimate D2E/DX2                !
 ! D217  D(38,27,28,29)         -8.4588         estimate D2E/DX2                !
 ! D218  D(26,27,38,36)       -147.6681         estimate D2E/DX2                !
 ! D219  D(26,27,38,39)          0.3164         estimate D2E/DX2                !
 ! D220  D(28,27,38,36)          9.3778         estimate D2E/DX2                !
 ! D221  D(28,27,38,39)        157.3624         estimate D2E/DX2                !
 ! D222  D(7,28,29,30)          14.5133         estimate D2E/DX2                !
 ! D223  D(7,28,29,35)         163.1856         estimate D2E/DX2                !
 ! D224  D(27,28,29,30)       -148.2823         estimate D2E/DX2                !
 ! D225  D(27,28,29,35)          0.39           estimate D2E/DX2                !
 ! D226  D(28,29,30,10)        -17.2918         estimate D2E/DX2                !
 ! D227  D(28,29,30,31)        133.4957         estimate D2E/DX2                !
 ! D228  D(35,29,30,10)       -166.6565         estimate D2E/DX2                !
 ! D229  D(35,29,30,31)        -15.8689         estimate D2E/DX2                !
 ! D230  D(28,29,35,34)       -130.1094         estimate D2E/DX2                !
 ! D231  D(28,29,35,36)          7.6404         estimate D2E/DX2                !
 ! D232  D(30,29,35,34)         15.764          estimate D2E/DX2                !
 ! D233  D(30,29,35,36)        153.5137         estimate D2E/DX2                !
 ! D234  D(10,30,31,32)        146.0819         estimate D2E/DX2                !
 ! D235  D(10,30,31,33)          0.0            estimate D2E/DX2                !
 ! D236  D(29,30,31,32)          0.0            estimate D2E/DX2                !
 ! D237  D(29,30,31,33)       -146.0819         estimate D2E/DX2                !
 ! D238  D(30,31,32,34)         15.8689         estimate D2E/DX2                !
 ! D239  D(30,31,32,40)       -133.4957         estimate D2E/DX2                !
 ! D240  D(33,31,32,34)        166.6565         estimate D2E/DX2                !
 ! D241  D(33,31,32,40)         17.2918         estimate D2E/DX2                !
 ! D242  D(30,31,33,37)        136.473          estimate D2E/DX2                !
 ! D243  D(30,31,33,50)         26.02           estimate D2E/DX2                !
 ! D244  D(30,31,33,69)        -99.5536         estimate D2E/DX2                !
 ! D245  D(32,31,33,37)        -12.6625         estimate D2E/DX2                !
 ! D246  D(32,31,33,50)       -123.1156         estimate D2E/DX2                !
 ! D247  D(32,31,33,69)        111.3108         estimate D2E/DX2                !
 ! D248  D(31,32,34,35)        -15.764          estimate D2E/DX2                !
 ! D249  D(31,32,34,44)       -153.5137         estimate D2E/DX2                !
 ! D250  D(40,32,34,35)        130.1094         estimate D2E/DX2                !
 ! D251  D(40,32,34,44)         -7.6403         estimate D2E/DX2                !
 ! D252  D(31,32,40,18)        148.2823         estimate D2E/DX2                !
 ! D253  D(31,32,40,37)        -14.5133         estimate D2E/DX2                !
 ! D254  D(34,32,40,18)         -0.39           estimate D2E/DX2                !
 ! D255  D(34,32,40,37)       -163.1856         estimate D2E/DX2                !
 ! D256  D(31,33,37,40)          3.9975         estimate D2E/DX2                !
 ! D257  D(31,33,37,46)       -115.7712         estimate D2E/DX2                !
 ! D258  D(31,33,37,70)        124.1221         estimate D2E/DX2                !
 ! D259  D(50,33,37,40)        115.4431         estimate D2E/DX2                !
 ! D260  D(50,33,37,46)         -4.3256         estimate D2E/DX2                !
 ! D261  D(50,33,37,70)       -124.4324         estimate D2E/DX2                !
 ! D262  D(69,33,37,40)       -120.4088         estimate D2E/DX2                !
 ! D263  D(69,33,37,46)        119.8225         estimate D2E/DX2                !
 ! D264  D(69,33,37,70)         -0.2842         estimate D2E/DX2                !
 ! D265  D(31,33,50,21)        -26.0007         estimate D2E/DX2                !
 ! D266  D(31,33,50,48)        123.8248         estimate D2E/DX2                !
 ! D267  D(37,33,50,21)       -136.5717         estimate D2E/DX2                !
 ! D268  D(37,33,50,48)         13.2538         estimate D2E/DX2                !
 ! D269  D(69,33,50,21)         99.6426         estimate D2E/DX2                !
 ! D270  D(69,33,50,48)       -110.5319         estimate D2E/DX2                !
 ! D271  D(32,34,35,29)          0.0            estimate D2E/DX2                !
 ! D272  D(32,34,35,36)       -142.5745         estimate D2E/DX2                !
 ! D273  D(44,34,35,29)        142.5745         estimate D2E/DX2                !
 ! D274  D(44,34,35,36)          0.0            estimate D2E/DX2                !
 ! D275  D(32,34,44,43)        157.4084         estimate D2E/DX2                !
 ! D276  D(32,34,44,47)          6.8732         estimate D2E/DX2                !
 ! D277  D(35,34,44,43)         15.6974         estimate D2E/DX2                !
 ! D278  D(35,34,44,47)       -134.8378         estimate D2E/DX2                !
 ! D279  D(29,35,36,38)         -6.8732         estimate D2E/DX2                !
 ! D280  D(29,35,36,43)       -157.4084         estimate D2E/DX2                !
 ! D281  D(34,35,36,38)        134.8378         estimate D2E/DX2                !
 ! D282  D(34,35,36,43)        -15.6974         estimate D2E/DX2                !
 ! D283  D(35,36,38,27)         -1.4969         estimate D2E/DX2                !
 ! D284  D(35,36,38,39)       -146.3981         estimate D2E/DX2                !
 ! D285  D(43,36,38,27)        143.9303         estimate D2E/DX2                !
 ! D286  D(43,36,38,39)         -0.9709         estimate D2E/DX2                !
 ! D287  D(35,36,43,42)        145.331          estimate D2E/DX2                !
 ! D288  D(35,36,43,44)         23.1578         estimate D2E/DX2                !
 ! D289  D(35,36,43,71)        -91.5553         estimate D2E/DX2                !
 ! D290  D(38,36,43,42)         -2.1391         estimate D2E/DX2                !
 ! D291  D(38,36,43,44)       -124.3122         estimate D2E/DX2                !
 ! D292  D(38,36,43,71)        120.9747         estimate D2E/DX2                !
 ! D293  D(33,37,40,18)       -153.8927         estimate D2E/DX2                !
 ! D294  D(33,37,40,32)          5.9395         estimate D2E/DX2                !
 ! D295  D(46,37,40,18)        -40.4958         estimate D2E/DX2                !
 ! D296  D(46,37,40,32)        119.3364         estimate D2E/DX2                !
 ! D297  D(70,37,40,18)         84.7829         estimate D2E/DX2                !
 ! D298  D(70,37,40,32)       -115.385          estimate D2E/DX2                !
 ! D299  D(33,37,46,45)        154.3891         estimate D2E/DX2                !
 ! D300  D(33,37,46,48)         -5.8584         estimate D2E/DX2                !
 ! D301  D(40,37,46,45)         41.1335         estimate D2E/DX2                !
 ! D302  D(40,37,46,48)       -119.114          estimate D2E/DX2                !
 ! D303  D(70,37,46,45)        -84.2183         estimate D2E/DX2                !
 ! D304  D(70,37,46,48)        115.5341         estimate D2E/DX2                !
 ! D305  D(27,38,39,4)           2.1301         estimate D2E/DX2                !
 ! D306  D(27,38,39,41)       -143.5421         estimate D2E/DX2                !
 ! D307  D(36,38,39,4)         151.4442         estimate D2E/DX2                !
 ! D308  D(36,38,39,41)          5.7719         estimate D2E/DX2                !
 ! D309  D(4,39,41,1)           -1.0827         estimate D2E/DX2                !
 ! D310  D(4,39,41,42)        -148.1376         estimate D2E/DX2                !
 ! D311  D(38,39,41,1)         139.6789         estimate D2E/DX2                !
 ! D312  D(38,39,41,42)         -7.376          estimate D2E/DX2                !
 ! D313  D(1,41,42,43)        -145.7087         estimate D2E/DX2                !
 ! D314  D(1,41,42,66)         -22.5915         estimate D2E/DX2                !
 ! D315  D(1,41,42,72)          91.8971         estimate D2E/DX2                !
 ! D316  D(39,41,42,43)          3.8847         estimate D2E/DX2                !
 ! D317  D(39,41,42,66)        127.0018         estimate D2E/DX2                !
 ! D318  D(39,41,42,72)       -118.5095         estimate D2E/DX2                !
 ! D319  D(41,42,43,36)          0.7875         estimate D2E/DX2                !
 ! D320  D(41,42,43,44)        113.5639         estimate D2E/DX2                !
 ! D321  D(41,42,43,71)       -122.8243         estimate D2E/DX2                !
 ! D322  D(66,42,43,36)       -113.5639         estimate D2E/DX2                !
 ! D323  D(66,42,43,44)         -0.7875         estimate D2E/DX2                !
 ! D324  D(66,42,43,71)        122.8243         estimate D2E/DX2                !
 ! D325  D(72,42,43,36)        123.6118         estimate D2E/DX2                !
 ! D326  D(72,42,43,44)       -123.6118         estimate D2E/DX2                !
 ! D327  D(72,42,43,71)          0.0            estimate D2E/DX2                !
 ! D328  D(41,42,66,49)       -127.0018         estimate D2E/DX2                !
 ! D329  D(41,42,66,65)         22.5915         estimate D2E/DX2                !
 ! D330  D(43,42,66,49)         -3.8846         estimate D2E/DX2                !
 ! D331  D(43,42,66,65)        145.7087         estimate D2E/DX2                !
 ! D332  D(72,42,66,49)        118.5095         estimate D2E/DX2                !
 ! D333  D(72,42,66,65)        -91.8971         estimate D2E/DX2                !
 ! D334  D(36,43,44,34)        -23.1578         estimate D2E/DX2                !
 ! D335  D(36,43,44,47)        124.3122         estimate D2E/DX2                !
 ! D336  D(42,43,44,34)       -145.331          estimate D2E/DX2                !
 ! D337  D(42,43,44,47)          2.1391         estimate D2E/DX2                !
 ! D338  D(71,43,44,34)         91.5553         estimate D2E/DX2                !
 ! D339  D(71,43,44,47)       -120.9747         estimate D2E/DX2                !
 ! D340  D(34,44,47,18)          1.4969         estimate D2E/DX2                !
 ! D341  D(34,44,47,49)        146.3981         estimate D2E/DX2                !
 ! D342  D(43,44,47,18)       -143.9303         estimate D2E/DX2                !
 ! D343  D(43,44,47,49)          0.9709         estimate D2E/DX2                !
 ! D344  D(14,45,46,37)       -166.8706         estimate D2E/DX2                !
 ! D345  D(14,45,46,48)         -8.211          estimate D2E/DX2                !
 ! D346  D(20,45,46,37)        -16.5949         estimate D2E/DX2                !
 ! D347  D(20,45,46,48)        142.0646         estimate D2E/DX2                !
 ! D348  D(37,46,48,17)        163.2023         estimate D2E/DX2                !
 ! D349  D(37,46,48,50)         14.7386         estimate D2E/DX2                !
 ! D350  D(45,46,48,17)          0.2465         estimate D2E/DX2                !
 ! D351  D(45,46,48,50)       -148.2172         estimate D2E/DX2                !
 ! D352  D(18,47,49,51)         -2.1301         estimate D2E/DX2                !
 ! D353  D(18,47,49,66)        143.5421         estimate D2E/DX2                !
 ! D354  D(44,47,49,51)       -151.4442         estimate D2E/DX2                !
 ! D355  D(44,47,49,66)         -5.7719         estimate D2E/DX2                !
 ! D356  D(17,48,50,21)        -15.7971         estimate D2E/DX2                !
 ! D357  D(17,48,50,33)       -167.1859         estimate D2E/DX2                !
 ! D358  D(46,48,50,21)        133.5656         estimate D2E/DX2                !
 ! D359  D(46,48,50,33)        -17.8233         estimate D2E/DX2                !
 ! D360  D(47,49,51,19)          3.8068         estimate D2E/DX2                !
 ! D361  D(47,49,51,52)        151.608          estimate D2E/DX2                !
 ! D362  D(66,49,51,19)       -141.5665         estimate D2E/DX2                !
 ! D363  D(66,49,51,52)          6.2347         estimate D2E/DX2                !
 ! D364  D(47,49,66,42)          7.376          estimate D2E/DX2                !
 ! D365  D(47,49,66,65)       -139.6789         estimate D2E/DX2                !
 ! D366  D(51,49,66,42)        148.1376         estimate D2E/DX2                !
 ! D367  D(51,49,66,65)          1.0827         estimate D2E/DX2                !
 ! D368  D(19,51,52,53)         -2.2623         estimate D2E/DX2                !
 ! D369  D(19,51,52,64)        135.3757         estimate D2E/DX2                !
 ! D370  D(49,51,52,53)       -145.6916         estimate D2E/DX2                !
 ! D371  D(49,51,52,64)         -8.0536         estimate D2E/DX2                !
 ! D372  D(51,52,53,54)         -0.3808         estimate D2E/DX2                !
 ! D373  D(51,52,53,62)        142.0072         estimate D2E/DX2                !
 ! D374  D(64,52,53,54)       -142.3893         estimate D2E/DX2                !
 ! D375  D(64,52,53,62)         -0.0013         estimate D2E/DX2                !
 ! D376  D(51,52,64,63)       -139.5476         estimate D2E/DX2                !
 ! D377  D(51,52,64,65)          2.6801         estimate D2E/DX2                !
 ! D378  D(53,52,64,63)          2.0321         estimate D2E/DX2                !
 ! D379  D(53,52,64,65)        144.2598         estimate D2E/DX2                !
 ! D380  D(52,53,54,20)          2.5985         estimate D2E/DX2                !
 ! D381  D(52,53,54,55)        145.5073         estimate D2E/DX2                !
 ! D382  D(62,53,54,20)       -135.0193         estimate D2E/DX2                !
 ! D383  D(62,53,54,55)          7.8896         estimate D2E/DX2                !
 ! D384  D(52,53,62,61)       -144.3105         estimate D2E/DX2                !
 ! D385  D(52,53,62,63)         -2.0298         estimate D2E/DX2                !
 ! D386  D(54,53,62,61)         -2.7984         estimate D2E/DX2                !
 ! D387  D(54,53,62,63)        139.4823         estimate D2E/DX2                !
 ! D388  D(20,54,55,14)         -3.8666         estimate D2E/DX2                !
 ! D389  D(20,54,55,60)        140.8626         estimate D2E/DX2                !
 ! D390  D(53,54,55,14)       -151.4127         estimate D2E/DX2                !
 ! D391  D(53,54,55,60)         -6.6835         estimate D2E/DX2                !
 ! D392  D(14,55,60,59)          4.0486         estimate D2E/DX2                !
 ! D393  D(14,55,60,61)        140.4588         estimate D2E/DX2                !
 ! D394  D(54,55,60,59)       -136.0627         estimate D2E/DX2                !
 ! D395  D(54,55,60,61)          0.3475         estimate D2E/DX2                !
 ! D396  D(17,56,57,15)       -135.7403         estimate D2E/DX2                !
 ! D397  D(17,56,57,58)          4.218          estimate D2E/DX2                !
 ! D398  D(22,56,57,15)          4.961          estimate D2E/DX2                !
 ! D399  D(22,56,57,58)        144.9193         estimate D2E/DX2                !
 ! D400  D(15,57,58,16)        132.3972         estimate D2E/DX2                !
 ! D401  D(15,57,58,59)         -8.487          estimate D2E/DX2                !
 ! D402  D(56,57,58,16)         -6.7135         estimate D2E/DX2                !
 ! D403  D(56,57,58,59)       -147.5977         estimate D2E/DX2                !
 ! D404  D(16,58,59,11)       -136.6944         estimate D2E/DX2                !
 ! D405  D(16,58,59,60)          1.0297         estimate D2E/DX2                !
 ! D406  D(57,58,59,11)         -1.0297         estimate D2E/DX2                !
 ! D407  D(57,58,59,60)        136.6944         estimate D2E/DX2                !
 ! D408  D(11,59,60,55)        135.0855         estimate D2E/DX2                !
 ! D409  D(11,59,60,61)         -5.8563         estimate D2E/DX2                !
 ! D410  D(58,59,60,55)         -7.2055         estimate D2E/DX2                !
 ! D411  D(58,59,60,61)       -148.1473         estimate D2E/DX2                !
 ! D412  D(55,60,61,9)        -137.0177         estimate D2E/DX2                !
 ! D413  D(55,60,61,62)          4.8437         estimate D2E/DX2                !
 ! D414  D(59,60,61,9)           3.6242         estimate D2E/DX2                !
 ! D415  D(59,60,61,62)        145.4856         estimate D2E/DX2                !
 ! D416  D(9,61,62,53)         133.7197         estimate D2E/DX2                !
 ! D417  D(9,61,62,63)          -3.7604         estimate D2E/DX2                !
 ! D418  D(60,61,62,53)         -3.6512         estimate D2E/DX2                !
 ! D419  D(60,61,62,63)       -141.1313         estimate D2E/DX2                !
 ! D420  D(53,62,63,8)        -138.2286         estimate D2E/DX2                !
 ! D421  D(53,62,63,64)          3.271          estimate D2E/DX2                !
 ! D422  D(61,62,63,8)           3.7584         estimate D2E/DX2                !
 ! D423  D(61,62,63,64)        145.258          estimate D2E/DX2                !
 ! D424  D(8,63,64,52)         138.2641         estimate D2E/DX2                !
 ! D425  D(8,63,64,65)          -3.352          estimate D2E/DX2                !
 ! D426  D(62,63,64,52)         -3.2785         estimate D2E/DX2                !
 ! D427  D(62,63,64,65)       -144.8945         estimate D2E/DX2                !
 ! D428  D(52,64,65,1)        -133.9986         estimate D2E/DX2                !
 ! D429  D(52,64,65,66)          4.7828         estimate D2E/DX2                !
 ! D430  D(63,64,65,1)           3.3538         estimate D2E/DX2                !
 ! D431  D(63,64,65,66)        142.1353         estimate D2E/DX2                !
 ! D432  D(1,65,66,42)         -15.1429         estimate D2E/DX2                !
 ! D433  D(1,65,66,49)         136.3893         estimate D2E/DX2                !
 ! D434  D(64,65,66,42)       -158.1767         estimate D2E/DX2                !
 ! D435  D(64,65,66,49)         -6.6445         estimate D2E/DX2                !
 --------------------------------------------------------------------------------
 Trust Radius=3.00D-01 FncErr=1.00D-07 GrdErr=1.00D-06 EigMax=2.50D+02 EigMin=1.00D-04
 Number of steps in this run=    432 maximum allowed number of steps=    432.
 GradGradGradGradGradGradGradGradGradGradGradGradGradGradGradGradGradGrad

 Leave Link  103 at Wed Jul 20 03:14:42 2022, MaxMem=  1342177280 cpu:               1.5 elap:               0.0
[...]
 Alpha virt. eigenvalues --    1.05517   1.06194   1.06351   1.06428   1.06510
 Alpha virt. eigenvalues --    1.07401   1.08115   1.08362   1.08542   1.09289
 Alpha virt. eigenvalues --    1.09340   1.09553   1.10127   1.10533   1.10821
 Alpha virt. eigenvalues --    1.11487   1.11773   1.12470   1.12909   1.14011
 Alpha virt. eigenvalues --    1.14042   1.14548   1.15054   1.15344   1.15879
 Alpha virt. eigenvalues --    1.16552   1.16888   1.17528   1.18555   1.19108
 Alpha virt. eigenvalues --    1.19463   1.19957   1.20426   1.21060   1.21301
 Alpha virt. eigenvalues --    1.21719   1.22001   1.22042   1.22804   1.23749
 Alpha virt. eigenvalues --    1.23876   1.24114   1.24413   1.25108   1.25985
 Alpha virt. eigenvalues --    1.25997   1.26655   1.27037   1.27197   1.27955
 Alpha virt. eigenvalues --    1.28544   1.29008   1.29498   1.29864   1.30955
 Alpha virt. eigenvalues --    1.31008   1.31298   1.32516   1.32973   1.33133
 Alpha virt. eigenvalues --    1.33390   1.33541   1.33621   1.34427   1.34810
 Alpha virt. eigenvalues --    1.34902   1.35005   1.36057   1.36064   1.36305
 Alpha virt. eigenvalues --    1.36349   1.37167   1.37242   1.38022   1.38033
 Alpha virt. eigenvalues --    1.38391   1.39035   1.39132   1.39638   1.40336
 Alpha virt. eigenvalues --    1.40503   1.40615   1.41135   1.41484   1.41642
 Alpha virt. eigenvalues --    1.42101   1.42604   1.43304   1.43505   1.43898
 Alpha virt. eigenvalues --    1.44069   1.44102   1.44198   1.44988   1.45185
 Alpha virt. eigenvalues --    1.45544   1.45778   1.46053   1.46298   1.46628
 Alpha virt. eigenvalues --    1.46829   1.46966   1.47146   1.47454   1.47622
 Alpha virt. eigenvalues --    1.47758   1.47880   1.47987   1.48252   1.48627
 Alpha virt. eigenvalues --    1.48818   1.48975   1.49692   1.49877   1.50117
 Alpha virt. eigenvalues --    1.50119   1.50478   1.51111   1.51151   1.51418
 Alpha virt. eigenvalues --    1.51646   1.52021   1.52072   1.52378   1.52531
 Alpha virt. eigenvalues --    1.52728   1.52844   1.53073   1.53200   1.53836
 Alpha virt. eigenvalues --    1.54235   1.54415   1.55013   1.55074   1.55302
 Alpha virt. eigenvalues --    1.55679   1.56095   1.56392   1.56632   1.56996
 Alpha virt. eigenvalues --    1.57147   1.57190   1.57759   1.58355   1.58457
 Alpha virt. eigenvalues --    1.59466   1.59579   1.60569   1.60705   1.60711
 Alpha virt. eigenvalues --    1.61248   1.61306   1.61701   1.62446   1.62678
 Alpha virt. eigenvalues --    1.62775   1.63458   1.63693   1.64253   1.65457
 Alpha virt. eigenvalues --    1.65837   1.65856   1.66096   1.66354   1.67238
 Alpha virt. eigenvalues --    1.67912   1.68039   1.68244   1.68742   1.69516
 Alpha virt. eigenvalues --    1.69744   1.70017   1.70212   1.70368   1.70562
 Alpha virt. eigenvalues --    1.70934   1.71088   1.71669   1.71888   1.72260
 Alpha virt. eigenvalues --    1.72539   1.72604   1.74081   1.74539   1.75004
 Alpha virt. eigenvalues --    1.75095   1.75454   1.75740   1.76643   1.76671
 Alpha virt. eigenvalues --    1.77582   1.77615   1.77779   1.77929   1.79139
 Alpha virt. eigenvalues --    1.79273   1.79594   1.79880   1.79905   1.80537
 Alpha virt. eigenvalues --    1.81210   1.81480   1.82194   1.82622   1.83077
 Alpha virt. eigenvalues --    1.83166   1.83825   1.83831   1.83986   1.84873
 Alpha virt. eigenvalues --    1.85220   1.85308   1.85923   1.86365   1.86695
 Alpha virt. eigenvalues --    1.87030   1.88042   1.88146   1.88770   1.89668
 Alpha virt. eigenvalues --    1.89856   1.90177   1.90368   1.90694   1.91094
 Alpha virt. eigenvalues --    1.91108   1.91394   1.92125   1.93006   1.93192
 Alpha virt. eigenvalues --    1.93451   1.93942   1.94192   1.94550   1.95817
 Alpha virt. eigenvalues --    1.96007   1.96484   1.96533   1.96897   1.97945
 Alpha virt. eigenvalues --    1.98425   1.98650   1.98986   2.00095   2.00342
 Alpha virt. eigenvalues --    2.01057   2.01092   2.01362   2.01577   2.02403
 Alpha virt. eigenvalues --    2.03089   2.03423   2.04085   2.04286   2.04821
 Alpha virt. eigenvalues --    2.04899   2.05565   2.05580   2.06485   2.06602
 Alpha virt. eigenvalues --    2.07824   2.08612   2.08733   2.09118   2.09174
 Alpha virt. eigenvalues --    2.09797   2.09990   2.10525   2.10816   2.11530
 Alpha virt. eigenvalues --    2.11532   2.11943   2.12077   2.12525   2.12689
 Alpha virt. eigenvalues --    2.13146   2.13764   2.14150   2.14622   2.15937
 Alpha virt. eigenvalues --    2.16038   2.16824   2.17255   2.17262   2.18031
 Alpha virt. eigenvalues --    2.18520   2.19449   2.19584   2.20823   2.21395
 Alpha virt. eigenvalues --    2.21975   2.22431   2.22706   2.23189   2.23206
 Alpha virt. eigenvalues --    2.24144   2.24309   2.24576   2.25197   2.25644
 Alpha virt. eigenvalues --    2.26534   2.26823   2.27079   2.27713   2.29158
 Alpha virt. eigenvalues --    2.30261   2.30300   2.30883   2.31421   2.31931
 Alpha virt. eigenvalues --    2.32402   2.32771   2.34152   2.34231   2.35134
 Alpha virt. eigenvalues --    2.35268   2.35766   2.36139   2.37562   2.37753
 Alpha virt. eigenvalues --    2.37819   2.38130   2.38632   2.39628   2.40079
 Alpha virt. eigenvalues --    2.40157   2.40686   2.41288   2.41732   2.42153
 Alpha virt. eigenvalues --    2.42591   2.42659   2.43125   2.43645   2.43804
 Alpha virt. eigenvalues --    2.44496   2.44699   2.44923   2.45826   2.46326
 Alpha virt. eigenvalues --    2.46394   2.46657   2.47099   2.47298   2.47817
 Alpha virt. eigenvalues --    2.48639   2.49159   2.49696   2.49864   2.51767
 Alpha virt. eigenvalues --    2.52932   2.53322   2.54107   2.54795   2.55246
 Alpha virt. eigenvalues --    2.55545   2.56208   2.57192   2.57413   2.57845
 Alpha virt. eigenvalues --    2.58016   2.58443   2.58711   2.58716   2.59096
 Alpha virt. eigenvalues --    2.59393   2.59698   2.60094   2.60607   2.61132
 Alpha virt. eigenvalues --    2.61444   2.62132   2.62307   2.63695   2.64365
 Alpha virt. eigenvalues --    2.64383   2.65345   2.66078   2.66278   2.66677
 Alpha virt. eigenvalues --    2.67077   2.67689   2.68052   2.68968   2.70414
 Alpha virt. eigenvalues --    2.70501   2.71009   2.72182   2.73469   2.74197
 Alpha virt. eigenvalues --    2.74333   2.74405   2.75316   2.75362   2.76079
 Alpha virt. eigenvalues --    2.76813   2.78198   2.79705   2.80539   2.80631
 Alpha virt. eigenvalues --    2.81338   2.81819   2.82187   2.82189   2.83389
 Alpha virt. eigenvalues --    2.84009   2.84838   2.85499   2.85647   2.86125
 Alpha virt. eigenvalues --    2.87747   2.88440   2.89600   2.89835   2.90115
 Alpha virt. eigenvalues --    2.91000   2.91502   2.92671   2.93537   2.93684
 Alpha virt. eigenvalues --    2.94261   2.94294   2.94599   2.95286   2.96037
 Alpha virt. eigenvalues --    2.96608   2.96749   2.98386   2.98644   2.98730
 Alpha virt. eigenvalues --    2.99594   3.00023   3.00047   3.00337   3.00494
 Alpha virt. eigenvalues --    3.00843   3.01182   3.01185   3.02015   3.02554
 Alpha virt. eigenvalues --    3.03038   3.04314   3.04408   3.04764   3.04958
 Alpha virt. eigenvalues --    3.05268   3.05505   3.05660   3.05857   3.06545
 Alpha virt. eigenvalues --    3.06836   3.07050   3.07375   3.07530   3.08069
 Alpha virt. eigenvalues --    3.08679   3.08706   3.09007   3.09812   3.09948
 Alpha virt. eigenvalues --    3.10349   3.10814   3.11210   3.11260   3.11565
 Alpha virt. eigenvalues --    3.12176   3.12263   3.12465   3.13170   3.13919
 Alpha virt. eigenvalues --    3.13960   3.14604   3.14817   3.14937   3.15209
 Alpha virt. eigenvalues --    3.15346   3.15618   3.15853   3.16288   3.16370
 Alpha virt. eigenvalues --    3.16530   3.17610   3.17940   3.18188   3.18411
 Alpha virt. eigenvalues --    3.18473   3.20034   3.20701   3.21013   3.21492
 Alpha virt. eigenvalues --    3.21515   3.22027   3.22813   3.23604   3.24235
 Alpha virt. eigenvalues --    3.26481   3.27093   3.29042   3.31765   3.33793
 Alpha virt. eigenvalues --    3.33888   3.36293   3.36997   3.40509   3.40625
 Alpha virt. eigenvalues --    3.42395   3.44306   3.44955   3.46841   3.47693
 Alpha virt. eigenvalues --    3.49136   3.50221   3.51264   3.52122   3.54119
 Alpha virt. eigenvalues --    3.54468   3.54880   3.55423   3.56748   3.57003
 Alpha virt. eigenvalues --    3.58309   3.58332   3.60185   3.60852   3.62887
 Alpha virt. eigenvalues --    3.64541   3.64571   3.64733   3.66518   3.67165
 Alpha virt. eigenvalues --    3.67623   3.68956   3.69434   3.70693   3.71319
 Alpha virt. eigenvalues --    3.71892   3.73702   3.74825   3.76336   3.76392
 Alpha virt. eigenvalues --    3.77404   3.78372   3.80088   3.81008   3.83383
 Alpha virt. eigenvalues --    3.83484   3.85038   3.86455   3.87658   3.87862
 Alpha virt. eigenvalues --    3.88281   3.88802   3.89082   3.89997   3.90296
 Alpha virt. eigenvalues --    3.92155   3.92408   3.93467   3.93608   3.93652
 Alpha virt. eigenvalues --    3.95925   3.97734   4.02101   4.02918   4.04200
 Alpha virt. eigenvalues --    4.08501   4.11429   4.16565   4.21706   4.23966
 Alpha virt. eigenvalues --    4.24136   4.27501   4.31546   4.36382   4.36902
 Alpha virt. eigenvalues --    4.38764   4.38775   4.40275   4.41891   4.42560
 Alpha virt. eigenvalues --    4.44555   4.52237   4.57322   4.58043   4.60492
 Alpha virt. eigenvalues --    4.61812   4.63959   4.66481   4.68435   4.69261
 Alpha virt. eigenvalues --    4.72102   4.72432   4.78345   4.82774   4.85790
 Alpha virt. eigenvalues --    4.91985   4.95910   4.97619   5.02533   5.03819
 Alpha virt. eigenvalues --    5.03895   5.06543  23.04646  23.23454  23.25338
 Alpha virt. eigenvalues --   23.27066  23.44054  23.46064  23.51340  23.52476
 Alpha virt. eigenvalues --   23.56175  23.64997  23.67122  23.67900  23.69233
 Alpha virt. eigenvalues --   23.75366  23.76801  23.77961  23.79911  23.82176
 Alpha virt. eigenvalues --   23.82432  23.84086  23.84456  23.85332  23.85958
 Alpha virt. eigenvalues --   23.87951  23.90110  23.90288  23.92399  23.93795
 Alpha virt. eigenvalues --   23.94966  23.95998  23.96190  23.97370  23.97474
 Alpha virt. eigenvalues --   23.98564  23.98623  23.98725  24.00019  24.00723
 Alpha virt. eigenvalues --   24.00941  24.01021  24.01448  24.02150  24.02751
 Alpha virt. eigenvalues --   24.03787  24.04400  24.05089  24.05409  24.07190
 Alpha virt. eigenvalues --   24.07441  24.09288  24.10101  24.10177  24.10720
 Alpha virt. eigenvalues --   24.11099  24.11698  24.12082  24.12524  24.12875
 Alpha virt. eigenvalues --   24.13795  24.13940  24.14969  24.15182  24.16344
 Alpha virt. eigenvalues --   24.16779  24.17753  24.19777
          Condensed to atoms (all electrons):
 Mulliken charges:
               1
     1  C    0.018730
     2  C   -0.008003
     3  C   -0.002609
     4  C   -0.007679
     5  C   -0.007399
     6  C   -0.003518
     7  C   -0.122723
     8  C   -0.000507
     9  C   -0.003817
    10  C   -0.171970
    11  C    0.001903
    12  C   -0.002615
    13  C   -0.005162
    14  C   -0.002071
    15  C   -0.002071
    16  C   -0.005101
    17  C   -0.010243
    18  C    0.011270
    19  C   -0.005001
    20  C   -0.000585
    21  C   -0.003772
    22  C    0.032887
    23  C   -0.026573
    24  C    0.015023
    25  C   -0.000585
    26  C   -0.005001
    27  C    0.011270
    28  C   -0.024781
    29  C    0.028999
    30  C   -0.006513
    31  C   -0.006513
    32  C    0.028999
    33  C   -0.171970
    34  C    0.009870
    35  C    0.009870
    36  C   -0.016368
    37  C   -0.122723
    38  C    0.002274
    39  C    0.007921
    40  C   -0.024781
    41  C   -0.019716
    42  C   -0.149548
    43  C   -0.161017
    44  C   -0.016368
    45  C    0.015023
    46  C   -0.026573
    47  C    0.002274
    48  C    0.032887
    49  C    0.007921
    50  C   -0.003772
    51  C   -0.007679
    52  C   -0.002609
    53  C   -0.007399
    54  C   -0.005162
    55  C   -0.002615
    56  C   -0.010243
    57  C   -0.005101
    58  C   -0.012377
    59  C   -0.003047
    60  C    0.001903
    61  C   -0.003817
    62  C   -0.003518
    63  C   -0.000507
    64  C   -0.008003
    65  C    0.018730
    66  C   -0.019716
    67  H    0.163536
    68  H    0.159673
    69  H    0.159673
    70  H    0.163536
    71  H    0.166430
    72  H    0.168837
 Sum of Mulliken charges =  -0.00000
 Mulliken charges with hydrogens summed into heavy atoms:
               1
     1  C    0.018730
     2  C   -0.008003
     3  C   -0.002609
     4  C   -0.007679
     5  C   -0.007399
     6  C   -0.003518
     7  C    0.040813
     8  C   -0.000507
     9  C   -0.003817
    10  C   -0.012297
    11  C    0.001903
    12  C   -0.002615
    13  C   -0.005162
    14  C   -0.002071
    15  C   -0.002071
    16  C   -0.005101
    17  C   -0.010243
    18  C    0.011270
    19  C   -0.005001
    20  C   -0.000585
    21  C   -0.003772
    22  C    0.032887
    23  C   -0.026573
    24  C    0.015023
    25  C   -0.000585
    26  C   -0.005001
    27  C    0.011270
    28  C   -0.024781
    29  C    0.028999
    30  C   -0.006513
    31  C   -0.006513
    32  C    0.028999
    33  C   -0.012297
    34  C    0.009870
    35  C    0.009870
    36  C   -0.016368
    37  C    0.040813
    38  C    0.002274
    39  C    0.007921
    40  C   -0.024781
    41  C   -0.019716
    42  C    0.019289
    43  C    0.005413
    44  C   -0.016368
    45  C    0.015023
    46  C   -0.026573
    47  C    0.002274
    48  C    0.032887
    49  C    0.007921
    50  C   -0.003772
    51  C   -0.007679
    52  C   -0.002609
    53  C   -0.007399
    54  C   -0.005162
    55  C   -0.002615
    56  C   -0.010243
    57  C   -0.005101
    58  C   -0.012377
    59  C   -0.003047
    60  C    0.001903
    61  C   -0.003817
    62  C   -0.003518
    63  C   -0.000507
    64  C   -0.008003
    65  C    0.018730
    66  C   -0.019716
 Electronic spatial extent (au):  <R**2>=          21318.1931
 Charge=             -0.0000 electrons
 Dipole moment (field-independent basis, Debye):
    X=              3.6682    Y=              2.8326    Z=              0.0000  Tot=              4.6346
 Quadrupole moment (field-independent basis, Debye-Ang):
   XX=           -356.6395   YY=           -365.1654   ZZ=           -368.5038
   XY=             -3.1732   XZ=              0.0000   YZ=              0.0000
 Traceless Quadrupole moment (field-independent basis, Debye-Ang):
   XX=              6.7968   YY=             -1.7292   ZZ=             -5.0676
   XY=             -3.1732   XZ=              0.0000   YZ=              0.0000
 Octapole moment (field-independent basis, Debye-Ang**2):
  XXX=            129.2128  YYY=            109.9494  ZZZ=             -0.0000  XYY=            -27.8874
  XXY=             13.5819  XXZ=              0.0000  XZZ=             59.4895  YZZ=             -2.0226
  YYZ=              0.0000  XYZ=              0.0000
 Hexadecapole moment (field-independent basis, Debye-Ang**3):
 XXXX=         -12311.6150 YYYY=         -10986.7444 ZZZZ=          -8679.4724 XXXY=             -5.0102
 XXXZ=              0.0000 YYYX=           -116.8469 YYYZ=             -0.0000 ZZZX=              0.0000
 ZZZY=              0.0000 XXYY=          -4055.7466 XXZZ=          -3415.6299 YYZZ=          -3420.1408
 XXYZ=              0.0000 YYXZ=              0.0000 ZZXY=              8.5596
 N-N= 9.880951616031D+03 E-N=-2.560466280190D+04  KE= 2.508685739723D+03
 No NMR shielding tensors so no spin-rotation constants.
 Leave Link  601 at Wed Jul 20 03:48:09 2022, MaxMem=  1342177280 cpu:              63.3 elap:               1.6
 (Enter /home/mkliu/g16/l9999.exe)
 1\1\GINC-NODE01\FOpt\RB3LYP\6-311G(d,p)\C66H6\MKLIU\20-Jul-2022\0\\#P 
 opt b3lyp/6-311G(d, p) empiricaldispersion=GD3\\force\\0,1\C,12.807766
 8569,12.100611552,21.9152463747\C,12.8072867403,13.0408291567,22.94307
 46782\C,12.6919992716,14.4418783415,22.6133184456\C,12.632482273,14.83
 75949427,21.2776710376\C,13.4956850656,15.1926937162,23.5284075924\C,1
 4.1317976596,14.2622189232,24.4465388676\C,15.6361769767,17.3732865631
 ,18.7501450868\C,13.7421525392,12.9227806553,24.0485560851\C,15.421094
 2239,14.5128639471,24.9020427129\C,16.9390054006,17.0023451521,17.9072
 014115\C,16.0933264147,15.7367556658,24.5239450219\C,15.4790952421,16.
 6131905694,23.6208763283\C,14.1901159995,16.3054126547,23.0602659733\C
 ,19.2416631943,14.0567813013,22.614627359\C,16.2506659586,17.292818125
 ,22.6180379613\C,19.2174103549,15.4500113427,22.6051866254\C,19.286602
 0005,16.1199464926,21.3478783229\C,17.4367404088,11.6228491108,19.3262
 553253\C,17.6980911841,11.3185633565,20.7589509054\C,18.4984133671,12.
 0303797158,21.6507339494\C,18.0381012931,16.8862244545,18.9383129498\C
 ,17.589927602,17.4256728028,20.1817277955\C,16.1503970843,17.532853594
 8,20.1849061655\C,15.4757449568,17.3848749089,21.3862009242\C,14.17111
 37661,16.71219643,21.65566832\C,13.3976720324,15.9712974213,20.7638546
 271\C,13.6789742448,15.6884729518,19.3305402684\C,14.699705573,16.1805
 271177,18.527562175\C,15.2849992618,15.2973083196,17.566183454\C,16.66
 58956064,15.6165732463,17.3657228561\C,17.5977131401,14.6084158997,17.
 3646603147\C,17.1711344101,13.2566502032,17.5640327116\C,19.0012292185
 ,14.7711721804,17.904849881\C,15.8212027582,12.9215036186,17.430622554
 \C,14.8446704282,13.9780390586,17.4317360852\C,13.6970930375,13.525124
 7238,18.1229339274\C,19.2695318372,13.4422665133,18.7460020136\C,13.13
 34208033,14.3705271374,19.0434464546\C,12.5161767568,13.8374022948,20.
 2544046524\C,18.0066388877,12.6026709342,18.5237913152\C,12.5805729003
 ,12.4967250923,20.5567367678\C,13.1583633143,11.4375644741,19.61050015
 43\C,13.7613720254,11.9963177174,18.2768088886\C,15.2802379573,11.8122
 795275,18.1211286847\C,19.2712471358,13.2784235078,21.3818729559\C,19.
 4705206344,13.9407265567,20.1811202666\C,16.0796991044,11.1828728828,1
 9.0400868431\C,19.4767873511,15.3842307242,20.1795762321\C,15.50099195
 19,10.608053984,20.251001098\C,18.9729187897,15.8748213687,18.93724699
 03\C,16.5083057099,10.6442419027,21.273251478\C,16.1198932125,10.73315
 17462,22.6094096554\C,16.9325021492,11.4743129388,23.524488625\C,18.09
 58566952,12.0796913659,23.055812297\C,18.5045606718,13.3398617261,23.6
 174264252\C,18.3096505584,17.1769353742,21.3489923288\C,17.6376712904,
 17.1591716615,22.606987985\C,18.2593435715,16.1482467058,23.444660616\
 C,17.5059405152,15.4509135838,24.3738815637\C,17.6800519798,14.0200364
 778,24.5221356955\C,16.4075182771,13.4456263996,24.9009179044\C,16.055
 8559904,12.1805307426,24.4443448828\C,14.6895235844,11.8977955644,24.0
 474758062\C,14.7325830354,10.9578015893,22.9408792851\C,13.794231144,1
 1.0333304776,21.9141215203\C,14.1698391494,10.7772570676,20.5549245432
 \H,15.1750186176,18.3008496251,18.4005947847\H,17.1486114462,17.741703
 6817,17.1300034222\H,19.753955471,14.922914997,17.1270325817\H,20.1576
 20703,12.9100443053,18.3949131835\H,13.2413392662,11.5165425683,17.442
 2019266\H,12.3774486829,10.7160569981,19.3499137656\\Version=ES64L-G16
 RevA.03\State=1-A\HF=-2519.0458322\RMSD=3.620e-09\RMSF=6.915e-05\Dipol
 e=0.111799,0.1052483,-1.8169098\Quadrupole=0.3963518,-0.2055723,-0.190
 7795,3.8512743,-2.467474,-2.2844017\PG=C01 [X(C66H6)]\\@


 THESE ARE THE TIMES THAT TRY MENS SOULS.
 THE SUMMER SOLDIER AND THE SUNSHINE PATRIOT WILL IN THIS CRISIS,
 SHRINK FROM THE SERVICE OF HIS COUNTRY.  BUT HE THAT STANDS NOW,
 DESERVES THE LOVE AND THANKS OF MAN AND WOMAN.
 TYRANNY, LIKE HELL, IS NOT EASILY CONQUERED,
 YET WE HAVE THIS CONSOLATION WITH US,
 THAT THE HARDER THE CONFLICT, THE MORE GLORIOUS THE TRIUMPH.
 WHAT WE OBTAIN TOO CHEAP, WE ESTEEM TOO LIGHTLY, 
 'TIS DEARNESS ONLY THAT GIVES EVERYTHING ITS VALUE.

                                              -- TOM PAINE
 Job cpu time:       1 days  2 hours 38 minutes 55.6 seconds.
 Elapsed time:       0 days  0 hours 33 minutes 23.5 seconds.
 File lengths (MBytes):  RWF=    920 Int=      0 D2E=      0 Chk=    114 Scr=      1
 Normal termination of Gaussian 16 at Wed Jul 20 03:48:09 2022.
