 Entering Gaussian System, Link 0=g16
 Input=dihept_6_addons_1.gjf
 Output=dihept_6_addons_1.log
 Initial command:
 /home/mkliu/g16/l1.exe "/data/scratch/Gau-197073.inp" -scrdir="/data/scratch/"
 Entering Link 1 = /home/mkliu/g16/l1.exe PID=    197074.
  
 Copyright (c) 1988,1990,1992,1993,1995,1998,2003,2009,2016,
            Gaussian, Inc.  All Rights Reserved.
  
 This is part of the Gaussian(R) 16 program.  It is based on
 the Gaussian(R) 09 system (copyright 2009, Gaussian, Inc.),
 the Gaussian(R) 03 system (copyright 2003, Gaussian, Inc.),
 the Gaussian(R) 98 system (copyright 1998, Gaussian, Inc.),
 the Gaussian(R) 94 system (copyright 1995, Gaussian, Inc.),
 the Gaussian 92(TM) system (copyright 1992, Gaussian, Inc.),
 the Gaussian 90(TM) system (copyright 1990, Gaussian, Inc.),
 the Gaussian 88(TM) system (copyright 1988, Gaussian, Inc.),
 the Gaussian 86(TM) system (copyright 1986, Carnegie Mellon
 University), and the Gaussian 82(TM) system (copyright 1983,
 Carnegie Mellon University). Gaussian is a federally registered
 trademark of Gaussian, Inc.
  
 This software contains proprietary and confidential information,
 including trade secrets, belonging to Gaussian, Inc.
  
 This software is provided under written license and may be
 used, copied, transmitted, or stored only in accord with that
 written license.
  
 The following legend is applicable only to US Government
 contracts under FAR:
  
                    RESTRICTED RIGHTS LEGEND
  
 Use, reproduction and disclosure by the US Government is
 subject to restrictions as set forth in subparagraphs (a)
 and (c) of the Commercial Computer Software - Restricted
 Rights clause in FAR 52.227-19.
  
 Gaussian, Inc.
 340 Quinnipiac St., Bldg. 40, Wallingford CT 06492
  
  
 ---------------------------------------------------------------
 Warning -- This program may not be used in any manner that
 competes with the business of Gaussian, Inc. or will provide
 assistance to any competitor of Gaussian, Inc.  The licensee
 of this program is prohibited from giving any competitor of
 Gaussian, Inc. access to this program.  By using this program,
 the user acknowledges that Gaussian, Inc. is engaged in the
 business of creating and licensing software in the field of
 computational chemistry and represents and warrants to the
 licensee that it is not a competitor of Gaussian, Inc. and that
 it will not use this program in any manner prohibited above.
 ---------------------------------------------------------------
  

 Cite this work as:
 Gaussian 16, Revision A.03,
 M. J. Frisch, G. W. Trucks, H. B. Schlegel, G. E. Scuseria, 
 M. A. Robb, J. R. Cheeseman, G. Scalmani, V. Barone, 
 G. A. Petersson, H. Nakatsuji, X. Li, M. Caricato, A. V. Marenich, 
 J. Bloino, B. G. Janesko, R. Gomperts, B. Mennucci, H. P. Hratchian, 
 J. V. Ortiz, A. F. Izmaylov, J. L. Sonnenberg, D. Williams-Young, 
 F. Ding, F. Lipparini, F. Egidi, J. Goings, B. Peng, A. Petrone, 
 T. Henderson, D. Ranasinghe, V. G. Zakrzewski, J. Gao, N. Rega, 
 G. Zheng, W. Liang, M. Hada, M. Ehara, K. Toyota, R. Fukuda, 
 J. Hasegawa, M. Ishida, T. Nakajima, Y. Honda, O. Kitao, H. Nakai, 
 T. Vreven, K. Throssell, J. A. Montgomery, Jr., J. E. Peralta, 
 F. Ogliaro, M. J. Bearpark, J. J. Heyd, E. N. Brothers, K. N. Kudin, 
 V. N. Staroverov, T. A. Keith, R. Kobayashi, J. Normand, 
 K. Raghavachari, A. P. Rendell, J. C. Burant, S. S. Iyengar, 
 J. Tomasi, M. Cossi, J. M. Millam, M. Klene, C. Adamo, R. Cammi, 
 J. W. Ochterski, R. L. Martin, K. Morokuma, O. Farkas, 
 J. B. Foresman, and D. J. Fox, Gaussian, Inc., Wallingford CT, 2016.
 
 ******************************************
 Gaussian 16:  ES64L-G16RevA.03 25-Dec-2016
                20-Jul-2022 
 ******************************************
 %mem=10GB
 %chk=dihept_6_addons_1.chk
 %nprocshared=48
 Will use up to   48 processors via shared memory.
 -------------------------------------------------
 #P opt b3lyp/6-311G(d, p) empiricaldispersion=GD3
 -------------------------------------------------
 1/18=20,19=15,26=3,38=1/1,3;
 2/9=110,12=2,17=6,18=5,40=1/2;
 3/5=4,6=6,7=101,11=2,25=1,30=1,71=1,74=-5,124=31/1,2,3;
 4//1;
 5/5=2,38=5/2;
 6/7=2,8=2,9=2,10=2,28=1/1;
 7//1,2,3,16;
 1/18=20,19=15,26=3/3(2);
 2/9=110/2;
 99//99;
 2/9=110/2;
 3/5=4,6=6,7=101,11=2,25=1,30=1,71=1,74=-5,124=31/1,2,3;
 4/5=5,16=3,69=1/1;
 5/5=2,38=5/2;
 7//1,2,3,16;
 1/18=20,19=15,26=3/3(-5);
 2/9=110/2;
 6/7=2,8=2,9=2,10=2,19=2,28=1/1;
 99/9=1/99;
 Leave Link    1 at Wed Jul 20 17:17:44 2022, MaxMem=  1342177280 cpu:               2.0 elap:               0.0
 (Enter /home/mkliu/g16/l101.exe)
 -----
 force
 -----
 Symbolic Z-matrix:
 Charge =  0 Multiplicity = 1
 C                     12.79087   12.08709   21.90639 
 C                     12.80058   13.03242   22.91911 
 C                     12.68222   14.43183   22.59324 
 C                     12.61279   14.84649   21.27005 
 C                     13.4882   15.17457   23.50668 
 C                     14.11912   14.24671   24.41228 
 C                     15.633    17.3353   18.76316 
 C                     13.73039   12.91684   24.01597 
 C                     15.40662   14.49397   24.86483 
 C                     16.90896   16.99988   17.90526 
 C                     16.07421   15.71099   24.48981 
 C                     15.46119   16.58609   23.59923 
 C                     14.17699   16.28601   23.04088 
 C                     19.19869   14.01664   22.58724 
 C                     16.22328   17.25046   22.58627 
 C                     19.16914   15.40744   22.56393 
 C                     19.25546   16.06672   21.31453 
 C                     17.43681   11.58752   19.34458 
 C                     17.68711   11.28329   20.76374 
 C                     18.46542   12.01038   21.64868 
 C                     18.15858   17.12668   18.8087 
 C                     17.55846   17.36719   20.16018 
 C                     16.15122   17.4408   20.173 
 C                     15.46257   17.32198   21.37272 
 C                     14.16326   16.68621   21.64733 
 C                     13.37421   15.9708   20.76238 
 C                     13.65698   15.69568   19.34335 
 C                     14.68541   16.16898   18.55644 
 C                     15.2851   15.27701   17.61867 
 C                     16.66547   15.59433   17.47339 
 C                     17.58639   14.59346   17.47368 
 C                     17.15536   13.24428   17.61934 
 C                     19.00721   14.71932   17.90593 
 C                     15.81791   12.91908   17.45463 
 C                     14.84993   13.97113   17.4543 
 C                     13.70027   13.51542   18.15548 
 C                     19.23508   13.42013   18.76429 
 C                     13.10734   14.3864   19.06072 
 C                     12.49801   13.85724   20.24122 
 C                     17.99412   12.57293   18.55765 
 C                     12.58751   12.50021   20.54359 
 C                     13.37396   11.64238   19.69562 
 C                     13.91034   12.13557   18.5205 
 C                     15.26806   11.81146   18.15598 
 C                     19.20704   13.25226   21.37393 
 C                     19.38313   13.92829   20.17407 
 C                     16.0865   11.14848   19.06166 
 C                     19.42676   15.33677   20.1608 
 C                     15.5082   10.58554   20.24216 
 C                     19.23735   15.95434   18.80905 
 C                     16.50328   10.61804   21.27126 
 C                     16.09545   10.72209   22.59431 
 C                     16.90236   11.46384   23.50776 
 C                     18.06735   12.05773   23.04212 
 C                     18.47297   13.31272   23.60021 
 C                     18.27133   17.13624   21.31418 
 C                     17.60681   17.10542   22.56342 
 C                     18.22732   16.10887   23.40077 
 C                     17.47806   15.41977   24.33281 
 C                     17.65157   13.99661   24.49034 
 C                     16.38316   13.4326   24.86514 
 C                     16.02989   12.16995   24.41289 
 C                     14.67241   11.89299   24.01627 
 C                     14.71063   10.95644   22.91971 
 C                     13.76805   11.02502   21.9067 
 C                     14.16322   10.7876   20.54408 
 H                     15.16306   18.27516   18.45413 
 H                     16.98876   17.66531   17.04206 
 H                     18.70777   18.02617   18.51336 
 H                     20.17947   16.42675   18.5138 
 H                     19.67724   14.74324   17.04294 
 H                     20.13269   12.87358   18.45562 
 
 ITRead=  0  0  0  0  0  0  0  0  0  0  0  0  0  0  0  0  0  0  0  0
 ITRead=  0  0  0  0  0  0  0  0  0  0  0  0  0  0  0  0  0  0  0  0
 ITRead=  0  0  0  0  0  0  0  0  0  0  0  0  0  0  0  0  0  0  0  0
 ITRead=  0  0  0  0  0  0  0  0  0  0  0  0
 MicOpt= -1 -1 -1 -1 -1 -1 -1 -1 -1 -1 -1 -1 -1 -1 -1 -1 -1 -1 -1 -1
 MicOpt= -1 -1 -1 -1 -1 -1 -1 -1 -1 -1 -1 -1 -1 -1 -1 -1 -1 -1 -1 -1
 MicOpt= -1 -1 -1 -1 -1 -1 -1 -1 -1 -1 -1 -1 -1 -1 -1 -1 -1 -1 -1 -1
 MicOpt= -1 -1 -1 -1 -1 -1 -1 -1 -1 -1 -1 -1
 NAtoms=     72 NQM=       72 NQMF=       0 NMMI=      0 NMMIF=      0
                NMic=       0 NMicF=      0.
                    Isotopes and Nuclear Properties:
 (Nuclear quadrupole moments (NQMom) in fm**2, nuclear magnetic moments (NMagM)
  in nuclear magnetons)

  Atom         1           2           3           4           5           6           7           8           9          10
 IAtWgt=          12          12          12          12          12          12          12          12          12          12
 AtmWgt=  12.0000000  12.0000000  12.0000000  12.0000000  12.0000000  12.0000000  12.0000000  12.0000000  12.0000000  12.0000000
 NucSpn=           0           0           0           0           0           0           0           0           0           0
 AtZEff=  -0.0000000  -0.0000000  -0.0000000  -0.0000000  -0.0000000  -0.0000000  -0.0000000  -0.0000000  -0.0000000  -0.0000000
 NQMom=    0.0000000   0.0000000   0.0000000   0.0000000   0.0000000   0.0000000   0.0000000   0.0000000   0.0000000   0.0000000
 NMagM=    0.0000000   0.0000000   0.0000000   0.0000000   0.0000000   0.0000000   0.0000000   0.0000000   0.0000000   0.0000000
 AtZNuc=   6.0000000   6.0000000   6.0000000   6.0000000   6.0000000   6.0000000   6.0000000   6.0000000   6.0000000   6.0000000

  Atom        11          12          13          14          15          16          17          18          19          20
 IAtWgt=          12          12          12          12          12          12          12          12          12          12
 AtmWgt=  12.0000000  12.0000000  12.0000000  12.0000000  12.0000000  12.0000000  12.0000000  12.0000000  12.0000000  12.0000000
 NucSpn=           0           0           0           0           0           0           0           0           0           0
 AtZEff=  -0.0000000  -0.0000000  -0.0000000  -0.0000000  -0.0000000  -0.0000000  -0.0000000  -0.0000000  -0.0000000  -0.0000000
 NQMom=    0.0000000   0.0000000   0.0000000   0.0000000   0.0000000   0.0000000   0.0000000   0.0000000   0.0000000   0.0000000
 NMagM=    0.0000000   0.0000000   0.0000000   0.0000000   0.0000000   0.0000000   0.0000000   0.0000000   0.0000000   0.0000000
 AtZNuc=   6.0000000   6.0000000   6.0000000   6.0000000   6.0000000   6.0000000   6.0000000   6.0000000   6.0000000   6.0000000

  Atom        21          22          23          24          25          26          27          28          29          30
 IAtWgt=          12          12          12          12          12          12          12          12          12          12
 AtmWgt=  12.0000000  12.0000000  12.0000000  12.0000000  12.0000000  12.0000000  12.0000000  12.0000000  12.0000000  12.0000000
 NucSpn=           0           0           0           0           0           0           0           0           0           0
 AtZEff=  -0.0000000  -0.0000000  -0.0000000  -0.0000000  -0.0000000  -0.0000000  -0.0000000  -0.0000000  -0.0000000  -0.0000000
 NQMom=    0.0000000   0.0000000   0.0000000   0.0000000   0.0000000   0.0000000   0.0000000   0.0000000   0.0000000   0.0000000
 NMagM=    0.0000000   0.0000000   0.0000000   0.0000000   0.0000000   0.0000000   0.0000000   0.0000000   0.0000000   0.0000000
 AtZNuc=   6.0000000   6.0000000   6.0000000   6.0000000   6.0000000   6.0000000   6.0000000   6.0000000   6.0000000   6.0000000

  Atom        31          32          33          34          35          36          37          38          39          40
 IAtWgt=          12          12          12          12          12          12          12          12          12          12
 AtmWgt=  12.0000000  12.0000000  12.0000000  12.0000000  12.0000000  12.0000000  12.0000000  12.0000000  12.0000000  12.0000000
 NucSpn=           0           0           0           0           0           0           0           0           0           0
 AtZEff=  -0.0000000  -0.0000000  -0.0000000  -0.0000000  -0.0000000  -0.0000000  -0.0000000  -0.0000000  -0.0000000  -0.0000000
 NQMom=    0.0000000   0.0000000   0.0000000   0.0000000   0.0000000   0.0000000   0.0000000   0.0000000   0.0000000   0.0000000
 NMagM=    0.0000000   0.0000000   0.0000000   0.0000000   0.0000000   0.0000000   0.0000000   0.0000000   0.0000000   0.0000000
 AtZNuc=   6.0000000   6.0000000   6.0000000   6.0000000   6.0000000   6.0000000   6.0000000   6.0000000   6.0000000   6.0000000

  Atom        41          42          43          44          45          46          47          48          49          50
 IAtWgt=          12          12          12          12          12          12          12          12          12          12
 AtmWgt=  12.0000000  12.0000000  12.0000000  12.0000000  12.0000000  12.0000000  12.0000000  12.0000000  12.0000000  12.0000000
 NucSpn=           0           0           0           0           0           0           0           0           0           0
 AtZEff=  -0.0000000  -0.0000000  -0.0000000  -0.0000000  -0.0000000  -0.0000000  -0.0000000  -0.0000000  -0.0000000  -0.0000000
 NQMom=    0.0000000   0.0000000   0.0000000   0.0000000   0.0000000   0.0000000   0.0000000   0.0000000   0.0000000   0.0000000
 NMagM=    0.0000000   0.0000000   0.0000000   0.0000000   0.0000000   0.0000000   0.0000000   0.0000000   0.0000000   0.0000000
 AtZNuc=   6.0000000   6.0000000   6.0000000   6.0000000   6.0000000   6.0000000   6.0000000   6.0000000   6.0000000   6.0000000

  Atom        51          52          53          54          55          56          57          58          59          60
 IAtWgt=          12          12          12          12          12          12          12          12          12          12
 AtmWgt=  12.0000000  12.0000000  12.0000000  12.0000000  12.0000000  12.0000000  12.0000000  12.0000000  12.0000000  12.0000000
 NucSpn=           0           0           0           0           0           0           0           0           0           0
 AtZEff=  -0.0000000  -0.0000000  -0.0000000  -0.0000000  -0.0000000  -0.0000000  -0.0000000  -0.0000000  -0.0000000  -0.0000000
 NQMom=    0.0000000   0.0000000   0.0000000   0.0000000   0.0000000   0.0000000   0.0000000   0.0000000   0.0000000   0.0000000
 NMagM=    0.0000000   0.0000000   0.0000000   0.0000000   0.0000000   0.0000000   0.0000000   0.0000000   0.0000000   0.0000000
 AtZNuc=   6.0000000   6.0000000   6.0000000   6.0000000   6.0000000   6.0000000   6.0000000   6.0000000   6.0000000   6.0000000

  Atom        61          62          63          64          65          66          67          68          69          70
 IAtWgt=          12          12          12          12          12          12           1           1           1           1
 AtmWgt=  12.0000000  12.0000000  12.0000000  12.0000000  12.0000000  12.0000000   1.0078250   1.0078250   1.0078250   1.0078250
 NucSpn=           0           0           0           0           0           0           1           1           1           1
 AtZEff=  -0.0000000  -0.0000000  -0.0000000  -0.0000000  -0.0000000  -0.0000000  -0.0000000  -0.0000000  -0.0000000  -0.0000000
 NQMom=    0.0000000   0.0000000   0.0000000   0.0000000   0.0000000   0.0000000   0.0000000   0.0000000   0.0000000   0.0000000
 NMagM=    0.0000000   0.0000000   0.0000000   0.0000000   0.0000000   0.0000000   2.7928460   2.7928460   2.7928460   2.7928460
 AtZNuc=   6.0000000   6.0000000   6.0000000   6.0000000   6.0000000   6.0000000   1.0000000   1.0000000   1.0000000   1.0000000

  Atom        71          72
 IAtWgt=           1           1
 AtmWgt=   1.0078250   1.0078250
 NucSpn=           1           1
 AtZEff=  -0.0000000  -0.0000000
 NQMom=    0.0000000   0.0000000
 NMagM=    2.7928460   2.7928460
 AtZNuc=   1.0000000   1.0000000
 Leave Link  101 at Wed Jul 20 17:17:45 2022, MaxMem=  1342177280 cpu:              26.3 elap:               0.6
 (Enter /home/mkliu/g16/l103.exe)

 GradGradGradGradGradGradGradGradGradGradGradGradGradGradGradGradGradGrad
 Berny optimization.
 Initialization pass.
                           ----------------------------
                           !    Initial Parameters    !
                           ! (Angstroms and Degrees)  !
 --------------------------                            --------------------------
 ! Name  Definition              Value          Derivative Info.                !
 --------------------------------------------------------------------------------
 ! R1    R(1,2)                  1.3854         estimate D2E/DX2                !
 ! R2    R(1,41)                 1.4385         estimate D2E/DX2                !
 ! R3    R(1,65)                 1.4432         estimate D2E/DX2                !
 ! R4    R(2,3)                  1.4417         estimate D2E/DX2                !
 ! R5    R(2,8)                  1.4426         estimate D2E/DX2                !
 ! R6    R(3,4)                  1.3884         estimate D2E/DX2                !
 ! R7    R(3,5)                  1.4268         estimate D2E/DX2                !
 ! R8    R(4,26)                 1.4497         estimate D2E/DX2                !
 ! R9    R(4,39)                 1.4319         estimate D2E/DX2                !
 ! R10   R(5,6)                  1.4419         estimate D2E/DX2                !
 ! R11   R(5,13)                 1.3881         estimate D2E/DX2                !
 ! R12   R(6,8)                  1.4411         estimate D2E/DX2                !
 ! R13   R(6,9)                  1.3869         estimate D2E/DX2                !
 ! R14   R(7,10)                 1.5737         estimate D2E/DX2                !
 ! R15   R(7,23)                 1.5058         estimate D2E/DX2                !
 ! R16   R(7,28)                 1.5169         estimate D2E/DX2                !
 ! R17   R(7,67)                 1.0953         estimate D2E/DX2                !
 ! R18   R(8,63)                 1.3913         estimate D2E/DX2                !
 ! R19   R(9,11)                 1.4379         estimate D2E/DX2                !
 ! R20   R(9,61)                 1.4423         estimate D2E/DX2                !
 ! R21   R(10,21)                1.5472         estimate D2E/DX2                !
 ! R22   R(10,30)                1.4904         estimate D2E/DX2                !
 ! R23   R(10,68)                1.0928         estimate D2E/DX2                !
 ! R24   R(11,12)                1.3909         estimate D2E/DX2                !
 ! R25   R(11,59)                1.4423         estimate D2E/DX2                !
 ! R26   R(12,13)                1.4321         estimate D2E/DX2                !
 ! R27   R(12,15)                1.4312         estimate D2E/DX2                !
 ! R28   R(13,25)                1.4499         estimate D2E/DX2                !
 ! R29   R(14,16)                1.3913         estimate D2E/DX2                !
 ! R30   R(14,45)                1.434          estimate D2E/DX2                !
 ! R31   R(14,55)                1.4312         estimate D2E/DX2                !
 ! R32   R(15,24)                1.434          estimate D2E/DX2                !
 ! R33   R(15,57)                1.3913         estimate D2E/DX2                !
 ! R34   R(16,17)                1.4153         estimate D2E/DX2                !
 ! R35   R(16,58)                1.442          estimate D2E/DX2                !
 ! R36   R(17,48)                1.376          estimate D2E/DX2                !
 ! R37   R(17,56)                1.4534         estimate D2E/DX2                !
 ! R38   R(18,19)                1.4728         estimate D2E/DX2                !
 ! R39   R(18,40)                1.3787         estimate D2E/DX2                !
 ! R40   R(18,47)                1.4478         estimate D2E/DX2                !
 ! R41   R(19,20)                1.3848         estimate D2E/DX2                !
 ! R42   R(19,51)                1.4497         estimate D2E/DX2                !
 ! R43   R(20,45)                1.4723         estimate D2E/DX2                !
 ! R44   R(20,54)                1.45           estimate D2E/DX2                !
 ! R45   R(21,22)                1.4982         estimate D2E/DX2                !
 ! R46   R(21,50)                1.5932         estimate D2E/DX2                !
 ! R47   R(21,69)                1.0945         estimate D2E/DX2                !
 ! R48   R(22,23)                1.4092         estimate D2E/DX2                !
 ! R49   R(22,56)                1.376          estimate D2E/DX2                !
 ! R50   R(23,24)                1.3884         estimate D2E/DX2                !
 ! R51   R(24,25)                1.4724         estimate D2E/DX2                !
 ! R52   R(25,26)                1.3848         estimate D2E/DX2                !
 ! R53   R(26,27)                1.4729         estimate D2E/DX2                !
 ! R54   R(27,28)                1.3787         estimate D2E/DX2                !
 ! R55   R(27,38)                1.4478         estimate D2E/DX2                !
 ! R56   R(28,29)                1.4264         estimate D2E/DX2                !
 ! R57   R(29,30)                1.4238         estimate D2E/DX2                !
 ! R58   R(29,35)                1.3863         estimate D2E/DX2                !
 ! R59   R(30,31)                1.3601         estimate D2E/DX2                !
 ! R60   R(31,32)                1.4238         estimate D2E/DX2                !
 ! R61   R(31,33)                1.4904         estimate D2E/DX2                !
 ! R62   R(32,34)                1.3862         estimate D2E/DX2                !
 ! R63   R(32,40)                1.4264         estimate D2E/DX2                !
 ! R64   R(33,37)                1.5737         estimate D2E/DX2                !
 ! R65   R(33,50)                1.5472         estimate D2E/DX2                !
 ! R66   R(33,71)                1.0928         estimate D2E/DX2                !
 ! R67   R(34,35)                1.4296         estimate D2E/DX2                !
 ! R68   R(34,44)                1.4216         estimate D2E/DX2                !
 ! R69   R(35,36)                1.4216         estimate D2E/DX2                !
 ! R70   R(36,38)                1.3891         estimate D2E/DX2                !
 ! R71   R(36,43)                1.4427         estimate D2E/DX2                !
 ! R72   R(37,40)                1.5167         estimate D2E/DX2                !
 ! R73   R(37,46)                1.5059         estimate D2E/DX2                !
 ! R74   R(37,72)                1.0953         estimate D2E/DX2                !
 ! R75   R(38,39)                1.43           estimate D2E/DX2                !
 ! R76   R(39,41)                1.3932         estimate D2E/DX2                !
 ! R77   R(41,42)                1.4399         estimate D2E/DX2                !
 ! R78   R(42,43)                1.3827         estimate D2E/DX2                !
 ! R79   R(42,66)                1.4399         estimate D2E/DX2                !
 ! R80   R(43,44)                1.4427         estimate D2E/DX2                !
 ! R81   R(44,47)                1.3891         estimate D2E/DX2                !
 ! R82   R(45,46)                1.3884         estimate D2E/DX2                !
 ! R83   R(46,48)                1.4092         estimate D2E/DX2                !
 ! R84   R(47,49)                1.43           estimate D2E/DX2                !
 ! R85   R(48,50)                1.4982         estimate D2E/DX2                !
 ! R86   R(49,51)                1.4319         estimate D2E/DX2                !
 ! R87   R(49,66)                1.3932         estimate D2E/DX2                !
 ! R88   R(50,70)                1.0945         estimate D2E/DX2                !
 ! R89   R(51,52)                1.3884         estimate D2E/DX2                !
 ! R90   R(52,53)                1.4268         estimate D2E/DX2                !
 ! R91   R(52,64)                1.4417         estimate D2E/DX2                !
 ! R92   R(53,54)                1.3881         estimate D2E/DX2                !
 ! R93   R(53,62)                1.4419         estimate D2E/DX2                !
 ! R94   R(54,55)                1.4321         estimate D2E/DX2                !
 ! R95   R(55,60)                1.3909         estimate D2E/DX2                !
 ! R96   R(56,57)                1.4153         estimate D2E/DX2                !
 ! R97   R(57,58)                1.442          estimate D2E/DX2                !
 ! R98   R(58,59)                1.3802         estimate D2E/DX2                !
 ! R99   R(59,60)                1.4423         estimate D2E/DX2                !
 ! R100  R(60,61)                1.4379         estimate D2E/DX2                !
 ! R101  R(61,62)                1.3869         estimate D2E/DX2                !
 ! R102  R(62,63)                1.4411         estimate D2E/DX2                !
 ! R103  R(63,64)                1.4426         estimate D2E/DX2                !
 ! R104  R(64,65)                1.3854         estimate D2E/DX2                !
 ! R105  R(65,66)                1.4385         estimate D2E/DX2                !
 ! A1    A(2,1,41)             119.8383         estimate D2E/DX2                !
 ! A2    A(2,1,65)             119.8178         estimate D2E/DX2                !
 ! A3    A(41,1,65)            107.8946         estimate D2E/DX2                !
 ! A4    A(1,2,3)              119.7703         estimate D2E/DX2                !
 ! A5    A(1,2,8)              120.375          estimate D2E/DX2                !
 ! A6    A(3,2,8)              107.611          estimate D2E/DX2                !
 ! A7    A(2,3,4)              120.6256         estimate D2E/DX2                !
 ! A8    A(2,3,5)              108.3133         estimate D2E/DX2                !
 ! A9    A(4,3,5)              118.8771         estimate D2E/DX2                !
 ! A10   A(3,4,26)             122.6234         estimate D2E/DX2                !
 ! A11   A(3,4,39)             118.8453         estimate D2E/DX2                !
 ! A12   A(26,4,39)            109.0444         estimate D2E/DX2                !
 ! A13   A(3,5,6)              108.3176         estimate D2E/DX2                !
 ! A14   A(3,5,13)             118.8364         estimate D2E/DX2                !
 ! A15   A(6,5,13)             120.59           estimate D2E/DX2                !
 ! A16   A(5,6,8)              107.6431         estimate D2E/DX2                !
 ! A17   A(5,6,9)              119.7621         estimate D2E/DX2                !
 ! A18   A(8,6,9)              120.3084         estimate D2E/DX2                !
 ! A19   A(10,7,23)            104.259          estimate D2E/DX2                !
 ! A20   A(10,7,28)            105.5647         estimate D2E/DX2                !
 ! A21   A(10,7,67)            112.1448         estimate D2E/DX2                !
 ! A22   A(23,7,28)            113.3573         estimate D2E/DX2                !
 ! A23   A(23,7,67)            110.5917         estimate D2E/DX2                !
 ! A24   A(28,7,67)            110.6895         estimate D2E/DX2                !
 ! A25   A(2,8,6)              108.0005         estimate D2E/DX2                !
 ! A26   A(2,8,63)             119.7053         estimate D2E/DX2                !
 ! A27   A(6,8,63)             119.763          estimate D2E/DX2                !
 ! A28   A(6,9,11)             119.7885         estimate D2E/DX2                !
 ! A29   A(6,9,61)             119.8295         estimate D2E/DX2                !
 ! A30   A(11,9,61)            107.9727         estimate D2E/DX2                !
 ! A31   A(7,10,21)            108.6062         estimate D2E/DX2                !
 ! A32   A(7,10,30)            103.0912         estimate D2E/DX2                !
 ! A33   A(7,10,68)            111.1016         estimate D2E/DX2                !
 ! A34   A(21,10,30)           112.2365         estimate D2E/DX2                !
 ! A35   A(21,10,68)           110.6312         estimate D2E/DX2                !
 ! A36   A(30,10,68)           110.933          estimate D2E/DX2                !
 ! A37   A(9,11,12)            119.6618         estimate D2E/DX2                !
 ! A38   A(9,11,59)            108.0233         estimate D2E/DX2                !
 ! A39   A(12,11,59)           119.0981         estimate D2E/DX2                !
 ! A40   A(11,12,13)           120.8635         estimate D2E/DX2                !
 ! A41   A(11,12,15)           120.7006         estimate D2E/DX2                !
 ! A42   A(13,12,15)           107.3861         estimate D2E/DX2                !
 ! A43   A(5,13,12)            118.8107         estimate D2E/DX2                !
 ! A44   A(5,13,25)            122.6042         estimate D2E/DX2                !
 ! A45   A(12,13,25)           108.9881         estimate D2E/DX2                !
 ! A46   A(16,14,45)           121.2504         estimate D2E/DX2                !
 ! A47   A(16,14,55)           119.5216         estimate D2E/DX2                !
 ! A48   A(45,14,55)           109.8546         estimate D2E/DX2                !
 ! A49   A(12,15,24)           109.8554         estimate D2E/DX2                !
 ! A50   A(12,15,57)           119.5212         estimate D2E/DX2                !
 ! A51   A(24,15,57)           121.2517         estimate D2E/DX2                !
 ! A52   A(14,16,17)           118.6293         estimate D2E/DX2                !
 ! A53   A(14,16,58)           119.3674         estimate D2E/DX2                !
 ! A54   A(17,16,58)           108.9993         estimate D2E/DX2                !
 ! A55   A(16,17,48)           120.0446         estimate D2E/DX2                !
 ! A56   A(16,17,56)           107.5592         estimate D2E/DX2                !
 ! A57   A(48,17,56)           118.3258         estimate D2E/DX2                !
 ! A58   A(19,18,40)           128.9697         estimate D2E/DX2                !
 ! A59   A(19,18,47)           106.5084         estimate D2E/DX2                !
 ! A60   A(40,18,47)           118.8294         estimate D2E/DX2                !
 ! A61   A(18,19,20)           127.0727         estimate D2E/DX2                !
 ! A62   A(18,19,51)           107.0583         estimate D2E/DX2                !
 ! A63   A(20,19,51)           118.4377         estimate D2E/DX2                !
 ! A64   A(19,20,45)           127.3542         estimate D2E/DX2                !
 ! A65   A(19,20,54)           118.4889         estimate D2E/DX2                !
 ! A66   A(45,20,54)           106.8628         estimate D2E/DX2                !
 ! A67   A(10,21,22)           102.4966         estimate D2E/DX2                !
 ! A68   A(10,21,50)           119.125          estimate D2E/DX2                !
 ! A69   A(10,21,69)           108.3637         estimate D2E/DX2                !
 ! A70   A(22,21,50)           112.9033         estimate D2E/DX2                !
 ! A71   A(22,21,69)           108.2092         estimate D2E/DX2                !
 ! A72   A(50,21,69)           105.3694         estimate D2E/DX2                !
 ! A73   A(21,22,23)           114.62           estimate D2E/DX2                !
 ! A74   A(21,22,56)           121.4734         estimate D2E/DX2                !
 ! A75   A(23,22,56)           121.2319         estimate D2E/DX2                !
 ! A76   A(7,23,22)            109.3597         estimate D2E/DX2                !
 ! A77   A(7,23,24)            129.2239         estimate D2E/DX2                !
 ! A78   A(22,23,24)           119.9132         estimate D2E/DX2                !
 ! A79   A(15,24,23)           118.19           estimate D2E/DX2                !
 ! A80   A(15,24,25)           106.7829         estimate D2E/DX2                !
 ! A81   A(23,24,25)           129.4809         estimate D2E/DX2                !
 ! A82   A(13,25,24)           106.8629         estimate D2E/DX2                !
 ! A83   A(13,25,26)           118.4904         estimate D2E/DX2                !
 ! A84   A(24,25,26)           127.3536         estimate D2E/DX2                !
 ! A85   A(4,26,25)            118.4357         estimate D2E/DX2                !
 ! A86   A(4,26,27)            107.0595         estimate D2E/DX2                !
 ! A87   A(25,26,27)           127.0722         estimate D2E/DX2                !
 ! A88   A(26,27,28)           128.9744         estimate D2E/DX2                !
 ! A89   A(26,27,38)           106.5057         estimate D2E/DX2                !
 ! A90   A(28,27,38)           118.8288         estimate D2E/DX2                !
 ! A91   A(7,28,27)            130.703          estimate D2E/DX2                !
 ! A92   A(7,28,29)            107.925          estimate D2E/DX2                !
 ! A93   A(27,28,29)           118.3046         estimate D2E/DX2                !
 ! A94   A(28,29,30)           109.5915         estimate D2E/DX2                !
 ! A95   A(28,29,35)           122.347          estimate D2E/DX2                !
 ! A96   A(30,29,35)           120.1448         estimate D2E/DX2                !
 ! A97   A(10,30,29)           109.8156         estimate D2E/DX2                !
 ! A98   A(10,30,31)           125.6828         estimate D2E/DX2                !
 ! A99   A(29,30,31)           119.5            estimate D2E/DX2                !
 ! A100  A(30,31,32)           119.4952         estimate D2E/DX2                !
 ! A101  A(30,31,33)           125.6896         estimate D2E/DX2                !
 ! A102  A(32,31,33)           109.8119         estimate D2E/DX2                !
 ! A103  A(31,32,34)           120.1461         estimate D2E/DX2                !
 ! A104  A(31,32,40)           109.5888         estimate D2E/DX2                !
 ! A105  A(34,32,40)           122.3487         estimate D2E/DX2                !
 ! A106  A(31,33,37)           103.0914         estimate D2E/DX2                !
 ! A107  A(31,33,50)           112.2404         estimate D2E/DX2                !
 ! A108  A(31,33,71)           110.9352         estimate D2E/DX2                !
 ! A109  A(37,33,50)           108.6061         estimate D2E/DX2                !
 ! A110  A(37,33,71)           111.1007         estimate D2E/DX2                !
 ! A111  A(50,33,71)           110.6264         estimate D2E/DX2                !
 ! A112  A(32,34,35)           118.7282         estimate D2E/DX2                !
 ! A113  A(32,34,44)           119.8225         estimate D2E/DX2                !
 ! A114  A(35,34,44)           108.1549         estimate D2E/DX2                !
 ! A115  A(29,35,34)           118.7278         estimate D2E/DX2                !
 ! A116  A(29,35,36)           119.8249         estimate D2E/DX2                !
 ! A117  A(34,35,36)           108.1524         estimate D2E/DX2                !
 ! A118  A(35,36,38)           117.749          estimate D2E/DX2                !
 ! A119  A(35,36,43)           108.2781         estimate D2E/DX2                !
 ! A120  A(38,36,43)           119.7997         estimate D2E/DX2                !
 ! A121  A(33,37,40)           105.566          estimate D2E/DX2                !
 ! A122  A(33,37,46)           104.2578         estimate D2E/DX2                !
 ! A123  A(33,37,72)           112.1421         estimate D2E/DX2                !
 ! A124  A(40,37,46)           113.3585         estimate D2E/DX2                !
 ! A125  A(40,37,72)           110.6945         estimate D2E/DX2                !
 ! A126  A(46,37,72)           110.5878         estimate D2E/DX2                !
 ! A127  A(27,38,36)           122.1532         estimate D2E/DX2                !
 ! A128  A(27,38,39)           109.5875         estimate D2E/DX2                !
 ! A129  A(36,38,39)           119.1977         estimate D2E/DX2                !
 ! A130  A(4,39,38)            107.6584         estimate D2E/DX2                !
 ! A131  A(4,39,41)            120.7877         estimate D2E/DX2                !
 ! A132  A(38,39,41)           120.8128         estimate D2E/DX2                !
 ! A133  A(18,40,32)           118.3043         estimate D2E/DX2                !
 ! A134  A(18,40,37)           130.7073         estimate D2E/DX2                !
 ! A135  A(32,40,37)           107.9289         estimate D2E/DX2                !
 ! A136  A(1,41,39)            119.6323         estimate D2E/DX2                !
 ! A137  A(1,41,42)            108.035          estimate D2E/DX2                !
 ! A138  A(39,41,42)           119.1806         estimate D2E/DX2                !
 ! A139  A(41,42,43)           119.9906         estimate D2E/DX2                !
 ! A140  A(41,42,66)           107.8197         estimate D2E/DX2                !
 ! A141  A(43,42,66)           119.9919         estimate D2E/DX2                !
 ! A142  A(36,43,42)           119.9799         estimate D2E/DX2                !
 ! A143  A(36,43,44)           106.7373         estimate D2E/DX2                !
 ! A144  A(42,43,44)           119.9788         estimate D2E/DX2                !
 ! A145  A(34,44,43)           108.2768         estimate D2E/DX2                !
 ! A146  A(34,44,47)           117.7506         estimate D2E/DX2                !
 ! A147  A(43,44,47)           119.7998         estimate D2E/DX2                !
 ! A148  A(14,45,20)           106.7844         estimate D2E/DX2                !
 ! A149  A(14,45,46)           118.1894         estimate D2E/DX2                !
 ! A150  A(20,45,46)           129.4828         estimate D2E/DX2                !
 ! A151  A(37,46,45)           129.2187         estimate D2E/DX2                !
 ! A152  A(37,46,48)           109.3599         estimate D2E/DX2                !
 ! A153  A(45,46,48)           119.915          estimate D2E/DX2                !
 ! A154  A(18,47,44)           122.1528         estimate D2E/DX2                !
 ! A155  A(18,47,49)           109.5864         estimate D2E/DX2                !
 ! A156  A(44,47,49)           119.1989         estimate D2E/DX2                !
 ! A157  A(17,48,46)           121.23           estimate D2E/DX2                !
 ! A158  A(17,48,50)           121.4747         estimate D2E/DX2                !
 ! A159  A(46,48,50)           114.6192         estimate D2E/DX2                !
 ! A160  A(47,49,51)           107.6579         estimate D2E/DX2                !
 ! A161  A(47,49,66)           120.8117         estimate D2E/DX2                !
 ! A162  A(51,49,66)           120.7879         estimate D2E/DX2                !
 ! A163  A(21,50,33)           119.1129         estimate D2E/DX2                !
 ! A164  A(21,50,48)           112.9009         estimate D2E/DX2                !
 ! A165  A(21,50,70)           105.3777         estimate D2E/DX2                !
 ! A166  A(33,50,48)           102.4993         estimate D2E/DX2                !
 ! A167  A(33,50,70)           108.3679         estimate D2E/DX2                !
 ! A168  A(48,50,70)           108.2093         estimate D2E/DX2                !
 ! A169  A(19,51,49)           109.0447         estimate D2E/DX2                !
 ! A170  A(19,51,52)           122.6224         estimate D2E/DX2                !
 ! A171  A(49,51,52)           118.8456         estimate D2E/DX2                !
 ! A172  A(51,52,53)           118.877          estimate D2E/DX2                !
 ! A173  A(51,52,64)           120.625          estimate D2E/DX2                !
 ! A174  A(53,52,64)           108.3137         estimate D2E/DX2                !
 ! A175  A(52,53,54)           118.8372         estimate D2E/DX2                !
 ! A176  A(52,53,62)           108.3171         estimate D2E/DX2                !
 ! A177  A(54,53,62)           120.5903         estimate D2E/DX2                !
 ! A178  A(20,54,53)           122.6039         estimate D2E/DX2                !
 ! A179  A(20,54,55)           108.9877         estimate D2E/DX2                !
 ! A180  A(53,54,55)           118.8107         estimate D2E/DX2                !
 ! A181  A(14,55,54)           107.3858         estimate D2E/DX2                !
 ! A182  A(14,55,60)           120.701          estimate D2E/DX2                !
 ! A183  A(54,55,60)           120.8631         estimate D2E/DX2                !
 ! A184  A(17,56,22)           118.3282         estimate D2E/DX2                !
 ! A185  A(17,56,57)           107.559          estimate D2E/DX2                !
 ! A186  A(22,56,57)           120.0448         estimate D2E/DX2                !
 ! A187  A(15,57,56)           118.6282         estimate D2E/DX2                !
 ! A188  A(15,57,58)           119.3685         estimate D2E/DX2                !
 ! A189  A(56,57,58)           108.9998         estimate D2E/DX2                !
 ! A190  A(16,58,57)           106.2737         estimate D2E/DX2                !
 ! A191  A(16,58,59)           120.2382         estimate D2E/DX2                !
 ! A192  A(57,58,59)           120.2376         estimate D2E/DX2                !
 ! A193  A(11,59,58)           120.0718         estimate D2E/DX2                !
 ! A194  A(11,59,60)           107.7241         estimate D2E/DX2                !
 ! A195  A(58,59,60)           120.0723         estimate D2E/DX2                !
 ! A196  A(55,60,59)           119.0971         estimate D2E/DX2                !
 ! A197  A(55,60,61)           119.6621         estimate D2E/DX2                !
 ! A198  A(59,60,61)           108.0228         estimate D2E/DX2                !
 ! A199  A(9,61,60)            107.9729         estimate D2E/DX2                !
 ! A200  A(9,61,62)            119.8292         estimate D2E/DX2                !
 ! A201  A(60,61,62)           119.7888         estimate D2E/DX2                !
 ! A202  A(53,62,61)           119.7616         estimate D2E/DX2                !
 ! A203  A(53,62,63)           107.6435         estimate D2E/DX2                !
 ! A204  A(61,62,63)           120.3079         estimate D2E/DX2                !
 ! A205  A(8,63,62)            119.7636         estimate D2E/DX2                !
 ! A206  A(8,63,64)            119.7055         estimate D2E/DX2                !
 ! A207  A(62,63,64)           108.0003         estimate D2E/DX2                !
 ! A208  A(52,64,63)           107.6108         estimate D2E/DX2                !
 ! A209  A(52,64,65)           119.7702         estimate D2E/DX2                !
 ! A210  A(63,64,65)           120.3746         estimate D2E/DX2                !
 ! A211  A(1,65,64)            119.8181         estimate D2E/DX2                !
 ! A212  A(1,65,66)            107.894          estimate D2E/DX2                !
 ! A213  A(64,65,66)           119.839          estimate D2E/DX2                !
 ! A214  A(42,66,49)           119.1802         estimate D2E/DX2                !
 ! A215  A(42,66,65)           108.035          estimate D2E/DX2                !
 ! A216  A(49,66,65)           119.6316         estimate D2E/DX2                !
 ! D1    D(41,1,2,3)            -3.4882         estimate D2E/DX2                !
 ! D2    D(41,1,2,8)          -141.158          estimate D2E/DX2                !
 ! D3    D(65,1,2,3)           133.9895         estimate D2E/DX2                !
 ! D4    D(65,1,2,8)            -3.6803         estimate D2E/DX2                !
 ! D5    D(2,1,41,39)            4.6059         estimate D2E/DX2                !
 ! D6    D(2,1,41,42)          145.4212         estimate D2E/DX2                !
 ! D7    D(65,1,41,39)        -137.3543         estimate D2E/DX2                !
 ! D8    D(65,1,41,42)           3.461          estimate D2E/DX2                !
 ! D9    D(2,1,65,64)            0.0001         estimate D2E/DX2                !
 ! D10   D(2,1,65,66)         -141.97           estimate D2E/DX2                !
 ! D11   D(41,1,65,64)         141.9695         estimate D2E/DX2                !
 ! D12   D(41,1,65,66)          -0.0006         estimate D2E/DX2                !
 ! D13   D(1,2,3,4)             -2.6189         estimate D2E/DX2                !
 ! D14   D(1,2,3,5)           -144.5336         estimate D2E/DX2                !
 ! D15   D(8,2,3,4)            139.8252         estimate D2E/DX2                !
 ! D16   D(8,2,3,5)             -2.0894         estimate D2E/DX2                !
 ! D17   D(1,2,8,6)            145.5182         estimate D2E/DX2                !
 ! D18   D(1,2,8,63)             3.6763         estimate D2E/DX2                !
 ! D19   D(3,2,8,6)              3.3446         estimate D2E/DX2                !
 ! D20   D(3,2,8,63)          -138.4973         estimate D2E/DX2                !
 ! D21   D(2,3,4,26)          -135.1921         estimate D2E/DX2                !
 ! D22   D(2,3,4,39)             7.45           estimate D2E/DX2                !
 ! D23   D(5,3,4,26)             2.8374         estimate D2E/DX2                !
 ! D24   D(5,3,4,39)           145.4796         estimate D2E/DX2                !
 ! D25   D(2,3,5,6)              0.0332         estimate D2E/DX2                !
 ! D26   D(2,3,5,13)           142.6136         estimate D2E/DX2                !
 ! D27   D(4,3,5,6)           -142.6539         estimate D2E/DX2                !
 ! D28   D(4,3,5,13)            -0.0735         estimate D2E/DX2                !
 ! D29   D(3,4,26,25)           -2.4085         estimate D2E/DX2                !
 ! D30   D(3,4,26,27)          149.6283         estimate D2E/DX2                !
 ! D31   D(39,4,26,25)        -148.1948         estimate D2E/DX2                !
 ! D32   D(39,4,26,27)           3.842          estimate D2E/DX2                !
 ! D33   D(3,4,39,38)         -150.9475         estimate D2E/DX2                !
 ! D34   D(3,4,39,41)           -6.3178         estimate D2E/DX2                !
 ! D35   D(26,4,39,38)          -3.6755         estimate D2E/DX2                !
 ! D36   D(26,4,39,41)         140.9542         estimate D2E/DX2                !
 ! D37   D(3,5,6,8)              2.0384         estimate D2E/DX2                !
 ! D38   D(3,5,6,9)            144.4016         estimate D2E/DX2                !
 ! D39   D(13,5,6,8)          -139.7655         estimate D2E/DX2                !
 ! D40   D(13,5,6,9)             2.5977         estimate D2E/DX2                !
 ! D41   D(3,5,13,12)         -145.5309         estimate D2E/DX2                !
 ! D42   D(3,5,13,25)           -3.1021         estimate D2E/DX2                !
 ! D43   D(6,5,13,12)           -7.607          estimate D2E/DX2                !
 ! D44   D(6,5,13,25)          134.8219         estimate D2E/DX2                !
 ! D45   D(5,6,8,2)             -3.3247         estimate D2E/DX2                !
 ! D46   D(5,6,8,63)           138.4912         estimate D2E/DX2                !
 ! D47   D(9,6,8,2)           -145.4432         estimate D2E/DX2                !
 ! D48   D(9,6,8,63)            -3.6273         estimate D2E/DX2                !
 ! D49   D(5,6,9,11)             3.5782         estimate D2E/DX2                !
 ! D50   D(5,6,9,61)          -133.9894         estimate D2E/DX2                !
 ! D51   D(8,6,9,11)           141.1969         estimate D2E/DX2                !
 ! D52   D(8,6,9,61)             3.6293         estimate D2E/DX2                !
 ! D53   D(23,7,10,21)          -8.2568         estimate D2E/DX2                !
 ! D54   D(23,7,10,30)         110.9684         estimate D2E/DX2                !
 ! D55   D(23,7,10,68)        -130.1557         estimate D2E/DX2                !
 ! D56   D(28,7,10,21)        -127.9546         estimate D2E/DX2                !
 ! D57   D(28,7,10,30)          -8.7294         estimate D2E/DX2                !
 ! D58   D(28,7,10,68)         110.1465         estimate D2E/DX2                !
 ! D59   D(67,7,10,21)         111.4269         estimate D2E/DX2                !
 ! D60   D(67,7,10,30)        -129.3479         estimate D2E/DX2                !
 ! D61   D(67,7,10,68)         -10.472          estimate D2E/DX2                !
 ! D62   D(10,7,23,22)           7.0903         estimate D2E/DX2                !
 ! D63   D(10,7,23,24)        -158.6349         estimate D2E/DX2                !
 ! D64   D(28,7,23,22)         121.3779         estimate D2E/DX2                !
 ! D65   D(28,7,23,24)         -44.3473         estimate D2E/DX2                !
 ! D66   D(67,7,23,22)        -113.6374         estimate D2E/DX2                !
 ! D67   D(67,7,23,24)          80.6375         estimate D2E/DX2                !
 ! D68   D(10,7,28,27)         156.1196         estimate D2E/DX2                !
 ! D69   D(10,7,28,29)          -3.2101         estimate D2E/DX2                !
 ! D70   D(23,7,28,27)          42.6168         estimate D2E/DX2                !
 ! D71   D(23,7,28,29)        -116.7129         estimate D2E/DX2                !
 ! D72   D(67,7,28,27)         -82.3153         estimate D2E/DX2                !
 ! D73   D(67,7,28,29)         118.355          estimate D2E/DX2                !
 ! D74   D(2,8,63,62)          137.3998         estimate D2E/DX2                !
 ! D75   D(2,8,63,64)           -0.0004         estimate D2E/DX2                !
 ! D76   D(6,8,63,62)            0.0004         estimate D2E/DX2                !
 ! D77   D(6,8,63,64)         -137.3998         estimate D2E/DX2                !
 ! D78   D(6,9,11,12)           -4.581          estimate D2E/DX2                !
 ! D79   D(6,9,11,59)         -145.2791         estimate D2E/DX2                !
 ! D80   D(61,9,11,12)         137.4415         estimate D2E/DX2                !
 ! D81   D(61,9,11,59)          -3.2566         estimate D2E/DX2                !
 ! D82   D(6,9,61,60)          142.005          estimate D2E/DX2                !
 ! D83   D(6,9,61,62)            0.0004         estimate D2E/DX2                !
 ! D84   D(11,9,61,60)           0.0008         estimate D2E/DX2                !
 ! D85   D(11,9,61,62)        -142.0037         estimate D2E/DX2                !
 ! D86   D(7,10,21,22)           6.2353         estimate D2E/DX2                !
 ! D87   D(7,10,21,50)         131.6721         estimate D2E/DX2                !
 ! D88   D(7,10,21,69)        -108.0208         estimate D2E/DX2                !
 ! D89   D(30,10,21,22)       -107.0826         estimate D2E/DX2                !
 ! D90   D(30,10,21,50)         18.3542         estimate D2E/DX2                !
 ! D91   D(30,10,21,69)        138.6613         estimate D2E/DX2                !
 ! D92   D(68,10,21,22)        128.4208         estimate D2E/DX2                !
 ! D93   D(68,10,21,50)       -106.1425         estimate D2E/DX2                !
 ! D94   D(68,10,21,69)         14.1646         estimate D2E/DX2                !
 ! D95   D(7,10,30,29)          18.1047         estimate D2E/DX2                !
 ! D96   D(7,10,30,31)        -136.4712         estimate D2E/DX2                !
 ! D97   D(21,10,30,29)        134.7821         estimate D2E/DX2                !
 ! D98   D(21,10,30,31)        -19.7937         estimate D2E/DX2                !
 ! D99   D(68,10,30,29)       -100.8884         estimate D2E/DX2                !
 ! D100  D(68,10,30,31)        104.5357         estimate D2E/DX2                !
 ! D101  D(9,11,12,13)          -0.5288         estimate D2E/DX2                !
 ! D102  D(9,11,12,15)        -139.966          estimate D2E/DX2                !
 ! D103  D(59,11,12,13)        135.8944         estimate D2E/DX2                !
 ! D104  D(59,11,12,15)         -3.5428         estimate D2E/DX2                !
 ! D105  D(9,11,59,58)         147.7179         estimate D2E/DX2                !
 ! D106  D(9,11,59,60)           5.2565         estimate D2E/DX2                !
 ! D107  D(12,11,59,58)          6.7611         estimate D2E/DX2                !
 ! D108  D(12,11,59,60)       -135.7003         estimate D2E/DX2                !
 ! D109  D(11,12,13,5)           6.6013         estimate D2E/DX2                !
 ! D110  D(11,12,13,25)       -140.4959         estimate D2E/DX2                !
 ! D111  D(15,12,13,5)         150.7339         estimate D2E/DX2                !
 ! D112  D(15,12,13,25)          3.6368         estimate D2E/DX2                !
 ! D113  D(11,12,15,24)        141.5747         estimate D2E/DX2                !
 ! D114  D(11,12,15,57)         -5.3937         estimate D2E/DX2                !
 ! D115  D(13,12,15,24)         -2.628          estimate D2E/DX2                !
 ! D116  D(13,12,15,57)       -149.5964         estimate D2E/DX2                !
 ! D117  D(5,13,25,24)        -148.8488         estimate D2E/DX2                !
 ! D118  D(5,13,25,26)           3.5092         estimate D2E/DX2                !
 ! D119  D(12,13,25,24)         -3.2521         estimate D2E/DX2                !
 ! D120  D(12,13,25,26)        149.1059         estimate D2E/DX2                !
 ! D121  D(45,14,16,17)         -5.0001         estimate D2E/DX2                !
 ! D122  D(45,14,16,58)        132.1195         estimate D2E/DX2                !
 ! D123  D(55,14,16,17)       -148.1469         estimate D2E/DX2                !
 ! D124  D(55,14,16,58)        -11.0273         estimate D2E/DX2                !
 ! D125  D(16,14,45,20)       -146.9161         estimate D2E/DX2                !
 ! D126  D(16,14,45,46)          9.3139         estimate D2E/DX2                !
 ! D127  D(55,14,45,20)         -0.6187         estimate D2E/DX2                !
 ! D128  D(55,14,45,46)        155.6113         estimate D2E/DX2                !
 ! D129  D(16,14,55,54)        149.595          estimate D2E/DX2                !
 ! D130  D(16,14,55,60)          5.3928         estimate D2E/DX2                !
 ! D131  D(45,14,55,54)          2.63           estimate D2E/DX2                !
 ! D132  D(45,14,55,60)       -141.5723         estimate D2E/DX2                !
 ! D133  D(12,15,24,23)       -155.6068         estimate D2E/DX2                !
 ! D134  D(12,15,24,25)          0.617          estimate D2E/DX2                !
 ! D135  D(57,15,24,23)         -9.3067         estimate D2E/DX2                !
 ! D136  D(57,15,24,25)        146.9171         estimate D2E/DX2                !
 ! D137  D(12,15,57,56)        148.147          estimate D2E/DX2                !
 ! D138  D(12,15,57,58)         11.0266         estimate D2E/DX2                !
 ! D139  D(24,15,57,56)          4.9967         estimate D2E/DX2                !
 ! D140  D(24,15,57,58)       -132.1237         estimate D2E/DX2                !
 ! D141  D(14,16,17,48)         -2.9407         estimate D2E/DX2                !
 ! D142  D(14,16,17,56)        136.3425         estimate D2E/DX2                !
 ! D143  D(58,16,17,48)       -144.0974         estimate D2E/DX2                !
 ! D144  D(58,16,17,56)         -4.8142         estimate D2E/DX2                !
 ! D145  D(14,16,58,57)       -133.1634         estimate D2E/DX2                !
 ! D146  D(14,16,58,59)          7.8587         estimate D2E/DX2                !
 ! D147  D(17,16,58,57)          7.6618         estimate D2E/DX2                !
 ! D148  D(17,16,58,59)        148.684          estimate D2E/DX2                !
 ! D149  D(16,17,48,46)          6.5526         estimate D2E/DX2                !
 ! D150  D(16,17,48,50)        167.015          estimate D2E/DX2                !
 ! D151  D(56,17,48,46)       -128.4947         estimate D2E/DX2                !
 ! D152  D(56,17,48,50)         31.9677         estimate D2E/DX2                !
 ! D153  D(16,17,56,22)       -140.0976         estimate D2E/DX2                !
 ! D154  D(16,17,56,57)          0.003          estimate D2E/DX2                !
 ! D155  D(48,17,56,22)          0.0001         estimate D2E/DX2                !
 ! D156  D(48,17,56,57)        140.1007         estimate D2E/DX2                !
 ! D157  D(40,18,19,20)          6.072          estimate D2E/DX2                !
 ! D158  D(40,18,19,51)        154.9581         estimate D2E/DX2                !
 ! D159  D(47,18,19,20)       -146.3794         estimate D2E/DX2                !
 ! D160  D(47,18,19,51)          2.5067         estimate D2E/DX2                !
 ! D161  D(19,18,40,32)       -141.1092         estimate D2E/DX2                !
 ! D162  D(19,18,40,37)         16.4947         estimate D2E/DX2                !
 ! D163  D(47,18,40,32)          8.4817         estimate D2E/DX2                !
 ! D164  D(47,18,40,37)        166.0856         estimate D2E/DX2                !
 ! D165  D(19,18,47,44)        146.3504         estimate D2E/DX2                !
 ! D166  D(19,18,47,49)         -0.2933         estimate D2E/DX2                !
 ! D167  D(40,18,47,44)         -9.4161         estimate D2E/DX2                !
 ! D168  D(40,18,47,49)       -156.0598         estimate D2E/DX2                !
 ! D169  D(18,19,20,45)          0.501          estimate D2E/DX2                !
 ! D170  D(18,19,20,54)        146.543          estimate D2E/DX2                !
 ! D171  D(51,19,20,45)       -145.3188         estimate D2E/DX2                !
 ! D172  D(51,19,20,54)          0.7231         estimate D2E/DX2                !
 ! D173  D(18,19,51,49)         -3.8409         estimate D2E/DX2                !
 ! D174  D(18,19,51,52)       -149.6267         estimate D2E/DX2                !
 ! D175  D(20,19,51,49)        148.1983         estimate D2E/DX2                !
 ! D176  D(20,19,51,52)          2.4125         estimate D2E/DX2                !
 ! D177  D(19,20,45,14)        147.5328         estimate D2E/DX2                !
 ! D178  D(19,20,45,46)         -5.0613         estimate D2E/DX2                !
 ! D179  D(54,20,45,14)         -1.603          estimate D2E/DX2                !
 ! D180  D(54,20,45,46)       -154.1972         estimate D2E/DX2                !
 ! D181  D(19,20,54,53)         -3.5084         estimate D2E/DX2                !
 ! D182  D(19,20,54,55)       -149.1041         estimate D2E/DX2                !
 ! D183  D(45,20,54,53)        148.8481         estimate D2E/DX2                !
 ! D184  D(45,20,54,55)          3.2524         estimate D2E/DX2                !
 ! D185  D(10,21,22,23)         -1.8732         estimate D2E/DX2                !
 ! D186  D(10,21,22,56)        159.7972         estimate D2E/DX2                !
 ! D187  D(50,21,22,23)       -131.2805         estimate D2E/DX2                !
 ! D188  D(50,21,22,56)         30.3899         estimate D2E/DX2                !
 ! D189  D(69,21,22,23)        112.4959         estimate D2E/DX2                !
 ! D190  D(69,21,22,56)        -85.8336         estimate D2E/DX2                !
 ! D191  D(10,21,50,33)         -0.0063         estimate D2E/DX2                !
 ! D192  D(10,21,50,48)       -120.2826         estimate D2E/DX2                !
 ! D193  D(10,21,50,70)        121.8126         estimate D2E/DX2                !
 ! D194  D(22,21,50,33)        120.2782         estimate D2E/DX2                !
 ! D195  D(22,21,50,48)          0.0019         estimate D2E/DX2                !
 ! D196  D(22,21,50,70)       -117.9029         estimate D2E/DX2                !
 ! D197  D(69,21,50,33)       -121.821          estimate D2E/DX2                !
 ! D198  D(69,21,50,48)        117.9027         estimate D2E/DX2                !
 ! D199  D(69,21,50,70)         -0.0021         estimate D2E/DX2                !
 ! D200  D(21,22,23,7)          -3.4714         estimate D2E/DX2                !
 ! D201  D(21,22,23,24)        163.7976         estimate D2E/DX2                !
 ! D202  D(56,22,23,7)        -165.1905         estimate D2E/DX2                !
 ! D203  D(56,22,23,24)          2.0785         estimate D2E/DX2                !
 ! D204  D(21,22,56,17)        -31.9658         estimate D2E/DX2                !
 ! D205  D(21,22,56,57)       -167.0165         estimate D2E/DX2                !
 ! D206  D(23,22,56,17)        128.5013         estimate D2E/DX2                !
 ! D207  D(23,22,56,57)         -6.5494         estimate D2E/DX2                !
 ! D208  D(7,23,24,15)         170.1253         estimate D2E/DX2                !
 ! D209  D(7,23,24,25)          20.1316         estimate D2E/DX2                !
 ! D210  D(22,23,24,15)          5.6934         estimate D2E/DX2                !
 ! D211  D(22,23,24,25)       -144.3002         estimate D2E/DX2                !
 ! D212  D(15,24,25,13)          1.6039         estimate D2E/DX2                !
 ! D213  D(15,24,25,26)       -147.5345         estimate D2E/DX2                !
 ! D214  D(23,24,25,13)        154.1918         estimate D2E/DX2                !
 ! D215  D(23,24,25,26)          5.0534         estimate D2E/DX2                !
 ! D216  D(13,25,26,4)          -0.7267         estimate D2E/DX2                !
 ! D217  D(13,25,26,27)       -146.5441         estimate D2E/DX2                !
 ! D218  D(24,25,26,4)         145.3176         estimate D2E/DX2                !
 ! D219  D(24,25,26,27)         -0.4998         estimate D2E/DX2                !
 ! D220  D(4,26,27,28)        -154.9618         estimate D2E/DX2                !
 ! D221  D(4,26,27,38)          -2.5079         estimate D2E/DX2                !
 ! D222  D(25,26,27,28)         -6.0787         estimate D2E/DX2                !
 ! D223  D(25,26,27,38)        146.3752         estimate D2E/DX2                !
 ! D224  D(26,27,28,7)         -16.4754         estimate D2E/DX2                !
 ! D225  D(26,27,28,29)        141.1002         estimate D2E/DX2                !
 ! D226  D(38,27,28,7)        -166.0688         estimate D2E/DX2                !
 ! D227  D(38,27,28,29)         -8.4932         estimate D2E/DX2                !
 ! D228  D(26,27,38,36)       -146.3495         estimate D2E/DX2                !
 ! D229  D(26,27,38,39)          0.2942         estimate D2E/DX2                !
 ! D230  D(28,27,38,36)          9.421          estimate D2E/DX2                !
 ! D231  D(28,27,38,39)        156.0647         estimate D2E/DX2                !
 ! D232  D(7,28,29,30)          14.8879         estimate D2E/DX2                !
 ! D233  D(7,28,29,35)         163.7989         estimate D2E/DX2                !
 ! D234  D(27,28,29,30)       -147.4177         estimate D2E/DX2                !
 ! D235  D(27,28,29,35)          1.4933         estimate D2E/DX2                !
 ! D236  D(28,29,30,10)        -21.4028         estimate D2E/DX2                !
 ! D237  D(28,29,30,31)        134.9778         estimate D2E/DX2                !
 ! D238  D(35,29,30,10)       -171.107          estimate D2E/DX2                !
 ! D239  D(35,29,30,31)        -14.7263         estimate D2E/DX2                !
 ! D240  D(28,29,35,34)       -131.1523         estimate D2E/DX2                !
 ! D241  D(28,29,35,36)          5.2119         estimate D2E/DX2                !
 ! D242  D(30,29,35,34)         14.615          estimate D2E/DX2                !
 ! D243  D(30,29,35,36)        150.9792         estimate D2E/DX2                !
 ! D244  D(10,30,31,32)        152.3476         estimate D2E/DX2                !
 ! D245  D(10,30,31,33)          0.0023         estimate D2E/DX2                !
 ! D246  D(29,30,31,32)         -0.0031         estimate D2E/DX2                !
 ! D247  D(29,30,31,33)       -152.3485         estimate D2E/DX2                !
 ! D248  D(30,31,32,34)         14.7321         estimate D2E/DX2                !
 ! D249  D(30,31,32,40)       -134.973          estimate D2E/DX2                !
 ! D250  D(33,31,32,34)        171.1109         estimate D2E/DX2                !
 ! D251  D(33,31,32,40)         21.4059         estimate D2E/DX2                !
 ! D252  D(30,31,33,37)        136.4686         estimate D2E/DX2                !
 ! D253  D(30,31,33,50)         19.7893         estimate D2E/DX2                !
 ! D254  D(30,31,33,71)       -104.5383         estimate D2E/DX2                !
 ! D255  D(32,31,33,37)        -18.1017         estimate D2E/DX2                !
 ! D256  D(32,31,33,50)       -134.781          estimate D2E/DX2                !
 ! D257  D(32,31,33,71)        100.8914         estimate D2E/DX2                !
 ! D258  D(31,32,34,35)        -14.619          estimate D2E/DX2                !
 ! D259  D(31,32,34,44)       -150.9848         estimate D2E/DX2                !
 ! D260  D(40,32,34,35)        131.148          estimate D2E/DX2                !
 ! D261  D(40,32,34,44)         -5.2179         estimate D2E/DX2                !
 ! D262  D(31,32,40,18)        147.431          estimate D2E/DX2                !
 ! D263  D(31,32,40,37)        -14.8972         estimate D2E/DX2                !
 ! D264  D(34,32,40,18)         -1.4808         estimate D2E/DX2                !
 ! D265  D(34,32,40,37)       -163.8089         estimate D2E/DX2                !
 ! D266  D(31,33,37,40)          8.7221         estimate D2E/DX2                !
 ! D267  D(31,33,37,46)       -110.9771         estimate D2E/DX2                !
 ! D268  D(31,33,37,72)        129.346          estimate D2E/DX2                !
 ! D269  D(50,33,37,40)        127.9518         estimate D2E/DX2                !
 ! D270  D(50,33,37,46)          8.2526         estimate D2E/DX2                !
 ! D271  D(50,33,37,72)       -111.4243         estimate D2E/DX2                !
 ! D272  D(71,33,37,40)       -110.156          estimate D2E/DX2                !
 ! D273  D(71,33,37,46)        130.1448         estimate D2E/DX2                !
 ! D274  D(71,33,37,72)         10.468          estimate D2E/DX2                !
 ! D275  D(31,33,50,21)        -18.344          estimate D2E/DX2                !
 ! D276  D(31,33,50,48)        107.0837         estimate D2E/DX2                !
 ! D277  D(31,33,50,70)       -138.6572         estimate D2E/DX2                !
 ! D278  D(37,33,50,21)       -131.6642         estimate D2E/DX2                !
 ! D279  D(37,33,50,48)         -6.2365         estimate D2E/DX2                !
 ! D280  D(37,33,50,70)        108.0226         estimate D2E/DX2                !
 ! D281  D(71,33,50,21)        106.1547         estimate D2E/DX2                !
 ! D282  D(71,33,50,48)       -128.4176         estimate D2E/DX2                !
 ! D283  D(71,33,50,70)        -14.1585         estimate D2E/DX2                !
 ! D284  D(32,34,35,29)          0.0013         estimate D2E/DX2                !
 ! D285  D(32,34,35,36)       -140.9466         estimate D2E/DX2                !
 ! D286  D(44,34,35,29)        140.9489         estimate D2E/DX2                !
 ! D287  D(44,34,35,36)          0.0009         estimate D2E/DX2                !
 ! D288  D(32,34,44,43)        144.3366         estimate D2E/DX2                !
 ! D289  D(32,34,44,47)          4.4151         estimate D2E/DX2                !
 ! D290  D(35,34,44,43)          3.8913         estimate D2E/DX2                !
 ! D291  D(35,34,44,47)       -136.0302         estimate D2E/DX2                !
 ! D292  D(29,35,36,38)         -4.4163         estimate D2E/DX2                !
 ! D293  D(29,35,36,43)       -144.3372         estimate D2E/DX2                !
 ! D294  D(34,35,36,38)        136.0282         estimate D2E/DX2                !
 ! D295  D(34,35,36,43)         -3.8928         estimate D2E/DX2                !
 ! D296  D(35,36,38,27)         -2.7698         estimate D2E/DX2                !
 ! D297  D(35,36,38,39)       -146.3693         estimate D2E/DX2                !
 ! D298  D(43,36,38,27)        132.4395         estimate D2E/DX2                !
 ! D299  D(43,36,38,39)        -11.16           estimate D2E/DX2                !
 ! D300  D(35,36,43,42)        147.0895         estimate D2E/DX2                !
 ! D301  D(35,36,43,44)          6.206          estimate D2E/DX2                !
 ! D302  D(38,36,43,42)          8.1325         estimate D2E/DX2                !
 ! D303  D(38,36,43,44)       -132.751          estimate D2E/DX2                !
 ! D304  D(33,37,40,18)       -156.1345         estimate D2E/DX2                !
 ! D305  D(33,37,40,32)          3.2205         estimate D2E/DX2                !
 ! D306  D(46,37,40,18)        -42.6317         estimate D2E/DX2                !
 ! D307  D(46,37,40,32)        116.7233         estimate D2E/DX2                !
 ! D308  D(72,37,40,18)         82.3001         estimate D2E/DX2                !
 ! D309  D(72,37,40,32)       -118.3449         estimate D2E/DX2                !
 ! D310  D(33,37,46,45)        158.6283         estimate D2E/DX2                !
 ! D311  D(33,37,46,48)         -7.0824         estimate D2E/DX2                !
 ! D312  D(40,37,46,45)         44.3392         estimate D2E/DX2                !
 ! D313  D(40,37,46,48)       -121.3715         estimate D2E/DX2                !
 ! D314  D(72,37,46,45)        -80.6501         estimate D2E/DX2                !
 ! D315  D(72,37,46,48)        113.6392         estimate D2E/DX2                !
 ! D316  D(27,38,39,4)           2.0697         estimate D2E/DX2                !
 ! D317  D(27,38,39,41)       -142.5494         estimate D2E/DX2                !
 ! D318  D(36,38,39,4)         149.843          estimate D2E/DX2                !
 ! D319  D(36,38,39,41)          5.224          estimate D2E/DX2                !
 ! D320  D(4,39,41,1)            0.3177         estimate D2E/DX2                !
 ! D321  D(4,39,41,42)        -136.2017         estimate D2E/DX2                !
 ! D322  D(38,39,41,1)         140.3588         estimate D2E/DX2                !
 ! D323  D(38,39,41,42)          3.8394         estimate D2E/DX2                !
 ! D324  D(1,41,42,43)        -147.946          estimate D2E/DX2                !
 ! D325  D(1,41,42,66)          -5.5962         estimate D2E/DX2                !
 ! D326  D(39,41,42,43)         -6.9239         estimate D2E/DX2                !
 ! D327  D(39,41,42,66)        135.4259         estimate D2E/DX2                !
 ! D328  D(41,42,43,36)          1.0227         estimate D2E/DX2                !
 ! D329  D(41,42,43,44)        136.7969         estimate D2E/DX2                !
 ! D330  D(66,42,43,36)       -136.7988         estimate D2E/DX2                !
 ! D331  D(66,42,43,44)         -1.0246         estimate D2E/DX2                !
 ! D332  D(41,42,66,49)       -135.4246         estimate D2E/DX2                !
 ! D333  D(41,42,66,65)          5.5958         estimate D2E/DX2                !
 ! D334  D(43,42,66,49)          6.9246         estimate D2E/DX2                !
 ! D335  D(43,42,66,65)        147.9451         estimate D2E/DX2                !
 ! D336  D(36,43,44,34)         -6.2053         estimate D2E/DX2                !
 ! D337  D(36,43,44,47)        132.7528         estimate D2E/DX2                !
 ! D338  D(42,43,44,34)       -147.0893         estimate D2E/DX2                !
 ! D339  D(42,43,44,47)         -8.1312         estimate D2E/DX2                !
 ! D340  D(34,44,47,18)          2.7714         estimate D2E/DX2                !
 ! D341  D(34,44,47,49)        146.3702         estimate D2E/DX2                !
 ! D342  D(43,44,47,18)       -132.4381         estimate D2E/DX2                !
 ! D343  D(43,44,47,49)         11.1607         estimate D2E/DX2                !
 ! D344  D(14,45,46,37)       -170.115          estimate D2E/DX2                !
 ! D345  D(14,45,46,48)         -5.6993         estimate D2E/DX2                !
 ! D346  D(20,45,46,37)        -20.1139         estimate D2E/DX2                !
 ! D347  D(20,45,46,48)        144.3018         estimate D2E/DX2                !
 ! D348  D(37,46,48,17)        165.1772         estimate D2E/DX2                !
 ! D349  D(37,46,48,50)          3.462          estimate D2E/DX2                !
 ! D350  D(45,46,48,17)         -2.0778         estimate D2E/DX2                !
 ! D351  D(45,46,48,50)       -163.793          estimate D2E/DX2                !
 ! D352  D(18,47,49,51)         -2.07           estimate D2E/DX2                !
 ! D353  D(18,47,49,66)        142.547          estimate D2E/DX2                !
 ! D354  D(44,47,49,51)       -149.8427         estimate D2E/DX2                !
 ! D355  D(44,47,49,66)         -5.2257         estimate D2E/DX2                !
 ! D356  D(17,48,50,21)        -30.3938         estimate D2E/DX2                !
 ! D357  D(17,48,50,33)       -159.7864         estimate D2E/DX2                !
 ! D358  D(17,48,50,70)         85.8385         estimate D2E/DX2                !
 ! D359  D(46,48,50,21)        131.272          estimate D2E/DX2                !
 ! D360  D(46,48,50,33)          1.8794         estimate D2E/DX2                !
 ! D361  D(46,48,50,70)       -112.4956         estimate D2E/DX2                !
 ! D362  D(47,49,51,19)          3.675          estimate D2E/DX2                !
 ! D363  D(47,49,51,52)        150.9459         estimate D2E/DX2                !
 ! D364  D(66,49,51,19)       -140.9521         estimate D2E/DX2                !
 ! D365  D(66,49,51,52)          6.3188         estimate D2E/DX2                !
 ! D366  D(47,49,66,42)         -3.8382         estimate D2E/DX2                !
 ! D367  D(47,49,66,65)       -140.3561         estimate D2E/DX2                !
 ! D368  D(51,49,66,42)        136.2001         estimate D2E/DX2                !
 ! D369  D(51,49,66,65)         -0.3177         estimate D2E/DX2                !
 ! D370  D(19,51,52,53)         -2.8388         estimate D2E/DX2                !
 ! D371  D(19,51,52,64)        135.1904         estimate D2E/DX2                !
 ! D372  D(49,51,52,53)       -145.4803         estimate D2E/DX2                !
 ! D373  D(49,51,52,64)         -7.4511         estimate D2E/DX2                !
 ! D374  D(51,52,53,54)          0.0721         estimate D2E/DX2                !
 ! D375  D(51,52,53,62)        142.6534         estimate D2E/DX2                !
 ! D376  D(64,52,53,54)       -142.6144         estimate D2E/DX2                !
 ! D377  D(64,52,53,62)         -0.033          estimate D2E/DX2                !
 ! D378  D(51,52,64,63)       -139.8241         estimate D2E/DX2                !
 ! D379  D(51,52,64,65)          2.619          estimate D2E/DX2                !
 ! D380  D(53,52,64,63)          2.0901         estimate D2E/DX2                !
 ! D381  D(53,52,64,65)        144.5332         estimate D2E/DX2                !
 ! D382  D(52,53,54,20)          3.1039         estimate D2E/DX2                !
 ! D383  D(52,53,54,55)        145.5315         estimate D2E/DX2                !
 ! D384  D(62,53,54,20)       -134.8208         estimate D2E/DX2                !
 ! D385  D(62,53,54,55)          7.6068         estimate D2E/DX2                !
 ! D386  D(52,53,62,61)       -144.4016         estimate D2E/DX2                !
 ! D387  D(52,53,62,63)         -2.0393         estimate D2E/DX2                !
 ! D388  D(54,53,62,61)         -2.5966         estimate D2E/DX2                !
 ! D389  D(54,53,62,63)        139.7657         estimate D2E/DX2                !
 ! D390  D(20,54,55,14)         -3.6381         estimate D2E/DX2                !
 ! D391  D(20,54,55,60)        140.4944         estimate D2E/DX2                !
 ! D392  D(53,54,55,14)       -150.7341         estimate D2E/DX2                !
 ! D393  D(53,54,55,60)         -6.6017         estimate D2E/DX2                !
 ! D394  D(14,55,60,59)          3.5445         estimate D2E/DX2                !
 ! D395  D(14,55,60,61)        139.9656         estimate D2E/DX2                !
 ! D396  D(54,55,60,59)       -135.8922         estimate D2E/DX2                !
 ! D397  D(54,55,60,61)          0.5289         estimate D2E/DX2                !
 ! D398  D(17,56,57,15)       -136.3484         estimate D2E/DX2                !
 ! D399  D(17,56,57,58)          4.8093         estimate D2E/DX2                !
 ! D400  D(22,56,57,15)          2.9388         estimate D2E/DX2                !
 ! D401  D(22,56,57,58)        144.0965         estimate D2E/DX2                !
 ! D402  D(15,57,58,16)        133.1654         estimate D2E/DX2                !
 ! D403  D(15,57,58,59)         -7.857          estimate D2E/DX2                !
 ! D404  D(56,57,58,16)         -7.6599         estimate D2E/DX2                !
 ! D405  D(56,57,58,59)       -148.6824         estimate D2E/DX2                !
 ! D406  D(16,58,59,11)       -136.7722         estimate D2E/DX2                !
 ! D407  D(16,58,59,60)          1.1107         estimate D2E/DX2                !
 ! D408  D(57,58,59,11)         -1.1117         estimate D2E/DX2                !
 ! D409  D(57,58,59,60)        136.7713         estimate D2E/DX2                !
 ! D410  D(11,59,60,55)        135.6993         estimate D2E/DX2                !
 ! D411  D(11,59,60,61)         -5.2559         estimate D2E/DX2                !
 ! D412  D(58,59,60,55)         -6.7619         estimate D2E/DX2                !
 ! D413  D(58,59,60,61)       -147.7171         estimate D2E/DX2                !
 ! D414  D(55,60,61,9)        -137.4408         estimate D2E/DX2                !
 ! D415  D(55,60,61,62)          4.5818         estimate D2E/DX2                !
 ! D416  D(59,60,61,9)           3.2552         estimate D2E/DX2                !
 ! D417  D(59,60,61,62)        145.2779         estimate D2E/DX2                !
 ! D418  D(9,61,62,53)         133.9884         estimate D2E/DX2                !
 ! D419  D(9,61,62,63)          -3.6297         estimate D2E/DX2                !
 ! D420  D(60,61,62,53)         -3.5796         estimate D2E/DX2                !
 ! D421  D(60,61,62,63)       -141.1977         estimate D2E/DX2                !
 ! D422  D(53,62,63,8)        -138.4907         estimate D2E/DX2                !
 ! D423  D(53,62,63,64)          3.3261         estimate D2E/DX2                !
 ! D424  D(61,62,63,8)           3.6269         estimate D2E/DX2                !
 ! D425  D(61,62,63,64)        145.4437         estimate D2E/DX2                !
 ! D426  D(8,63,64,52)         138.4971         estimate D2E/DX2                !
 ! D427  D(8,63,64,65)          -3.6756         estimate D2E/DX2                !
 ! D428  D(62,63,64,52)         -3.3458         estimate D2E/DX2                !
 ! D429  D(62,63,64,65)       -145.5185         estimate D2E/DX2                !
 ! D430  D(52,64,65,1)        -133.9888         estimate D2E/DX2                !
 ! D431  D(52,64,65,66)          3.4892         estimate D2E/DX2                !
 ! D432  D(63,64,65,1)           3.68           estimate D2E/DX2                !
 ! D433  D(63,64,65,66)        141.1579         estimate D2E/DX2                !
 ! D434  D(1,65,66,42)          -3.4601         estimate D2E/DX2                !
 ! D435  D(1,65,66,49)         137.3537         estimate D2E/DX2                !
 ! D436  D(64,65,66,42)       -145.4208         estimate D2E/DX2                !
 ! D437  D(64,65,66,49)         -4.607          estimate D2E/DX2                !
 --------------------------------------------------------------------------------
 Trust Radius=3.00D-01 FncErr=1.00D-07 GrdErr=1.00D-06 EigMax=2.50D+02 EigMin=1.00D-04
 Number of steps in this run=    432 maximum allowed number of steps=    432.
[...]
 Alpha virt. eigenvalues --    0.93859   0.94125   0.94355   0.94630   0.95163
 Alpha virt. eigenvalues --    0.95382   0.96355   0.96680   0.96789   0.97117
 Alpha virt. eigenvalues --    0.97286   0.97618   0.97957   0.98561   0.98753
 Alpha virt. eigenvalues --    0.99755   1.00008   1.00330   1.00420   1.01423
 Alpha virt. eigenvalues --    1.01975   1.02036   1.03132   1.03675   1.04016
 Alpha virt. eigenvalues --    1.04154   1.04208   1.04992   1.05066   1.05323
 Alpha virt. eigenvalues --    1.05694   1.05994   1.06447   1.06684   1.07402
 Alpha virt. eigenvalues --    1.08195   1.08455   1.08971   1.09096   1.09685
 Alpha virt. eigenvalues --    1.09816   1.10174   1.10691   1.10968   1.11429
 Alpha virt. eigenvalues --    1.11719   1.12255   1.12474   1.13020   1.13293
 Alpha virt. eigenvalues --    1.14622   1.15520   1.15919   1.16116   1.16653
 Alpha virt. eigenvalues --    1.16714   1.17343   1.17677   1.18411   1.19393
 Alpha virt. eigenvalues --    1.19771   1.20518   1.20853   1.21108   1.21350
 Alpha virt. eigenvalues --    1.21485   1.22404   1.22922   1.23245   1.23392
 Alpha virt. eigenvalues --    1.23968   1.24168   1.24541   1.24760   1.25375
 Alpha virt. eigenvalues --    1.25836   1.26075   1.26513   1.26822   1.27212
 Alpha virt. eigenvalues --    1.27929   1.28993   1.29634   1.29711   1.30538
 Alpha virt. eigenvalues --    1.30634   1.31132   1.32316   1.32971   1.32999
 Alpha virt. eigenvalues --    1.33208   1.33708   1.33880   1.34090   1.34267
 Alpha virt. eigenvalues --    1.34845   1.34958   1.35461   1.35654   1.35906
 Alpha virt. eigenvalues --    1.36048   1.36162   1.36984   1.37968   1.38038
 Alpha virt. eigenvalues --    1.38630   1.38681   1.39080   1.39456   1.39615
 Alpha virt. eigenvalues --    1.39830   1.40425   1.40667   1.40852   1.41435
 Alpha virt. eigenvalues --    1.41485   1.41850   1.42201   1.42507   1.42791
 Alpha virt. eigenvalues --    1.43631   1.43935   1.43990   1.44235   1.44796
 Alpha virt. eigenvalues --    1.45105   1.45231   1.45508   1.45666   1.45898
 Alpha virt. eigenvalues --    1.46036   1.46254   1.46514   1.46599   1.47164
 Alpha virt. eigenvalues --    1.47210   1.47416   1.47929   1.48095   1.48173
 Alpha virt. eigenvalues --    1.48481   1.48763   1.49134   1.49272   1.49612
 Alpha virt. eigenvalues --    1.49637   1.49841   1.50102   1.50599   1.50770
 Alpha virt. eigenvalues --    1.50866   1.51327   1.52011   1.52086   1.52308
 Alpha virt. eigenvalues --    1.52349   1.52616   1.52629   1.53038   1.53258
 Alpha virt. eigenvalues --    1.53926   1.54091   1.54757   1.54875   1.55038
 Alpha virt. eigenvalues --    1.55198   1.56132   1.56216   1.56846   1.57048
 Alpha virt. eigenvalues --    1.57872   1.57958   1.58344   1.58630   1.58752
 Alpha virt. eigenvalues --    1.58916   1.60317   1.60520   1.60917   1.61009
 Alpha virt. eigenvalues --    1.61400   1.61485   1.61867   1.62496   1.62697
 Alpha virt. eigenvalues --    1.62989   1.63166   1.63816   1.64476   1.65044
 Alpha virt. eigenvalues --    1.65233   1.65910   1.66063   1.66196   1.66847
 Alpha virt. eigenvalues --    1.67485   1.67952   1.68282   1.68937   1.69221
 Alpha virt. eigenvalues --    1.69264   1.69567   1.69640   1.69821   1.70732
 Alpha virt. eigenvalues --    1.71186   1.71281   1.71907   1.72120   1.73261
 Alpha virt. eigenvalues --    1.73539   1.73779   1.73867   1.74359   1.74406
 Alpha virt. eigenvalues --    1.75090   1.75261   1.76219   1.76347   1.76957
 Alpha virt. eigenvalues --    1.77259   1.77865   1.78549   1.78796   1.78982
 Alpha virt. eigenvalues --    1.79095   1.79804   1.79831   1.80365   1.80892
 Alpha virt. eigenvalues --    1.81232   1.81518   1.81580   1.81994   1.82098
 Alpha virt. eigenvalues --    1.82567   1.82885   1.83878   1.83930   1.84614
 Alpha virt. eigenvalues --    1.84822   1.84896   1.85912   1.85918   1.86524
 Alpha virt. eigenvalues --    1.87753   1.87949   1.88252   1.88590   1.89130
 Alpha virt. eigenvalues --    1.89854   1.90021   1.90045   1.90613   1.90850
 Alpha virt. eigenvalues --    1.91103   1.91706   1.92154   1.92480   1.93075
 Alpha virt. eigenvalues --    1.93324   1.93743   1.93908   1.94680   1.95067
 Alpha virt. eigenvalues --    1.95363   1.96383   1.96511   1.97689   1.97881
 Alpha virt. eigenvalues --    1.98887   1.99090   1.99490   2.00326   2.01045
 Alpha virt. eigenvalues --    2.01103   2.01754   2.02671   2.03048   2.03191
 Alpha virt. eigenvalues --    2.03302   2.03525   2.03540   2.04323   2.04661
 Alpha virt. eigenvalues --    2.05086   2.05160   2.05883   2.06231   2.06351
 Alpha virt. eigenvalues --    2.06996   2.07685   2.08240   2.08501   2.08923
 Alpha virt. eigenvalues --    2.08946   2.09350   2.10550   2.10693   2.11154
 Alpha virt. eigenvalues --    2.11245   2.11783   2.12046   2.12631   2.12691
 Alpha virt. eigenvalues --    2.12832   2.14420   2.15070   2.15711   2.15865
 Alpha virt. eigenvalues --    2.15952   2.16361   2.17067   2.17917   2.18098
 Alpha virt. eigenvalues --    2.18270   2.18982   2.20122   2.20706   2.21602
 Alpha virt. eigenvalues --    2.21875   2.22644   2.22649   2.23444   2.23541
 Alpha virt. eigenvalues --    2.24000   2.24937   2.25525   2.25662   2.26041
 Alpha virt. eigenvalues --    2.26761   2.27058   2.27837   2.28139   2.29577
 Alpha virt. eigenvalues --    2.29698   2.30598   2.30802   2.31879   2.31947
 Alpha virt. eigenvalues --    2.32397   2.32521   2.32645   2.33217   2.34056
 Alpha virt. eigenvalues --    2.34620   2.35077   2.36803   2.37153   2.37316
 Alpha virt. eigenvalues --    2.37398   2.37702   2.38001   2.39073   2.39371
 Alpha virt. eigenvalues --    2.40684   2.41102   2.41254   2.41561   2.42037
 Alpha virt. eigenvalues --    2.42307   2.42930   2.43619   2.43761   2.43949
 Alpha virt. eigenvalues --    2.44029   2.45182   2.45497   2.45959   2.46206
 Alpha virt. eigenvalues --    2.46485   2.46503   2.47123   2.48025   2.48334
 Alpha virt. eigenvalues --    2.49260   2.50506   2.51155   2.51397   2.52307
 Alpha virt. eigenvalues --    2.53043   2.53111   2.53872   2.54352   2.55310
 Alpha virt. eigenvalues --    2.56117   2.56283   2.56602   2.57703   2.58021
 Alpha virt. eigenvalues --    2.58026   2.58201   2.58551   2.58607   2.58935
 Alpha virt. eigenvalues --    2.59477   2.59781   2.60281   2.60847   2.61273
 Alpha virt. eigenvalues --    2.61673   2.62465   2.63392   2.63807   2.64348
 Alpha virt. eigenvalues --    2.65420   2.65482   2.65978   2.66573   2.66611
 Alpha virt. eigenvalues --    2.66916   2.67188   2.68193   2.69589   2.70306
 Alpha virt. eigenvalues --    2.70616   2.71869   2.72635   2.73067   2.73298
 Alpha virt. eigenvalues --    2.73675   2.74462   2.75225   2.75719   2.75957
 Alpha virt. eigenvalues --    2.76485   2.77348   2.78356   2.79726   2.80673
 Alpha virt. eigenvalues --    2.81043   2.82134   2.82506   2.82668   2.84137
 Alpha virt. eigenvalues --    2.84417   2.84657   2.85089   2.85710   2.86527
 Alpha virt. eigenvalues --    2.86935   2.87742   2.88756   2.90193   2.90333
 Alpha virt. eigenvalues --    2.90803   2.90886   2.91915   2.93235   2.94234
 Alpha virt. eigenvalues --    2.94298   2.94756   2.95107   2.95552   2.96406
 Alpha virt. eigenvalues --    2.97374   2.98037   2.98190   2.99120   2.99347
 Alpha virt. eigenvalues --    2.99799   2.99926   3.00022   3.00483   3.00854
 Alpha virt. eigenvalues --    3.01246   3.01624   3.02602   3.02784   3.03446
 Alpha virt. eigenvalues --    3.03664   3.04385   3.04450   3.04804   3.04882
 Alpha virt. eigenvalues --    3.05044   3.05236   3.05551   3.06124   3.06185
 Alpha virt. eigenvalues --    3.06521   3.07468   3.07733   3.07950   3.08119
 Alpha virt. eigenvalues --    3.08300   3.09407   3.09807   3.10310   3.10589
 Alpha virt. eigenvalues --    3.10708   3.11158   3.11338   3.11968   3.12381
 Alpha virt. eigenvalues --    3.12456   3.12759   3.13423   3.13813   3.13874
 Alpha virt. eigenvalues --    3.14271   3.14333   3.14714   3.14889   3.14929
 Alpha virt. eigenvalues --    3.15150   3.15755   3.15812   3.16131   3.16386
 Alpha virt. eigenvalues --    3.16458   3.16750   3.17296   3.17852   3.18601
 Alpha virt. eigenvalues --    3.18944   3.20180   3.20748   3.20957   3.21023
 Alpha virt. eigenvalues --    3.21459   3.21597   3.23183   3.23271   3.24849
 Alpha virt. eigenvalues --    3.26883   3.27023   3.28604   3.30004   3.32175
 Alpha virt. eigenvalues --    3.32213   3.36503   3.37927   3.40868   3.41877
 Alpha virt. eigenvalues --    3.42040   3.44472   3.46474   3.47823   3.48050
 Alpha virt. eigenvalues --    3.50744   3.50758   3.52980   3.53633   3.53860
 Alpha virt. eigenvalues --    3.54061   3.54894   3.56469   3.56949   3.57031
 Alpha virt. eigenvalues --    3.58366   3.58963   3.60581   3.60962   3.61809
 Alpha virt. eigenvalues --    3.62856   3.65179   3.65573   3.65662   3.68133
 Alpha virt. eigenvalues --    3.68622   3.70196   3.70553   3.70859   3.71481
 Alpha virt. eigenvalues --    3.71725   3.73544   3.74831   3.75689   3.76178
 Alpha virt. eigenvalues --    3.78481   3.79277   3.80006   3.82370   3.83064
 Alpha virt. eigenvalues --    3.84247   3.84323   3.85359   3.86389   3.87792
 Alpha virt. eigenvalues --    3.88554   3.88778   3.89557   3.90351   3.90437
 Alpha virt. eigenvalues --    3.91531   3.91666   3.92650   3.93057   3.93827
 Alpha virt. eigenvalues --    3.94972   3.96597   3.98300   4.02329   4.04383
 Alpha virt. eigenvalues --    4.07566   4.12092   4.17075   4.21503   4.23703
 Alpha virt. eigenvalues --    4.24992   4.29467   4.34172   4.35306   4.38016
 Alpha virt. eigenvalues --    4.38118   4.39533   4.39752   4.41319   4.42704
 Alpha virt. eigenvalues --    4.45753   4.53506   4.56133   4.57004   4.61420
 Alpha virt. eigenvalues --    4.63564   4.63963   4.66629   4.67106   4.70150
 Alpha virt. eigenvalues --    4.70237   4.77481   4.79028   4.86655   4.89068
 Alpha virt. eigenvalues --    4.94773   4.98010   5.01277   5.02018   5.03439
 Alpha virt. eigenvalues --    5.05614   5.06014  23.03386  23.20840  23.25752
 Alpha virt. eigenvalues --   23.28478  23.44686  23.47370  23.51131  23.52393
 Alpha virt. eigenvalues --   23.53925  23.65699  23.65816  23.68401  23.70510
 Alpha virt. eigenvalues --   23.77470  23.78418  23.78656  23.79893  23.83496
 Alpha virt. eigenvalues --   23.84049  23.84543  23.85800  23.85986  23.87308
 Alpha virt. eigenvalues --   23.88502  23.89450  23.90697  23.93031  23.94443
 Alpha virt. eigenvalues --   23.94472  23.95269  23.96145  23.97361  23.97738
 Alpha virt. eigenvalues --   23.98049  23.98530  23.98690  23.98849  23.99644
 Alpha virt. eigenvalues --   23.99670  24.00189  24.00749  24.01714  24.02303
 Alpha virt. eigenvalues --   24.02585  24.03265  24.04926  24.05342  24.06003
 Alpha virt. eigenvalues --   24.06421  24.09456  24.10129  24.10659  24.10770
 Alpha virt. eigenvalues --   24.10872  24.10900  24.11680  24.12427  24.12752
 Alpha virt. eigenvalues --   24.12781  24.13501  24.13590  24.13994  24.14520
 Alpha virt. eigenvalues --   24.15197  24.15695  24.18268
          Condensed to atoms (all electrons):
 Mulliken charges:
               1
     1  C   -0.004083
     2  C   -0.001780
     3  C   -0.003708
     4  C   -0.005445
     5  C   -0.005094
     6  C   -0.001766
     7  C   -0.133506
     8  C   -0.000826
     9  C   -0.004578
    10  C   -0.146212
    11  C    0.003768
    12  C   -0.005283
    13  C   -0.003349
    14  C    0.000536
    15  C    0.000537
    16  C   -0.001902
    17  C    0.002922
    18  C    0.017765
    19  C   -0.002543
    20  C   -0.002632
    21  C   -0.134592
    22  C   -0.004168
    23  C   -0.008962
    24  C    0.019394
    25  C   -0.002633
    26  C   -0.002543
    27  C    0.017766
    28  C   -0.031903
    29  C    0.022115
    30  C    0.006075
    31  C    0.006074
    32  C    0.022115
    33  C   -0.146213
    34  C   -0.008053
    35  C   -0.008053
    36  C   -0.005947
    37  C   -0.133506
    38  C   -0.001307
    39  C   -0.001624
    40  C   -0.031901
    41  C    0.001726
    42  C   -0.002902
    43  C   -0.012338
    44  C   -0.005947
    45  C    0.019394
    46  C   -0.008963
    47  C   -0.001306
    48  C   -0.004167
    49  C   -0.001624
    50  C   -0.134591
    51  C   -0.005445
    52  C   -0.003708
    53  C   -0.005094
    54  C   -0.003350
    55  C   -0.005282
    56  C    0.002922
    57  C   -0.001903
    58  C   -0.011707
    59  C   -0.003862
    60  C    0.003768
    61  C   -0.004578
    62  C   -0.001766
    63  C   -0.000826
    64  C   -0.001780
    65  C   -0.004083
    66  C    0.001726
    67  H    0.162035
    68  H    0.147531
    69  H    0.150800
    70  H    0.150800
    71  H    0.147531
    72  H    0.162035
 Sum of Mulliken charges =  -0.00000
 Mulliken charges with hydrogens summed into heavy atoms:
               1
     1  C   -0.004083
     2  C   -0.001780
     3  C   -0.003708
     4  C   -0.005445
     5  C   -0.005094
     6  C   -0.001766
     7  C    0.028529
     8  C   -0.000826
     9  C   -0.004578
    10  C    0.001319
    11  C    0.003768
    12  C   -0.005283
    13  C   -0.003349
    14  C    0.000536
    15  C    0.000537
    16  C   -0.001902
    17  C    0.002922
    18  C    0.017765
    19  C   -0.002543
    20  C   -0.002632
    21  C    0.016208
    22  C   -0.004168
    23  C   -0.008962
    24  C    0.019394
    25  C   -0.002633
    26  C   -0.002543
    27  C    0.017766
    28  C   -0.031903
    29  C    0.022115
    30  C    0.006075
    31  C    0.006074
    32  C    0.022115
    33  C    0.001319
    34  C   -0.008053
    35  C   -0.008053
    36  C   -0.005947
    37  C    0.028529
    38  C   -0.001307
    39  C   -0.001624
    40  C   -0.031901
    41  C    0.001726
    42  C   -0.002902
    43  C   -0.012338
    44  C   -0.005947
    45  C    0.019394
    46  C   -0.008963
    47  C   -0.001306
    48  C   -0.004167
    49  C   -0.001624
    50  C    0.016208
    51  C   -0.005445
    52  C   -0.003708
    53  C   -0.005094
    54  C   -0.003350
    55  C   -0.005282
    56  C    0.002922
    57  C   -0.001903
    58  C   -0.011707
    59  C   -0.003862
    60  C    0.003768
    61  C   -0.004578
    62  C   -0.001766
    63  C   -0.000826
    64  C   -0.001780
    65  C   -0.004083
    66  C    0.001726
 Electronic spatial extent (au):  <R**2>=          21321.5607
 Charge=              0.0000 electrons
 Dipole moment (field-independent basis, Debye):
    X=              5.7611    Y=             -0.2276    Z=              0.0000  Tot=              5.7656
 Quadrupole moment (field-independent basis, Debye-Ang):
   XX=           -345.7441   YY=           -380.9796   ZZ=           -366.3712
   XY=             -1.4705   XZ=              0.0000   YZ=              0.0000
 Traceless Quadrupole moment (field-independent basis, Debye-Ang):
   XX=             18.6209   YY=            -16.6146   ZZ=             -2.0062
   XY=             -1.4705   XZ=              0.0000   YZ=              0.0000
 Octapole moment (field-independent basis, Debye-Ang**2):
  XXX=            194.7979  YYY=             -5.8983  ZZZ=              0.0000  XYY=              4.4299
  XXY=            -11.3545  XXZ=             -0.0000  XZZ=             59.2003  YZZ=              6.1610
  YYZ=              0.0000  XYZ=              0.0001
 Hexadecapole moment (field-independent basis, Debye-Ang**3):
 XXXX=         -12269.6016 YYYY=         -11137.5743 ZZZZ=          -8792.2744 XXXY=            -75.2292
 XXXZ=             -0.0001 YYYX=            -10.0508 YYYZ=              0.0000 ZZZX=              0.0000
 ZZZY=              0.0005 XXYY=          -4021.1103 XXZZ=          -3477.4454 YYZZ=          -3352.4891
 XXYZ=              0.0003 YYXZ=              0.0001 ZZXY=             18.6917
 N-N= 9.881419314694D+03 E-N=-2.560520005383D+04  KE= 2.508695080113D+03
 No NMR shielding tensors so no spin-rotation constants.
 Leave Link  601 at Wed Jul 20 17:50:48 2022, MaxMem=  1342177280 cpu:              56.0 elap:               1.4
 (Enter /home/mkliu/g16/l9999.exe)
 1\1\GINC-NODE01\FOpt\RB3LYP\6-311G(d,p)\C66H6\MKLIU\20-Jul-2022\0\\#P 
 opt b3lyp/6-311G(d, p) empiricaldispersion=GD3\\force\\0,1\C,12.771778
 4456,12.0773205175,21.9141095523\C,12.7815276221,13.0252002442,22.9284
 756246\C,12.6612040973,14.43538761,22.6028864773\C,12.5876026135,14.84
 78147882,21.2753001114\C,13.4701730357,15.1814349065,23.5204765958\C,1
 4.108575214,14.2474610823,24.4316241575\C,15.6220644597,17.3530761507,
 18.7588838541\C,13.7180909129,12.9091917809,24.0330273595\C,15.4004229
 111,14.4955879267,24.8834049622\C,16.9133618592,17.0115187,17.88867315
 04\C,16.0718196415,15.7189166176,24.5046848436\C,15.4549606524,16.5991
 362895,23.6132409026\C,14.1607826282,16.2981570701,23.0595647103\C,19.
 2221540156,14.0150065532,22.6018911442\C,16.2236136646,17.274047827,22
 .6009643196\C,19.1925877047,15.4138064986,22.5724085946\C,19.278246243
 1,16.0747610352,21.3234216137\C,17.4433256533,11.5615581754,19.3264749
 605\C,17.7012164155,11.2596125206,20.765535744\C,18.4840786872,11.9883
 1243,21.6556768484\C,18.1685953973,17.1545287631,18.8025164005\C,17.57
 11391156,17.4027987244,20.1645512843\C,16.1553909309,17.4710239423,20.
 1756554605\C,15.4606690882,17.3534962509,21.3840749308\C,14.1428557273
 ,16.706681271,21.6543346556\C,13.3518602407,15.9868207327,20.764190979
 2\C,13.6317346787,15.7042840835,19.325296815\C,14.6704698411,16.173920
 7935,18.5365622395\C,15.2781986493,15.2751791906,17.5944135582\C,16.66
 50800839,15.5989394735,17.4512083515\C,17.5909958299,14.592584727,17.4
 514946302\C,17.153043871,13.2374548679,17.59499142\C,19.0191987146,14.
 7227367182,17.8893236942\C,15.8124607303,12.90685706,17.4307703112\C,1
 4.8373679085,13.9666622378,17.4304694822\C,13.6859196487,13.5126817623
 ,18.1380087865\C,19.2520017812,13.4077864159,18.7600073374\C,13.085351
 1344,14.3824532354,19.0483343084\C,12.4777092909,13.8551107772,20.2385
 749031\C,17.9978983783,12.5574215045,18.5375888995\C,12.5690041381,12.
 4914603392,20.5426299442\C,13.3601161808,11.6296537728,19.6875952775\C
 ,13.8986939242,12.1248473776,18.5113260281\C,15.2641472918,11.79734356
 99,18.1384962394\C,19.238261426,13.2477229531,21.3852429089\C,19.41346
 5259,13.9299021134,20.1766634803\C,16.0807355362,11.1268431587,19.0492
 600782\C,19.4631485123,15.3464172257,20.1651352109\C,15.5043757764,10.
 565501667,20.2395109711\C,19.2657819268,15.9620220724,18.8028550349\C,
 16.5024849076,10.5928258541,21.2765104675\C,16.0972259286,10.70085984,
 22.6039484777\C,16.9076698472,11.4453031195,23.5215399625\C,18.0780586
 073,12.0405648307,23.0607761059\C,18.4854049776,13.3054197019,23.61417
 77015\C,18.2812659871,17.1583554632,21.3231134795\C,17.6151244261,17.1
 283123015,22.5719215059\C,18.2351065443,16.1160368953,23.4102187187\C,
 17.4858461188,15.4269311473,24.343233508\C,17.659248602,13.9935780407,
 24.5051755395\C,16.3842424264,13.4262986442,24.8837094791\C,16.0297300
 639,12.1594046836,24.4322181195\C,14.6637489832,11.8813788039,24.03332
 00128\C,14.7018264085,10.9380742907,22.9290693551\C,13.7567038114,11.0
 068296585,21.9144140154\C,14.1529459794,10.7699138043,20.5431197362\H,
 15.1566207066,18.2911373912,18.4411611381\H,16.9864390606,17.682348622
 9,17.0298340991\H,18.7193601466,18.0470452674,18.4986772481\H,20.20107
 34638,16.4366060507,18.4991349194\H,19.6940258903,14.7395387827,17.030
 6712568\H,20.1482262478,12.8658932096,18.4427092186\\Version=ES64L-G16
 RevA.03\State=1-A\HF=-2519.0569962\RMSD=5.000e-09\RMSF=8.384e-05\Dipol
 e=1.2321975,1.1332706,-1.5306367\Quadrupole=0.3893258,0.095593,-0.4849
 187,1.7278244,-9.6303234,-8.8602823\PG=C01 [X(C66H6)]\\@


 You never know when you're making a memory.
                        -- Rickie Lee Jones
 Job cpu time:       1 days  2 hours 19 minutes 28.1 seconds.
 Elapsed time:       0 days  0 hours 32 minutes 59.4 seconds.
 File lengths (MBytes):  RWF=    921 Int=      0 D2E=      0 Chk=    114 Scr=      1
 Normal termination of Gaussian 16 at Wed Jul 20 17:50:48 2022.
