 Entering Gaussian System, Link 0=g16
 Input=dihept_6_addons_2.gjf
 Output=dihept_6_addons_2.log
 Initial command:
 /home/mkliu/g16/l1.exe "/data/scratch/Gau-44166.inp" -scrdir="/data/scratch/"
 Entering Link 1 = /home/mkliu/g16/l1.exe PID=     44167.
  
 Copyright (c) 1988,1990,1992,1993,1995,1998,2003,2009,2016,
            Gaussian, Inc.  All Rights Reserved.
  
 This is part of the Gaussian(R) 16 program.  It is based on
 the Gaussian(R) 09 system (copyright 2009, Gaussian, Inc.),
 the Gaussian(R) 03 system (copyright 2003, Gaussian, Inc.),
 the Gaussian(R) 98 system (copyright 1998, Gaussian, Inc.),
 the Gaussian(R) 94 system (copyright 1995, Gaussian, Inc.),
 the Gaussian 92(TM) system (copyright 1992, Gaussian, Inc.),
 the Gaussian 90(TM) system (copyright 1990, Gaussian, Inc.),
 the Gaussian 88(TM) system (copyright 1988, Gaussian, Inc.),
 the Gaussian 86(TM) system (copyright 1986, Carnegie Mellon
 University), and the Gaussian 82(TM) system (copyright 1983,
 Carnegie Mellon University). Gaussian is a federally registered
 trademark of Gaussian, Inc.
  
 This software contains proprietary and confidential information,
 including trade secrets, belonging to Gaussian, Inc.
  
 This software is provided under written license and may be
 used, copied, transmitted, or stored only in accord with that
 written license.
  
 The following legend is applicable only to US Government
 contracts under FAR:
  
                    RESTRICTED RIGHTS LEGEND
  
 Use, reproduction and disclosure by the US Government is
 subject to restrictions as set forth in subparagraphs (a)
 and (c) of the Commercial Computer Software - Restricted
 Rights clause in FAR 52.227-19.
  
 Gaussian, Inc.
 340 Quinnipiac St., Bldg. 40, Wallingford CT 06492
  
  
 ---------------------------------------------------------------
 Warning -- This program may not be used in any manner that
 competes with the business of Gaussian, Inc. or will provide
 assistance to any competitor of Gaussian, Inc.  The licensee
 of this program is prohibited from giving any competitor of
 Gaussian, Inc. access to this program.  By using this program,
 the user acknowledges that Gaussian, Inc. is engaged in the
 business of creating and licensing software in the field of
 computational chemistry and represents and warrants to the
 licensee that it is not a competitor of Gaussian, Inc. and that
 it will not use this program in any manner prohibited above.
 ---------------------------------------------------------------
  

 Cite this work as:
 Gaussian 16, Revision A.03,
 M. J. Frisch, G. W. Trucks, H. B. Schlegel, G. E. Scuseria, 
 M. A. Robb, J. R. Cheeseman, G. Scalmani, V. Barone, 
 G. A. Petersson, H. Nakatsuji, X. Li, M. Caricato, A. V. Marenich, 
 J. Bloino, B. G. Janesko, R. Gomperts, B. Mennucci, H. P. Hratchian, 
 J. V. Ortiz, A. F. Izmaylov, J. L. Sonnenberg, D. Williams-Young, 
 F. Ding, F. Lipparini, F. Egidi, J. Goings, B. Peng, A. Petrone, 
 T. Henderson, D. Ranasinghe, V. G. Zakrzewski, J. Gao, N. Rega, 
 G. Zheng, W. Liang, M. Hada, M. Ehara, K. Toyota, R. Fukuda, 
 J. Hasegawa, M. Ishida, T. Nakajima, Y. Honda, O. Kitao, H. Nakai, 
 T. Vreven, K. Throssell, J. A. Montgomery, Jr., J. E. Peralta, 
 F. Ogliaro, M. J. Bearpark, J. J. Heyd, E. N. Brothers, K. N. Kudin, 
 V. N. Staroverov, T. A. Keith, R. Kobayashi, J. Normand, 
 K. Raghavachari, A. P. Rendell, J. C. Burant, S. S. Iyengar, 
 J. Tomasi, M. Cossi, J. M. Millam, M. Klene, C. Adamo, R. Cammi, 
 J. W. Ochterski, R. L. Martin, K. Morokuma, O. Farkas, 
 J. B. Foresman, and D. J. Fox, Gaussian, Inc., Wallingford CT, 2016.
 
 ******************************************
 Gaussian 16:  ES64L-G16RevA.03 25-Dec-2016
                20-Jul-2022 
 ******************************************
 %mem=10GB
 %chk=dihept_6_addons_2.chk
 %nprocshared=48
 Will use up to   48 processors via shared memory.
 -------------------------------------------------
 #P opt b3lyp/6-311G(d, p) empiricaldispersion=GD3
 -------------------------------------------------
 1/18=20,19=15,26=3,38=1/1,3;
 2/9=110,12=2,17=6,18=5,40=1/2;
 3/5=4,6=6,7=101,11=2,25=1,30=1,71=1,74=-5,124=31/1,2,3;
 4//1;
 5/5=2,38=5/2;
 6/7=2,8=2,9=2,10=2,28=1/1;
 7//1,2,3,16;
 1/18=20,19=15,26=3/3(2);
 2/9=110/2;
 99//99;
 2/9=110/2;
 3/5=4,6=6,7=101,11=2,25=1,30=1,71=1,74=-5,124=31/1,2,3;
 4/5=5,16=3,69=1/1;
 5/5=2,38=5/2;
 7//1,2,3,16;
 1/18=20,19=15,26=3/3(-5);
 2/9=110/2;
 6/7=2,8=2,9=2,10=2,19=2,28=1/1;
 99/9=1/99;
 Leave Link    1 at Wed Jul 20 09:59:34 2022, MaxMem=  1342177280 cpu:               3.0 elap:               0.1
 (Enter /home/mkliu/g16/l101.exe)
 -----
 force
 -----
 Symbolic Z-matrix:
 Charge =  0 Multiplicity = 1
 C                     12.81125   12.10283   21.9002 
 C                     12.82002   13.03391   22.90542 
 C                     12.737    14.41654   22.5669 
 C                     12.64773   14.85256   21.24778 
 C                     13.53908   15.15692   23.47965 
 C                     14.13561   14.2483   24.40253 
 C                     15.63711   17.36008   18.73985 
 C                     13.5527   12.86184   24.22027 
 C                     15.40558   14.4976   24.85251 
 C                     16.92033   16.99545   17.90799 
 C                     16.0778   15.70739   24.47401 
 C                     15.47454   16.59807   23.58418 
 C                     14.20475   16.28981   23.01964 
 C                     19.22938   14.04695   22.58008 
 C                     16.24     17.27674   22.58713 
 C                     19.19327   15.43508   22.57747 
 C                     19.25619   16.09846   21.32302 
 C                     17.46185   11.62028   19.3139 
 C                     17.71646   11.32008   20.73243 
 C                     18.49719   12.04076   21.62089 
 C                     18.01261   16.86075   18.92927 
 C                     17.56346   17.39942   20.16453 
 C                     16.13711   17.51108   20.16555 
 C                     15.46934   17.36392   21.36246 
 C                     14.18121   16.70385   21.63107 
 C                     13.40048   15.98318   20.74261 
 C                     13.67704   15.70948   19.32284 
 C                     14.69971   16.18425   18.5298 
 C                     15.28583   15.297    17.57263 
 C                     16.65889   15.61116   17.38876 
 C                     17.5898   14.60537   17.38657 
 C                     17.17098   13.26024   17.56818 
 C                     18.99127   14.75793   17.90313 
 C                     15.82818   12.93413   17.422 
 C                     14.85671   13.98372   17.42429 
 C                     13.71512   13.52795   18.13611 
 C                     19.25758   13.44844   18.73131 
 C                     13.1234   14.39987   19.04048 
 C                     12.52145   13.87213   20.22361 
 C                     18.01243   12.6051   18.52198 
 C                     12.6203   12.51585   20.53943 
 C                     13.40667   11.6623   19.68993 
 C                     13.93125   12.15042   18.50761 
 C                     15.28718   11.82945   18.1324 
 C                     19.25416   13.27473   21.35352 
 C                     19.44984   13.93195   20.15773 
 C                     16.11277   11.17008   19.03343 
 C                     19.44861   15.36267   20.16009 
 C                     15.54273   10.60787   20.21649 
 C                     18.94352   15.85496   18.92708 
 C                     16.53222   10.65566   21.23858 
 C                     16.10727   10.77524   22.55893 
 C                     16.90935   11.51562   23.47169 
 C                     18.08926   12.09293   23.01047 
 C                     18.49582   13.3338   23.57706 
 C                     18.28473   17.14805   21.32532 
 C                     17.6212   17.13358   22.58118 
 C                     18.23941   16.12719   23.41022 
 C                     17.47949   15.42183   24.32474 
 C                     17.65634   14.00195   24.47033 
 C                     16.39908   13.42426   24.85015 
 C                     16.05154   12.17843   24.3979 
 C                     14.62379   11.7047   24.21767 
 C                     14.73595   10.96403   22.90078 
 C                     13.80472   11.02947   21.89781 
 C                     14.19878   10.81035   20.53568 
 H                     15.16625   18.28879   18.40029 
 H                     17.14291   17.72154   17.12343 
 H                     19.73067   14.92563   17.11736 
 H                     20.14643   12.90809   18.38854 
 H                     12.83784   12.64823   25.02173 
 H                     14.35752   11.0065   25.018 
 
 ITRead=  0  0  0  0  0  0  0  0  0  0  0  0  0  0  0  0  0  0  0  0
 ITRead=  0  0  0  0  0  0  0  0  0  0  0  0  0  0  0  0  0  0  0  0
 ITRead=  0  0  0  0  0  0  0  0  0  0  0  0  0  0  0  0  0  0  0  0
 ITRead=  0  0  0  0  0  0  0  0  0  0  0  0
 MicOpt= -1 -1 -1 -1 -1 -1 -1 -1 -1 -1 -1 -1 -1 -1 -1 -1 -1 -1 -1 -1
 MicOpt= -1 -1 -1 -1 -1 -1 -1 -1 -1 -1 -1 -1 -1 -1 -1 -1 -1 -1 -1 -1
 MicOpt= -1 -1 -1 -1 -1 -1 -1 -1 -1 -1 -1 -1 -1 -1 -1 -1 -1 -1 -1 -1
 MicOpt= -1 -1 -1 -1 -1 -1 -1 -1 -1 -1 -1 -1
 NAtoms=     72 NQM=       72 NQMF=       0 NMMI=      0 NMMIF=      0
                NMic=       0 NMicF=      0.
                    Isotopes and Nuclear Properties:
 (Nuclear quadrupole moments (NQMom) in fm**2, nuclear magnetic moments (NMagM)
  in nuclear magnetons)

  Atom         1           2           3           4           5           6           7           8           9          10
 IAtWgt=          12          12          12          12          12          12          12          12          12          12
 AtmWgt=  12.0000000  12.0000000  12.0000000  12.0000000  12.0000000  12.0000000  12.0000000  12.0000000  12.0000000  12.0000000
 NucSpn=           0           0           0           0           0           0           0           0           0           0
 AtZEff=  -0.0000000  -0.0000000  -0.0000000  -0.0000000  -0.0000000  -0.0000000  -0.0000000  -0.0000000  -0.0000000  -0.0000000
 NQMom=    0.0000000   0.0000000   0.0000000   0.0000000   0.0000000   0.0000000   0.0000000   0.0000000   0.0000000   0.0000000
 NMagM=    0.0000000   0.0000000   0.0000000   0.0000000   0.0000000   0.0000000   0.0000000   0.0000000   0.0000000   0.0000000
 AtZNuc=   6.0000000   6.0000000   6.0000000   6.0000000   6.0000000   6.0000000   6.0000000   6.0000000   6.0000000   6.0000000

  Atom        11          12          13          14          15          16          17          18          19          20
 IAtWgt=          12          12          12          12          12          12          12          12          12          12
 AtmWgt=  12.0000000  12.0000000  12.0000000  12.0000000  12.0000000  12.0000000  12.0000000  12.0000000  12.0000000  12.0000000
 NucSpn=           0           0           0           0           0           0           0           0           0           0
 AtZEff=  -0.0000000  -0.0000000  -0.0000000  -0.0000000  -0.0000000  -0.0000000  -0.0000000  -0.0000000  -0.0000000  -0.0000000
 NQMom=    0.0000000   0.0000000   0.0000000   0.0000000   0.0000000   0.0000000   0.0000000   0.0000000   0.0000000   0.0000000
 NMagM=    0.0000000   0.0000000   0.0000000   0.0000000   0.0000000   0.0000000   0.0000000   0.0000000   0.0000000   0.0000000
 AtZNuc=   6.0000000   6.0000000   6.0000000   6.0000000   6.0000000   6.0000000   6.0000000   6.0000000   6.0000000   6.0000000

  Atom        21          22          23          24          25          26          27          28          29          30
 IAtWgt=          12          12          12          12          12          12          12          12          12          12
 AtmWgt=  12.0000000  12.0000000  12.0000000  12.0000000  12.0000000  12.0000000  12.0000000  12.0000000  12.0000000  12.0000000
 NucSpn=           0           0           0           0           0           0           0           0           0           0
 AtZEff=  -0.0000000  -0.0000000  -0.0000000  -0.0000000  -0.0000000  -0.0000000  -0.0000000  -0.0000000  -0.0000000  -0.0000000
 NQMom=    0.0000000   0.0000000   0.0000000   0.0000000   0.0000000   0.0000000   0.0000000   0.0000000   0.0000000   0.0000000
 NMagM=    0.0000000   0.0000000   0.0000000   0.0000000   0.0000000   0.0000000   0.0000000   0.0000000   0.0000000   0.0000000
 AtZNuc=   6.0000000   6.0000000   6.0000000   6.0000000   6.0000000   6.0000000   6.0000000   6.0000000   6.0000000   6.0000000

  Atom        31          32          33          34          35          36          37          38          39          40
 IAtWgt=          12          12          12          12          12          12          12          12          12          12
 AtmWgt=  12.0000000  12.0000000  12.0000000  12.0000000  12.0000000  12.0000000  12.0000000  12.0000000  12.0000000  12.0000000
 NucSpn=           0           0           0           0           0           0           0           0           0           0
 AtZEff=  -0.0000000  -0.0000000  -0.0000000  -0.0000000  -0.0000000  -0.0000000  -0.0000000  -0.0000000  -0.0000000  -0.0000000
 NQMom=    0.0000000   0.0000000   0.0000000   0.0000000   0.0000000   0.0000000   0.0000000   0.0000000   0.0000000   0.0000000
 NMagM=    0.0000000   0.0000000   0.0000000   0.0000000   0.0000000   0.0000000   0.0000000   0.0000000   0.0000000   0.0000000
 AtZNuc=   6.0000000   6.0000000   6.0000000   6.0000000   6.0000000   6.0000000   6.0000000   6.0000000   6.0000000   6.0000000

  Atom        41          42          43          44          45          46          47          48          49          50
 IAtWgt=          12          12          12          12          12          12          12          12          12          12
 AtmWgt=  12.0000000  12.0000000  12.0000000  12.0000000  12.0000000  12.0000000  12.0000000  12.0000000  12.0000000  12.0000000
 NucSpn=           0           0           0           0           0           0           0           0           0           0
 AtZEff=  -0.0000000  -0.0000000  -0.0000000  -0.0000000  -0.0000000  -0.0000000  -0.0000000  -0.0000000  -0.0000000  -0.0000000
 NQMom=    0.0000000   0.0000000   0.0000000   0.0000000   0.0000000   0.0000000   0.0000000   0.0000000   0.0000000   0.0000000
 NMagM=    0.0000000   0.0000000   0.0000000   0.0000000   0.0000000   0.0000000   0.0000000   0.0000000   0.0000000   0.0000000
 AtZNuc=   6.0000000   6.0000000   6.0000000   6.0000000   6.0000000   6.0000000   6.0000000   6.0000000   6.0000000   6.0000000

  Atom        51          52          53          54          55          56          57          58          59          60
 IAtWgt=          12          12          12          12          12          12          12          12          12          12
 AtmWgt=  12.0000000  12.0000000  12.0000000  12.0000000  12.0000000  12.0000000  12.0000000  12.0000000  12.0000000  12.0000000
 NucSpn=           0           0           0           0           0           0           0           0           0           0
 AtZEff=  -0.0000000  -0.0000000  -0.0000000  -0.0000000  -0.0000000  -0.0000000  -0.0000000  -0.0000000  -0.0000000  -0.0000000
 NQMom=    0.0000000   0.0000000   0.0000000   0.0000000   0.0000000   0.0000000   0.0000000   0.0000000   0.0000000   0.0000000
 NMagM=    0.0000000   0.0000000   0.0000000   0.0000000   0.0000000   0.0000000   0.0000000   0.0000000   0.0000000   0.0000000
 AtZNuc=   6.0000000   6.0000000   6.0000000   6.0000000   6.0000000   6.0000000   6.0000000   6.0000000   6.0000000   6.0000000

  Atom        61          62          63          64          65          66          67          68          69          70
 IAtWgt=          12          12          12          12          12          12           1           1           1           1
 AtmWgt=  12.0000000  12.0000000  12.0000000  12.0000000  12.0000000  12.0000000   1.0078250   1.0078250   1.0078250   1.0078250
 NucSpn=           0           0           0           0           0           0           1           1           1           1
 AtZEff=  -0.0000000  -0.0000000  -0.0000000  -0.0000000  -0.0000000  -0.0000000  -0.0000000  -0.0000000  -0.0000000  -0.0000000
 NQMom=    0.0000000   0.0000000   0.0000000   0.0000000   0.0000000   0.0000000   0.0000000   0.0000000   0.0000000   0.0000000
 NMagM=    0.0000000   0.0000000   0.0000000   0.0000000   0.0000000   0.0000000   2.7928460   2.7928460   2.7928460   2.7928460
 AtZNuc=   6.0000000   6.0000000   6.0000000   6.0000000   6.0000000   6.0000000   1.0000000   1.0000000   1.0000000   1.0000000

  Atom        71          72
 IAtWgt=           1           1
 AtmWgt=   1.0078250   1.0078250
 NucSpn=           1           1
 AtZEff=  -0.0000000  -0.0000000
 NQMom=    0.0000000   0.0000000
 NMagM=    2.7928460   2.7928460
 AtZNuc=   1.0000000   1.0000000
 Leave Link  101 at Wed Jul 20 09:59:34 2022, MaxMem=  1342177280 cpu:              27.3 elap:               0.6
 (Enter /home/mkliu/g16/l103.exe)

 GradGradGradGradGradGradGradGradGradGradGradGradGradGradGradGradGradGrad
 Berny optimization.
 Initialization pass.
                           ----------------------------
                           !    Initial Parameters    !
                           ! (Angstroms and Degrees)  !
 --------------------------                            --------------------------
 ! Name  Definition              Value          Derivative Info.                !
 --------------------------------------------------------------------------------
 ! R1    R(1,2)                  1.3702         estimate D2E/DX2                !
 ! R2    R(1,41)                 1.4348         estimate D2E/DX2                !
 ! R3    R(1,65)                 1.4626         estimate D2E/DX2                !
 ! R4    R(2,3)                  1.4259         estimate D2E/DX2                !
 ! R5    R(2,8)                  1.515          estimate D2E/DX2                !
 ! R6    R(3,4)                  1.3922         estimate D2E/DX2                !
 ! R7    R(3,5)                  1.4229         estimate D2E/DX2                !
 ! R8    R(4,26)                 1.4492         estimate D2E/DX2                !
 ! R9    R(4,39)                 1.4234         estimate D2E/DX2                !
 ! R10   R(5,6)                  1.4259         estimate D2E/DX2                !
 ! R11   R(5,13)                 1.3922         estimate D2E/DX2                !
 ! R12   R(6,8)                  1.515          estimate D2E/DX2                !
 ! R13   R(6,9)                  1.3702         estimate D2E/DX2                !
 ! R14   R(7,10)                 1.5721         estimate D2E/DX2                !
 ! R15   R(7,23)                 1.5184         estimate D2E/DX2                !
 ! R16   R(7,28)                 1.5184         estimate D2E/DX2                !
 ! R17   R(7,67)                 1.0952         estimate D2E/DX2                !
 ! R18   R(8,63)                 1.5768         estimate D2E/DX2                !
 ! R19   R(8,71)                 1.095          estimate D2E/DX2                !
 ! R20   R(9,11)                 1.4348         estimate D2E/DX2                !
 ! R21   R(9,61)                 1.4626         estimate D2E/DX2                !
 ! R22   R(10,21)                1.5014         estimate D2E/DX2                !
 ! R23   R(10,30)                1.5014         estimate D2E/DX2                !
 ! R24   R(10,68)                1.0919         estimate D2E/DX2                !
 ! R25   R(11,12)                1.3961         estimate D2E/DX2                !
 ! R26   R(11,59)                1.4382         estimate D2E/DX2                !
 ! R27   R(12,13)                1.4234         estimate D2E/DX2                !
 ! R28   R(12,15)                1.4285         estimate D2E/DX2                !
 ! R29   R(13,25)                1.4492         estimate D2E/DX2                !
 ! R30   R(14,16)                1.3886         estimate D2E/DX2                !
 ! R31   R(14,45)                1.4496         estimate D2E/DX2                !
 ! R32   R(14,55)                1.4285         estimate D2E/DX2                !
 ! R33   R(15,24)                1.4496         estimate D2E/DX2                !
 ! R34   R(15,57)                1.3886         estimate D2E/DX2                !
 ! R35   R(16,17)                1.4204         estimate D2E/DX2                !
 ! R36   R(16,58)                1.443          estimate D2E/DX2                !
 ! R37   R(17,48)                1.3895         estimate D2E/DX2                !
 ! R38   R(17,56)                1.4302         estimate D2E/DX2                !
 ! R39   R(18,19)                1.4721         estimate D2E/DX2                !
 ! R40   R(18,40)                1.3785         estimate D2E/DX2                !
 ! R41   R(18,47)                1.4496         estimate D2E/DX2                !
 ! R42   R(19,20)                1.385          estimate D2E/DX2                !
 ! R43   R(19,51)                1.4492         estimate D2E/DX2                !
 ! R44   R(20,45)                1.4721         estimate D2E/DX2                !
 ! R45   R(20,54)                1.4492         estimate D2E/DX2                !
 ! R46   R(21,22)                1.4205         estimate D2E/DX2                !
 ! R47   R(21,50)                1.3705         estimate D2E/DX2                !
 ! R48   R(22,23)                1.4307         estimate D2E/DX2                !
 ! R49   R(22,56)                1.3895         estimate D2E/DX2                !
 ! R50   R(23,24)                1.3785         estimate D2E/DX2                !
 ! R51   R(24,25)                1.4721         estimate D2E/DX2                !
 ! R52   R(25,26)                1.385          estimate D2E/DX2                !
 ! R53   R(26,27)                1.4721         estimate D2E/DX2                !
 ! R54   R(27,28)                1.3785         estimate D2E/DX2                !
 ! R55   R(27,38)                1.4496         estimate D2E/DX2                !
 ! R56   R(28,29)                1.4307         estimate D2E/DX2                !
 ! R57   R(29,30)                1.4205         estimate D2E/DX2                !
 ! R58   R(29,35)                1.3895         estimate D2E/DX2                !
 ! R59   R(30,31)                1.3705         estimate D2E/DX2                !
 ! R60   R(31,32)                1.4205         estimate D2E/DX2                !
 ! R61   R(31,33)                1.5014         estimate D2E/DX2                !
 ! R62   R(32,34)                1.3895         estimate D2E/DX2                !
 ! R63   R(32,40)                1.4307         estimate D2E/DX2                !
 ! R64   R(33,37)                1.5721         estimate D2E/DX2                !
 ! R65   R(33,50)                1.5014         estimate D2E/DX2                !
 ! R66   R(33,69)                1.0919         estimate D2E/DX2                !
 ! R67   R(34,35)                1.4302         estimate D2E/DX2                !
 ! R68   R(34,44)                1.4204         estimate D2E/DX2                !
 ! R69   R(35,36)                1.4204         estimate D2E/DX2                !
 ! R70   R(36,38)                1.3886         estimate D2E/DX2                !
 ! R71   R(36,43)                1.443          estimate D2E/DX2                !
 ! R72   R(37,40)                1.5184         estimate D2E/DX2                !
 ! R73   R(37,46)                1.5184         estimate D2E/DX2                !
 ! R74   R(37,70)                1.0952         estimate D2E/DX2                !
 ! R75   R(38,39)                1.4285         estimate D2E/DX2                !
 ! R76   R(39,41)                1.3961         estimate D2E/DX2                !
 ! R77   R(41,42)                1.4382         estimate D2E/DX2                !
 ! R78   R(42,43)                1.3825         estimate D2E/DX2                !
 ! R79   R(42,66)                1.4382         estimate D2E/DX2                !
 ! R80   R(43,44)                1.443          estimate D2E/DX2                !
 ! R81   R(44,47)                1.3886         estimate D2E/DX2                !
 ! R82   R(45,46)                1.3785         estimate D2E/DX2                !
 ! R83   R(46,48)                1.4307         estimate D2E/DX2                !
 ! R84   R(47,49)                1.4285         estimate D2E/DX2                !
 ! R85   R(48,50)                1.4205         estimate D2E/DX2                !
 ! R86   R(49,51)                1.4234         estimate D2E/DX2                !
 ! R87   R(49,66)                1.3961         estimate D2E/DX2                !
 ! R88   R(51,52)                1.3922         estimate D2E/DX2                !
 ! R89   R(52,53)                1.4229         estimate D2E/DX2                !
 ! R90   R(52,64)                1.4258         estimate D2E/DX2                !
 ! R91   R(53,54)                1.3922         estimate D2E/DX2                !
 ! R92   R(53,62)                1.4258         estimate D2E/DX2                !
 ! R93   R(54,55)                1.4234         estimate D2E/DX2                !
 ! R94   R(55,60)                1.3961         estimate D2E/DX2                !
 ! R95   R(56,57)                1.4204         estimate D2E/DX2                !
 ! R96   R(57,58)                1.443          estimate D2E/DX2                !
 ! R97   R(58,59)                1.3825         estimate D2E/DX2                !
 ! R98   R(59,60)                1.4382         estimate D2E/DX2                !
 ! R99   R(60,61)                1.4348         estimate D2E/DX2                !
 ! R100  R(61,62)                1.3702         estimate D2E/DX2                !
 ! R101  R(62,63)                1.515          estimate D2E/DX2                !
 ! R102  R(63,64)                1.515          estimate D2E/DX2                !
 ! R103  R(63,72)                1.0949         estimate D2E/DX2                !
 ! R104  R(64,65)                1.3702         estimate D2E/DX2                !
 ! R105  R(65,66)                1.4348         estimate D2E/DX2                !
 ! A1    A(2,1,41)             120.0673         estimate D2E/DX2                !
 ! A2    A(2,1,65)             119.7052         estimate D2E/DX2                !
 ! A3    A(41,1,65)            107.4635         estimate D2E/DX2                !
 ! A4    A(1,2,3)              118.9705         estimate D2E/DX2                !
 ! A5    A(1,2,8)              124.2376         estimate D2E/DX2                !
 ! A6    A(3,2,8)              110.1411         estimate D2E/DX2                !
 ! A7    A(2,3,4)              122.1664         estimate D2E/DX2                !
 ! A8    A(2,3,5)              108.6288         estimate D2E/DX2                !
 ! A9    A(4,3,5)              118.7502         estimate D2E/DX2                !
 ! A10   A(3,4,26)             122.7746         estimate D2E/DX2                !
 ! A11   A(3,4,39)             118.1458         estimate D2E/DX2                !
 ! A12   A(26,4,39)            109.4295         estimate D2E/DX2                !
 ! A13   A(3,5,6)              108.6288         estimate D2E/DX2                !
 ! A14   A(3,5,13)             118.7502         estimate D2E/DX2                !
 ! A15   A(6,5,13)             122.1664         estimate D2E/DX2                !
 ! A16   A(5,6,8)              110.1411         estimate D2E/DX2                !
 ! A17   A(5,6,9)              118.9705         estimate D2E/DX2                !
 ! A18   A(8,6,9)              124.2376         estimate D2E/DX2                !
 ! A19   A(10,7,23)            104.5436         estimate D2E/DX2                !
 ! A20   A(10,7,28)            104.5436         estimate D2E/DX2                !
 ! A21   A(10,7,67)            112.5532         estimate D2E/DX2                !
 ! A22   A(23,7,28)            114.2183         estimate D2E/DX2                !
 ! A23   A(23,7,67)            110.3867         estimate D2E/DX2                !
 ! A24   A(28,7,67)            110.3867         estimate D2E/DX2                !
 ! A25   A(2,8,6)              100.751          estimate D2E/DX2                !
 ! A26   A(2,8,63)             114.2319         estimate D2E/DX2                !
 ! A27   A(2,8,71)             109.9784         estimate D2E/DX2                !
 ! A28   A(6,8,63)             114.2319         estimate D2E/DX2                !
 ! A29   A(6,8,71)             109.9784         estimate D2E/DX2                !
 ! A30   A(63,8,71)            107.5488         estimate D2E/DX2                !
 ! A31   A(6,9,11)             120.0673         estimate D2E/DX2                !
 ! A32   A(6,9,61)             119.7052         estimate D2E/DX2                !
 ! A33   A(11,9,61)            107.4634         estimate D2E/DX2                !
 ! A34   A(7,10,21)            104.7557         estimate D2E/DX2                !
 ! A35   A(7,10,30)            104.7558         estimate D2E/DX2                !
 ! A36   A(7,10,68)            113.1003         estimate D2E/DX2                !
 ! A37   A(21,10,30)           106.2126         estimate D2E/DX2                !
 ! A38   A(21,10,68)           113.5849         estimate D2E/DX2                !
 ! A39   A(30,10,68)           113.5849         estimate D2E/DX2                !
 ! A40   A(9,11,12)            120.2391         estimate D2E/DX2                !
 ! A41   A(9,11,59)            108.4557         estimate D2E/DX2                !
 ! A42   A(12,11,59)           118.7932         estimate D2E/DX2                !
 ! A43   A(11,12,13)           120.0071         estimate D2E/DX2                !
 ! A44   A(11,12,15)           121.0927         estimate D2E/DX2                !
 ! A45   A(13,12,15)           107.7026         estimate D2E/DX2                !
 ! A46   A(5,13,12)            118.1458         estimate D2E/DX2                !
 ! A47   A(5,13,25)            122.7746         estimate D2E/DX2                !
 ! A48   A(12,13,25)           109.4295         estimate D2E/DX2                !
 ! A49   A(16,14,45)           122.0991         estimate D2E/DX2                !
 ! A50   A(16,14,55)           119.144          estimate D2E/DX2                !
 ! A51   A(45,14,55)           109.4731         estimate D2E/DX2                !
 ! A52   A(12,15,24)           109.4731         estimate D2E/DX2                !
 ! A53   A(12,15,57)           119.1433         estimate D2E/DX2                !
 ! A54   A(24,15,57)           122.0987         estimate D2E/DX2                !
 ! A55   A(14,16,17)           117.8633         estimate D2E/DX2                !
 ! A56   A(14,16,58)           119.7071         estimate D2E/DX2                !
 ! A57   A(17,16,58)           108.3568         estimate D2E/DX2                !
 ! A58   A(16,17,48)           119.8647         estimate D2E/DX2                !
 ! A59   A(16,17,56)           108.1338         estimate D2E/DX2                !
 ! A60   A(48,17,56)           118.9477         estimate D2E/DX2                !
 ! A61   A(19,18,40)           129.0639         estimate D2E/DX2                !
 ! A62   A(19,18,47)           106.503          estimate D2E/DX2                !
 ! A63   A(40,18,47)           118.8454         estimate D2E/DX2                !
 ! A64   A(18,19,20)           127.5539         estimate D2E/DX2                !
 ! A65   A(18,19,51)           106.7811         estimate D2E/DX2                !
 ! A66   A(20,19,51)           118.3699         estimate D2E/DX2                !
 ! A67   A(19,20,45)           127.5538         estimate D2E/DX2                !
 ! A68   A(19,20,54)           118.3698         estimate D2E/DX2                !
 ! A69   A(45,20,54)           106.7811         estimate D2E/DX2                !
 ! A70   A(10,21,22)           109.1147         estimate D2E/DX2                !
 ! A71   A(10,21,50)           123.9812         estimate D2E/DX2                !
 ! A72   A(22,21,50)           119.6351         estimate D2E/DX2                !
 ! A73   A(21,22,23)           110.2088         estimate D2E/DX2                !
 ! A74   A(21,22,56)           119.5848         estimate D2E/DX2                !
 ! A75   A(23,22,56)           122.0738         estimate D2E/DX2                !
 ! A76   A(7,23,22)            108.6551         estimate D2E/DX2                !
 ! A77   A(7,23,24)            130.1778         estimate D2E/DX2                !
 ! A78   A(22,23,24)           118.3747         estimate D2E/DX2                !
 ! A79   A(15,24,23)           118.845          estimate D2E/DX2                !
 ! A80   A(15,24,25)           106.5035         estimate D2E/DX2                !
 ! A81   A(23,24,25)           129.0638         estimate D2E/DX2                !
 ! A82   A(13,25,24)           106.7816         estimate D2E/DX2                !
 ! A83   A(13,25,26)           118.3689         estimate D2E/DX2                !
 ! A84   A(24,25,26)           127.5541         estimate D2E/DX2                !
 ! A85   A(4,26,25)            118.3689         estimate D2E/DX2                !
 ! A86   A(4,26,27)            106.7816         estimate D2E/DX2                !
 ! A87   A(25,26,27)           127.5541         estimate D2E/DX2                !
 ! A88   A(26,27,28)           129.0638         estimate D2E/DX2                !
 ! A89   A(26,27,38)           106.5035         estimate D2E/DX2                !
 ! A90   A(28,27,38)           118.8451         estimate D2E/DX2                !
 ! A91   A(7,28,27)            130.1778         estimate D2E/DX2                !
 ! A92   A(7,28,29)            108.6551         estimate D2E/DX2                !
 ! A93   A(27,28,29)           118.3747         estimate D2E/DX2                !
 ! A94   A(28,29,30)           110.2088         estimate D2E/DX2                !
 ! A95   A(28,29,35)           122.0738         estimate D2E/DX2                !
 ! A96   A(30,29,35)           119.5848         estimate D2E/DX2                !
 ! A97   A(10,30,29)           109.1147         estimate D2E/DX2                !
 ! A98   A(10,30,31)           123.9812         estimate D2E/DX2                !
 ! A99   A(29,30,31)           119.6352         estimate D2E/DX2                !
 ! A100  A(30,31,32)           119.6358         estimate D2E/DX2                !
 ! A101  A(30,31,33)           123.9814         estimate D2E/DX2                !
 ! A102  A(32,31,33)           109.1142         estimate D2E/DX2                !
 ! A103  A(31,32,34)           119.5849         estimate D2E/DX2                !
 ! A104  A(31,32,40)           110.2087         estimate D2E/DX2                !
 ! A105  A(34,32,40)           122.074          estimate D2E/DX2                !
 ! A106  A(31,33,37)           104.7573         estimate D2E/DX2                !
 ! A107  A(31,33,50)           106.2125         estimate D2E/DX2                !
 ! A108  A(31,33,69)           113.5845         estimate D2E/DX2                !
 ! A109  A(37,33,50)           104.7572         estimate D2E/DX2                !
 ! A110  A(37,33,69)           113.0985         estimate D2E/DX2                !
 ! A111  A(50,33,69)           113.5845         estimate D2E/DX2                !
 ! A112  A(32,34,35)           118.9477         estimate D2E/DX2                !
 ! A113  A(32,34,44)           119.8648         estimate D2E/DX2                !
 ! A114  A(35,34,44)           108.1338         estimate D2E/DX2                !
 ! A115  A(29,35,34)           118.9477         estimate D2E/DX2                !
 ! A116  A(29,35,36)           119.8646         estimate D2E/DX2                !
 ! A117  A(34,35,36)           108.1341         estimate D2E/DX2                !
 ! A118  A(35,36,38)           117.8637         estimate D2E/DX2                !
 ! A119  A(35,36,43)           108.3569         estimate D2E/DX2                !
 ! A120  A(38,36,43)           119.7072         estimate D2E/DX2                !
 ! A121  A(33,37,40)           104.5427         estimate D2E/DX2                !
 ! A122  A(33,37,46)           104.5427         estimate D2E/DX2                !
 ! A123  A(33,37,70)           112.5541         estimate D2E/DX2                !
 ! A124  A(40,37,46)           114.219          estimate D2E/DX2                !
 ! A125  A(40,37,70)           110.3868         estimate D2E/DX2                !
 ! A126  A(46,37,70)           110.3868         estimate D2E/DX2                !
 ! A127  A(27,38,36)           122.0987         estimate D2E/DX2                !
 ! A128  A(27,38,39)           109.4731         estimate D2E/DX2                !
 ! A129  A(36,38,39)           119.1432         estimate D2E/DX2                !
 ! A130  A(4,39,38)            107.7026         estimate D2E/DX2                !
 ! A131  A(4,39,41)            120.0071         estimate D2E/DX2                !
 ! A132  A(38,39,41)           121.0927         estimate D2E/DX2                !
 ! A133  A(18,40,32)           118.3739         estimate D2E/DX2                !
 ! A134  A(18,40,37)           130.1777         estimate D2E/DX2                !
 ! A135  A(32,40,37)           108.6554         estimate D2E/DX2                !
 ! A136  A(1,41,39)            120.2391         estimate D2E/DX2                !
 ! A137  A(1,41,42)            108.4557         estimate D2E/DX2                !
 ! A138  A(39,41,42)           118.7932         estimate D2E/DX2                !
 ! A139  A(41,42,43)           120.2019         estimate D2E/DX2                !
 ! A140  A(41,42,66)           107.7785         estimate D2E/DX2                !
 ! A141  A(43,42,66)           120.2025         estimate D2E/DX2                !
 ! A142  A(36,43,42)           120.0247         estimate D2E/DX2                !
 ! A143  A(36,43,44)           106.6266         estimate D2E/DX2                !
 ! A144  A(42,43,44)           120.0243         estimate D2E/DX2                !
 ! A145  A(34,44,43)           108.3568         estimate D2E/DX2                !
 ! A146  A(34,44,47)           117.8633         estimate D2E/DX2                !
 ! A147  A(43,44,47)           119.7071         estimate D2E/DX2                !
 ! A148  A(14,45,20)           106.503          estimate D2E/DX2                !
 ! A149  A(14,45,46)           118.8454         estimate D2E/DX2                !
 ! A150  A(20,45,46)           129.0639         estimate D2E/DX2                !
 ! A151  A(37,46,45)           130.1777         estimate D2E/DX2                !
 ! A152  A(37,46,48)           108.6554         estimate D2E/DX2                !
 ! A153  A(45,46,48)           118.3739         estimate D2E/DX2                !
 ! A154  A(18,47,44)           122.0991         estimate D2E/DX2                !
 ! A155  A(18,47,49)           109.4731         estimate D2E/DX2                !
 ! A156  A(44,47,49)           119.144          estimate D2E/DX2                !
 ! A157  A(17,48,46)           122.0741         estimate D2E/DX2                !
 ! A158  A(17,48,50)           119.5849         estimate D2E/DX2                !
 ! A159  A(46,48,50)           110.2087         estimate D2E/DX2                !
 ! A160  A(47,49,51)           107.7018         estimate D2E/DX2                !
 ! A161  A(47,49,66)           121.0914         estimate D2E/DX2                !
 ! A162  A(51,49,66)           120.0104         estimate D2E/DX2                !
 ! A163  A(21,50,33)           123.9814         estimate D2E/DX2                !
 ! A164  A(21,50,48)           119.6358         estimate D2E/DX2                !
 ! A165  A(33,50,48)           109.1142         estimate D2E/DX2                !
 ! A166  A(19,51,49)           109.4312         estimate D2E/DX2                !
 ! A167  A(19,51,52)           122.773          estimate D2E/DX2                !
 ! A168  A(49,51,52)           118.1447         estimate D2E/DX2                !
 ! A169  A(51,52,53)           118.7508         estimate D2E/DX2                !
 ! A170  A(51,52,64)           122.1622         estimate D2E/DX2                !
 ! A171  A(53,52,64)           108.6298         estimate D2E/DX2                !
 ! A172  A(52,53,54)           118.7508         estimate D2E/DX2                !
 ! A173  A(52,53,62)           108.6298         estimate D2E/DX2                !
 ! A174  A(54,53,62)           122.1622         estimate D2E/DX2                !
 ! A175  A(20,54,53)           122.773          estimate D2E/DX2                !
 ! A176  A(20,54,55)           109.4312         estimate D2E/DX2                !
 ! A177  A(53,54,55)           118.1447         estimate D2E/DX2                !
 ! A178  A(14,55,54)           107.7019         estimate D2E/DX2                !
 ! A179  A(14,55,60)           121.0915         estimate D2E/DX2                !
 ! A180  A(54,55,60)           120.0104         estimate D2E/DX2                !
 ! A181  A(17,56,22)           118.9478         estimate D2E/DX2                !
 ! A182  A(17,56,57)           108.1341         estimate D2E/DX2                !
 ! A183  A(22,56,57)           119.8645         estimate D2E/DX2                !
 ! A184  A(15,57,56)           117.8637         estimate D2E/DX2                !
 ! A185  A(15,57,58)           119.7072         estimate D2E/DX2                !
 ! A186  A(56,57,58)           108.3569         estimate D2E/DX2                !
 ! A187  A(16,58,57)           106.6266         estimate D2E/DX2                !
 ! A188  A(16,58,59)           120.0243         estimate D2E/DX2                !
 ! A189  A(57,58,59)           120.0247         estimate D2E/DX2                !
 ! A190  A(11,59,58)           120.2019         estimate D2E/DX2                !
 ! A191  A(11,59,60)           107.7785         estimate D2E/DX2                !
 ! A192  A(58,59,60)           120.2025         estimate D2E/DX2                !
 ! A193  A(55,60,59)           118.7931         estimate D2E/DX2                !
 ! A194  A(55,60,61)           120.2373         estimate D2E/DX2                !
 ! A195  A(59,60,61)           108.4536         estimate D2E/DX2                !
 ! A196  A(9,61,60)            107.4682         estimate D2E/DX2                !
 ! A197  A(9,61,62)            119.7033         estimate D2E/DX2                !
 ! A198  A(60,61,62)           120.0635         estimate D2E/DX2                !
 ! A199  A(53,62,61)           118.9784         estimate D2E/DX2                !
 ! A200  A(53,62,63)           110.1403         estimate D2E/DX2                !
 ! A201  A(61,62,63)           124.2355         estimate D2E/DX2                !
 ! A202  A(8,63,62)            114.2354         estimate D2E/DX2                !
 ! A203  A(8,63,64)            114.2354         estimate D2E/DX2                !
 ! A204  A(8,63,72)            107.5509         estimate D2E/DX2                !
 ! A205  A(62,63,64)           100.7487         estimate D2E/DX2                !
 ! A206  A(62,63,72)           109.9746         estimate D2E/DX2                !
 ! A207  A(64,63,72)           109.9745         estimate D2E/DX2                !
 ! A208  A(52,64,63)           110.1403         estimate D2E/DX2                !
 ! A209  A(52,64,65)           118.9784         estimate D2E/DX2                !
 ! A210  A(63,64,65)           124.2355         estimate D2E/DX2                !
 ! A211  A(1,65,64)            119.7033         estimate D2E/DX2                !
 ! A212  A(1,65,66)            107.4682         estimate D2E/DX2                !
 ! A213  A(64,65,66)           120.0635         estimate D2E/DX2                !
 ! A214  A(42,66,49)           118.7931         estimate D2E/DX2                !
 ! A215  A(42,66,65)           108.4536         estimate D2E/DX2                !
 ! A216  A(49,66,65)           120.2373         estimate D2E/DX2                !
 ! D1    D(41,1,2,3)            -4.6108         estimate D2E/DX2                !
 ! D2    D(41,1,2,8)          -153.1355         estimate D2E/DX2                !
 ! D3    D(65,1,2,3)           132.2337         estimate D2E/DX2                !
 ! D4    D(65,1,2,8)           -16.291          estimate D2E/DX2                !
 ! D5    D(2,1,41,39)            3.7755         estimate D2E/DX2                !
 ! D6    D(2,1,41,42)          145.2454         estimate D2E/DX2                !
 ! D7    D(65,1,41,39)        -137.7035         estimate D2E/DX2                !
 ! D8    D(65,1,41,42)           3.7665         estimate D2E/DX2                !
 ! D9    D(2,1,65,64)           -0.0045         estimate D2E/DX2                !
 ! D10   D(2,1,65,66)         -141.6461         estimate D2E/DX2                !
 ! D11   D(41,1,65,64)         141.6396         estimate D2E/DX2                !
 ! D12   D(41,1,65,66)          -0.002          estimate D2E/DX2                !
 ! D13   D(1,2,3,4)             -0.0246         estimate D2E/DX2                !
 ! D14   D(1,2,3,5)           -144.2801         estimate D2E/DX2                !
 ! D15   D(8,2,3,4)            152.6033         estimate D2E/DX2                !
 ! D16   D(8,2,3,5)              8.3478         estimate D2E/DX2                !
 ! D17   D(1,2,8,6)            138.4282         estimate D2E/DX2                !
 ! D18   D(1,2,8,63)            15.5            estimate D2E/DX2                !
 ! D19   D(1,2,8,71)          -105.5274         estimate D2E/DX2                !
 ! D20   D(3,2,8,6)            -12.4577         estimate D2E/DX2                !
 ! D21   D(3,2,8,63)          -135.3859         estimate D2E/DX2                !
 ! D22   D(3,2,8,71)           103.5866         estimate D2E/DX2                !
 ! D23   D(2,3,4,26)          -137.034          estimate D2E/DX2                !
 ! D24   D(2,3,4,39)             5.4441         estimate D2E/DX2                !
 ! D25   D(5,3,4,26)             3.8124         estimate D2E/DX2                !
 ! D26   D(5,3,4,39)           146.2905         estimate D2E/DX2                !
 ! D27   D(2,3,5,6)              0.0            estimate D2E/DX2                !
 ! D28   D(2,3,5,13)           145.6646         estimate D2E/DX2                !
 ! D29   D(4,3,5,6)           -145.6646         estimate D2E/DX2                !
 ! D30   D(4,3,5,13)             0.0            estimate D2E/DX2                !
 ! D31   D(3,4,26,25)           -3.7985         estimate D2E/DX2                !
 ! D32   D(3,4,26,27)          148.6204         estimate D2E/DX2                !
 ! D33   D(39,4,26,25)        -149.0851         estimate D2E/DX2                !
 ! D34   D(39,4,26,27)           3.3338         estimate D2E/DX2                !
 ! D35   D(3,4,39,38)         -150.3499         estimate D2E/DX2                !
 ! D36   D(3,4,39,41)           -6.2208         estimate D2E/DX2                !
 ! D37   D(26,4,39,38)          -3.24           estimate D2E/DX2                !
 ! D38   D(26,4,39,41)         140.8891         estimate D2E/DX2                !
 ! D39   D(3,5,6,8)             -8.3478         estimate D2E/DX2                !
 ! D40   D(3,5,6,9)            144.2801         estimate D2E/DX2                !
 ! D41   D(13,5,6,8)          -152.6033         estimate D2E/DX2                !
 ! D42   D(13,5,6,9)             0.0247         estimate D2E/DX2                !
 ! D43   D(3,5,13,12)         -146.2905         estimate D2E/DX2                !
 ! D44   D(3,5,13,25)           -3.8123         estimate D2E/DX2                !
 ! D45   D(6,5,13,12)           -5.4442         estimate D2E/DX2                !
 ! D46   D(6,5,13,25)          137.034          estimate D2E/DX2                !
 ! D47   D(5,6,8,2)             12.4577         estimate D2E/DX2                !
 ! D48   D(5,6,8,63)           135.386          estimate D2E/DX2                !
 ! D49   D(5,6,8,71)          -103.5866         estimate D2E/DX2                !
 ! D50   D(9,6,8,2)           -138.4283         estimate D2E/DX2                !
 ! D51   D(9,6,8,63)           -15.5            estimate D2E/DX2                !
 ! D52   D(9,6,8,71)           105.5274         estimate D2E/DX2                !
 ! D53   D(5,6,9,11)             4.6107         estimate D2E/DX2                !
 ! D54   D(5,6,9,61)          -132.2338         estimate D2E/DX2                !
 ! D55   D(8,6,9,11)           153.1355         estimate D2E/DX2                !
 ! D56   D(8,6,9,61)            16.291          estimate D2E/DX2                !
 ! D57   D(23,7,10,21)           4.3755         estimate D2E/DX2                !
 ! D58   D(23,7,10,30)         115.9643         estimate D2E/DX2                !
 ! D59   D(23,7,10,68)        -119.8301         estimate D2E/DX2                !
 ! D60   D(28,7,10,21)        -115.9643         estimate D2E/DX2                !
 ! D61   D(28,7,10,30)          -4.3755         estimate D2E/DX2                !
 ! D62   D(28,7,10,68)         119.8301         estimate D2E/DX2                !
 ! D63   D(67,7,10,21)         124.2056         estimate D2E/DX2                !
 ! D64   D(67,7,10,30)        -124.2056         estimate D2E/DX2                !
 ! D65   D(67,7,10,68)           0.0            estimate D2E/DX2                !
 ! D66   D(10,7,23,22)           5.7165         estimate D2E/DX2                !
 ! D67   D(10,7,23,24)        -154.5997         estimate D2E/DX2                !
 ! D68   D(28,7,23,22)         119.367          estimate D2E/DX2                !
 ! D69   D(28,7,23,24)         -40.9491         estimate D2E/DX2                !
 ! D70   D(67,7,23,22)        -115.5573         estimate D2E/DX2                !
 ! D71   D(67,7,23,24)          84.1265         estimate D2E/DX2                !
 ! D72   D(10,7,28,27)         154.5997         estimate D2E/DX2                !
 ! D73   D(10,7,28,29)          -5.7164         estimate D2E/DX2                !
 ! D74   D(23,7,28,27)          40.9491         estimate D2E/DX2                !
 ! D75   D(23,7,28,29)        -119.367          estimate D2E/DX2                !
 ! D76   D(67,7,28,27)         -84.1265         estimate D2E/DX2                !
 ! D77   D(67,7,28,29)         115.5573         estimate D2E/DX2                !
 ! D78   D(2,8,63,62)          115.2726         estimate D2E/DX2                !
 ! D79   D(2,8,63,64)           -0.001          estimate D2E/DX2                !
 ! D80   D(2,8,63,72)         -122.3642         estimate D2E/DX2                !
 ! D81   D(6,8,63,62)            0.001          estimate D2E/DX2                !
 ! D82   D(6,8,63,64)         -115.2726         estimate D2E/DX2                !
 ! D83   D(6,8,63,72)          122.3642         estimate D2E/DX2                !
 ! D84   D(71,8,63,62)        -122.3632         estimate D2E/DX2                !
 ! D85   D(71,8,63,64)         122.3632         estimate D2E/DX2                !
 ! D86   D(71,8,63,72)           0.0            estimate D2E/DX2                !
 ! D87   D(6,9,11,12)           -3.7754         estimate D2E/DX2                !
 ! D88   D(6,9,11,59)         -145.2453         estimate D2E/DX2                !
 ! D89   D(61,9,11,12)         137.7035         estimate D2E/DX2                !
 ! D90   D(61,9,11,59)          -3.7664         estimate D2E/DX2                !
 ! D91   D(6,9,61,60)          141.646          estimate D2E/DX2                !
 ! D92   D(6,9,61,62)            0.0045         estimate D2E/DX2                !
 ! D93   D(11,9,61,60)           0.002          estimate D2E/DX2                !
 ! D94   D(11,9,61,62)        -141.6396         estimate D2E/DX2                !
 ! D95   D(7,10,21,22)         -13.1959         estimate D2E/DX2                !
 ! D96   D(7,10,21,50)         136.6534         estimate D2E/DX2                !
 ! D97   D(30,10,21,22)       -123.7368         estimate D2E/DX2                !
 ! D98   D(30,10,21,50)         26.1125         estimate D2E/DX2                !
 ! D99   D(68,10,21,22)        110.7002         estimate D2E/DX2                !
 ! D100  D(68,10,21,50)        -99.4505         estimate D2E/DX2                !
 ! D101  D(7,10,30,29)          13.1959         estimate D2E/DX2                !
 ! D102  D(7,10,30,31)        -136.6534         estimate D2E/DX2                !
 ! D103  D(21,10,30,29)        123.7368         estimate D2E/DX2                !
 ! D104  D(21,10,30,31)        -26.1125         estimate D2E/DX2                !
 ! D105  D(68,10,30,29)       -110.7002         estimate D2E/DX2                !
 ! D106  D(68,10,30,31)         99.4504         estimate D2E/DX2                !
 ! D107  D(9,11,12,13)          -1.7716         estimate D2E/DX2                !
 ! D108  D(9,11,12,15)        -141.0892         estimate D2E/DX2                !
 ! D109  D(59,11,12,13)        135.8326         estimate D2E/DX2                !
 ! D110  D(59,11,12,15)         -3.485          estimate D2E/DX2                !
 ! D111  D(9,11,59,58)         149.0314         estimate D2E/DX2                !
 ! D112  D(9,11,59,60)           6.1015         estimate D2E/DX2                !
 ! D113  D(12,11,59,58)          6.9171         estimate D2E/DX2                !
 ! D114  D(12,11,59,60)       -136.0129         estimate D2E/DX2                !
 ! D115  D(11,12,13,5)           6.2207         estimate D2E/DX2                !
 ! D116  D(11,12,13,25)       -140.8892         estimate D2E/DX2                !
 ! D117  D(15,12,13,5)         150.3499         estimate D2E/DX2                !
 ! D118  D(15,12,13,25)          3.24           estimate D2E/DX2                !
 ! D119  D(11,12,15,24)        141.7952         estimate D2E/DX2                !
 ! D120  D(11,12,15,57)         -5.6065         estimate D2E/DX2                !
 ! D121  D(13,12,15,24)         -1.8666         estimate D2E/DX2                !
 ! D122  D(13,12,15,57)       -149.2683         estimate D2E/DX2                !
 ! D123  D(5,13,25,24)        -148.6204         estimate D2E/DX2                !
 ! D124  D(5,13,25,26)           3.7985         estimate D2E/DX2                !
 ! D125  D(12,13,25,24)         -3.3338         estimate D2E/DX2                !
 ! D126  D(12,13,25,26)        149.0851         estimate D2E/DX2                !
 ! D127  D(45,14,16,17)         -3.4403         estimate D2E/DX2                !
 ! D128  D(45,14,16,58)        131.9381         estimate D2E/DX2                !
 ! D129  D(55,14,16,17)       -146.6023         estimate D2E/DX2                !
 ! D130  D(55,14,16,58)        -11.2238         estimate D2E/DX2                !
 ! D131  D(16,14,45,20)       -146.0741         estimate D2E/DX2                !
 ! D132  D(16,14,45,46)          9.9262         estimate D2E/DX2                !
 ! D133  D(55,14,45,20)          0.1861         estimate D2E/DX2                !
 ! D134  D(55,14,45,46)        156.1864         estimate D2E/DX2                !
 ! D135  D(16,14,55,54)        149.2701         estimate D2E/DX2                !
 ! D136  D(16,14,55,60)          5.6052         estimate D2E/DX2                !
 ! D137  D(45,14,55,54)          1.8664         estimate D2E/DX2                !
 ! D138  D(45,14,55,60)       -141.7984         estimate D2E/DX2                !
 ! D139  D(12,15,24,23)       -156.1852         estimate D2E/DX2                !
 ! D140  D(12,15,24,25)         -0.185          estimate D2E/DX2                !
 ! D141  D(57,15,24,23)         -9.9271         estimate D2E/DX2                !
 ! D142  D(57,15,24,25)        146.0731         estimate D2E/DX2                !
 ! D143  D(12,15,57,56)        146.6016         estimate D2E/DX2                !
 ! D144  D(12,15,57,58)         11.2224         estimate D2E/DX2                !
 ! D145  D(24,15,57,56)          3.4418         estimate D2E/DX2                !
 ! D146  D(24,15,57,58)       -131.9375         estimate D2E/DX2                !
 ! D147  D(14,16,17,48)         -4.6913         estimate D2E/DX2                !
 ! D148  D(14,16,17,56)        136.1458         estimate D2E/DX2                !
 ! D149  D(58,16,17,48)       -144.6895         estimate D2E/DX2                !
 ! D150  D(58,16,17,56)         -3.8524         estimate D2E/DX2                !
 ! D151  D(14,16,58,57)       -132.9999         estimate D2E/DX2                !
 ! D152  D(14,16,58,59)          7.8702         estimate D2E/DX2                !
 ! D153  D(17,16,58,57)          6.135          estimate D2E/DX2                !
 ! D154  D(17,16,58,59)        147.0051         estimate D2E/DX2                !
 ! D155  D(16,17,48,46)          6.6131         estimate D2E/DX2                !
 ! D156  D(16,17,48,50)        152.1572         estimate D2E/DX2                !
 ! D157  D(56,17,48,46)       -130.0844         estimate D2E/DX2                !
 ! D158  D(56,17,48,50)         15.4596         estimate D2E/DX2                !
 ! D159  D(16,17,56,22)       -141.255          estimate D2E/DX2                !
 ! D160  D(16,17,56,57)          0.0            estimate D2E/DX2                !
 ! D161  D(48,17,56,22)          0.0            estimate D2E/DX2                !
 ! D162  D(48,17,56,57)        141.255          estimate D2E/DX2                !
 ! D163  D(40,18,19,20)          5.7301         estimate D2E/DX2                !
 ! D164  D(40,18,19,51)        154.8077         estimate D2E/DX2                !
 ! D165  D(47,18,19,20)       -146.9572         estimate D2E/DX2                !
 ! D166  D(47,18,19,51)          2.1203         estimate D2E/DX2                !
 ! D167  D(19,18,40,32)       -141.9533         estimate D2E/DX2                !
 ! D168  D(19,18,40,37)         16.7783         estimate D2E/DX2                !
 ! D169  D(47,18,40,32)          7.897          estimate D2E/DX2                !
 ! D170  D(47,18,40,37)        166.6286         estimate D2E/DX2                !
 ! D171  D(19,18,47,44)        146.0741         estimate D2E/DX2                !
 ! D172  D(19,18,47,49)         -0.1862         estimate D2E/DX2                !
 ! D173  D(40,18,47,44)         -9.9261         estimate D2E/DX2                !
 ! D174  D(40,18,47,49)       -156.1864         estimate D2E/DX2                !
 ! D175  D(18,19,20,45)          0.0001         estimate D2E/DX2                !
 ! D176  D(18,19,20,54)        146.003          estimate D2E/DX2                !
 ! D177  D(51,19,20,45)       -146.003          estimate D2E/DX2                !
 ! D178  D(51,19,20,54)         -0.0001         estimate D2E/DX2                !
 ! D179  D(18,19,51,49)         -3.3354         estimate D2E/DX2                !
 ! D180  D(18,19,51,52)       -148.6201         estimate D2E/DX2                !
 ! D181  D(20,19,51,49)        149.0838         estimate D2E/DX2                !
 ! D182  D(20,19,51,52)          3.7991         estimate D2E/DX2                !
 ! D183  D(19,20,45,14)        146.9571         estimate D2E/DX2                !
 ! D184  D(19,20,45,46)         -5.7303         estimate D2E/DX2                !
 ! D185  D(54,20,45,14)         -2.1203         estimate D2E/DX2                !
 ! D186  D(54,20,45,46)       -154.8077         estimate D2E/DX2                !
 ! D187  D(19,20,54,53)         -3.7991         estimate D2E/DX2                !
 ! D188  D(19,20,54,55)       -149.0837         estimate D2E/DX2                !
 ! D189  D(45,20,54,53)        148.62           estimate D2E/DX2                !
 ! D190  D(45,20,54,55)          3.3354         estimate D2E/DX2                !
 ! D191  D(10,21,22,23)         17.6575         estimate D2E/DX2                !
 ! D192  D(10,21,22,56)        166.9359         estimate D2E/DX2                !
 ! D193  D(50,21,22,23)       -133.7108         estimate D2E/DX2                !
 ! D194  D(50,21,22,56)         15.5676         estimate D2E/DX2                !
 ! D195  D(10,21,50,33)         -0.0003         estimate D2E/DX2                !
 ! D196  D(10,21,50,48)       -146.9076         estimate D2E/DX2                !
 ! D197  D(22,21,50,33)        146.9063         estimate D2E/DX2                !
 ! D198  D(22,21,50,48)         -0.001          estimate D2E/DX2                !
 ! D199  D(21,22,23,7)         -14.5491         estimate D2E/DX2                !
 ! D200  D(21,22,23,24)        148.4436         estimate D2E/DX2                !
 ! D201  D(56,22,23,7)        -162.9287         estimate D2E/DX2                !
 ! D202  D(56,22,23,24)          0.0639         estimate D2E/DX2                !
 ! D203  D(21,22,56,17)        -15.46           estimate D2E/DX2                !
 ! D204  D(21,22,56,57)       -152.1578         estimate D2E/DX2                !
 ! D205  D(23,22,56,17)        130.0838         estimate D2E/DX2                !
 ! D206  D(23,22,56,57)         -6.614          estimate D2E/DX2                !
 ! D207  D(7,23,24,15)         166.6299         estimate D2E/DX2                !
 ! D208  D(7,23,24,25)          16.7796         estimate D2E/DX2                !
 ! D209  D(22,23,24,15)          7.8966         estimate D2E/DX2                !
 ! D210  D(22,23,24,25)       -141.9537         estimate D2E/DX2                !
 ! D211  D(15,24,25,13)          2.1187         estimate D2E/DX2                !
 ! D212  D(15,24,25,26)       -146.9581         estimate D2E/DX2                !
 ! D213  D(23,24,25,13)        154.8059         estimate D2E/DX2                !
 ! D214  D(23,24,25,26)          5.7292         estimate D2E/DX2                !
 ! D215  D(13,25,26,4)           0.0            estimate D2E/DX2                !
 ! D216  D(13,25,26,27)       -146.0027         estimate D2E/DX2                !
 ! D217  D(24,25,26,4)         146.0026         estimate D2E/DX2                !
 ! D218  D(24,25,26,27)          0.0            estimate D2E/DX2                !
 ! D219  D(4,26,27,28)        -154.8059         estimate D2E/DX2                !
 ! D220  D(4,26,27,38)          -2.1187         estimate D2E/DX2                !
 ! D221  D(25,26,27,28)         -5.7291         estimate D2E/DX2                !
 ! D222  D(25,26,27,38)        146.9581         estimate D2E/DX2                !
 ! D223  D(26,27,28,7)         -16.7796         estimate D2E/DX2                !
 ! D224  D(26,27,28,29)        141.9537         estimate D2E/DX2                !
 ! D225  D(38,27,28,7)        -166.6299         estimate D2E/DX2                !
 ! D226  D(38,27,28,29)         -7.8966         estimate D2E/DX2                !
 ! D227  D(26,27,38,36)       -146.0731         estimate D2E/DX2                !
 ! D228  D(26,27,38,39)          0.185          estimate D2E/DX2                !
 ! D229  D(28,27,38,36)          9.9271         estimate D2E/DX2                !
 ! D230  D(28,27,38,39)        156.1852         estimate D2E/DX2                !
 ! D231  D(7,28,29,30)          14.5491         estimate D2E/DX2                !
 ! D232  D(7,28,29,35)         162.9287         estimate D2E/DX2                !
 ! D233  D(27,28,29,30)       -148.4436         estimate D2E/DX2                !
 ! D234  D(27,28,29,35)         -0.064          estimate D2E/DX2                !
 ! D235  D(28,29,30,10)        -17.6575         estimate D2E/DX2                !
 ! D236  D(28,29,30,31)        133.7108         estimate D2E/DX2                !
 ! D237  D(35,29,30,10)       -166.9358         estimate D2E/DX2                !
 ! D238  D(35,29,30,31)        -15.5676         estimate D2E/DX2                !
 ! D239  D(28,29,35,34)       -130.0838         estimate D2E/DX2                !
 ! D240  D(28,29,35,36)          6.614          estimate D2E/DX2                !
 ! D241  D(30,29,35,34)         15.46           estimate D2E/DX2                !
 ! D242  D(30,29,35,36)        152.1578         estimate D2E/DX2                !
 ! D243  D(10,30,31,32)        146.9076         estimate D2E/DX2                !
 ! D244  D(10,30,31,33)          0.0004         estimate D2E/DX2                !
 ! D245  D(29,30,31,32)          0.0009         estimate D2E/DX2                !
 ! D246  D(29,30,31,33)       -146.9063         estimate D2E/DX2                !
 ! D247  D(30,31,32,34)         15.5663         estimate D2E/DX2                !
 ! D248  D(30,31,32,40)       -133.7124         estimate D2E/DX2                !
 ! D249  D(33,31,32,34)        166.9352         estimate D2E/DX2                !
 ! D250  D(33,31,32,40)         17.6565         estimate D2E/DX2                !
 ! D251  D(30,31,33,37)        136.6551         estimate D2E/DX2                !
 ! D252  D(30,31,33,50)         26.1119         estimate D2E/DX2                !
 ! D253  D(30,31,33,69)        -99.4502         estimate D2E/DX2                !
 ! D254  D(32,31,33,37)        -13.1951         estimate D2E/DX2                !
 ! D255  D(32,31,33,50)       -123.7383         estimate D2E/DX2                !
 ! D256  D(32,31,33,69)        110.6997         estimate D2E/DX2                !
 ! D257  D(31,32,34,35)        -15.4596         estimate D2E/DX2                !
 ! D258  D(31,32,34,44)       -152.1572         estimate D2E/DX2                !
 ! D259  D(40,32,34,35)        130.0845         estimate D2E/DX2                !
 ! D260  D(40,32,34,44)         -6.6131         estimate D2E/DX2                !
 ! D261  D(31,32,40,18)        148.4425         estimate D2E/DX2                !
 ! D262  D(31,32,40,37)        -14.5487         estimate D2E/DX2                !
 ! D263  D(34,32,40,18)          0.0626         estimate D2E/DX2                !
 ! D264  D(34,32,40,37)       -162.9286         estimate D2E/DX2                !
 ! D265  D(31,33,37,40)          4.3749         estimate D2E/DX2                !
 ! D266  D(31,33,37,46)       -115.9648         estimate D2E/DX2                !
 ! D267  D(31,33,37,70)        124.205          estimate D2E/DX2                !
 ! D268  D(50,33,37,40)        115.9648         estimate D2E/DX2                !
 ! D269  D(50,33,37,46)         -4.3749         estimate D2E/DX2                !
 ! D270  D(50,33,37,70)       -124.2051         estimate D2E/DX2                !
 ! D271  D(69,33,37,40)       -119.8302         estimate D2E/DX2                !
 ! D272  D(69,33,37,46)        119.8301         estimate D2E/DX2                !
 ! D273  D(69,33,37,70)          0.0            estimate D2E/DX2                !
 ! D274  D(31,33,50,21)        -26.1119         estimate D2E/DX2                !
 ! D275  D(31,33,50,48)        123.7383         estimate D2E/DX2                !
 ! D276  D(37,33,50,21)       -136.6551         estimate D2E/DX2                !
 ! D277  D(37,33,50,48)         13.1951         estimate D2E/DX2                !
 ! D278  D(69,33,50,21)         99.4502         estimate D2E/DX2                !
 ! D279  D(69,33,50,48)       -110.6996         estimate D2E/DX2                !
 ! D280  D(32,34,35,29)          0.0            estimate D2E/DX2                !
 ! D281  D(32,34,35,36)       -141.255          estimate D2E/DX2                !
 ! D282  D(44,34,35,29)        141.255          estimate D2E/DX2                !
 ! D283  D(44,34,35,36)          0.0            estimate D2E/DX2                !
 ! D284  D(32,34,44,43)        144.6895         estimate D2E/DX2                !
 ! D285  D(32,34,44,47)          4.6914         estimate D2E/DX2                !
 ! D286  D(35,34,44,43)          3.8524         estimate D2E/DX2                !
 ! D287  D(35,34,44,47)       -136.1458         estimate D2E/DX2                !
 ! D288  D(29,35,36,38)         -4.6908         estimate D2E/DX2                !
 ! D289  D(29,35,36,43)       -144.6897         estimate D2E/DX2                !
 ! D290  D(34,35,36,38)        136.1464         estimate D2E/DX2                !
 ! D291  D(34,35,36,43)         -3.8524         estimate D2E/DX2                !
 ! D292  D(35,36,38,27)         -3.4418         estimate D2E/DX2                !
 ! D293  D(35,36,38,39)       -146.6017         estimate D2E/DX2                !
 ! D294  D(43,36,38,27)        131.9375         estimate D2E/DX2                !
 ! D295  D(43,36,38,39)        -11.2224         estimate D2E/DX2                !
 ! D296  D(35,36,43,42)        147.0049         estimate D2E/DX2                !
 ! D297  D(35,36,43,44)          6.135          estimate D2E/DX2                !
 ! D298  D(38,36,43,42)          7.8691         estimate D2E/DX2                !
 ! D299  D(38,36,43,44)       -133.0008         estimate D2E/DX2                !
 ! D300  D(33,37,40,18)       -154.5977         estimate D2E/DX2                !
 ! D301  D(33,37,40,32)          5.7166         estimate D2E/DX2                !
 ! D302  D(46,37,40,18)        -40.9485         estimate D2E/DX2                !
 ! D303  D(46,37,40,32)        119.3658         estimate D2E/DX2                !
 ! D304  D(70,37,40,18)         84.1279         estimate D2E/DX2                !
 ! D305  D(70,37,40,32)       -115.5578         estimate D2E/DX2                !
 ! D306  D(33,37,46,45)        154.5977         estimate D2E/DX2                !
 ! D307  D(33,37,46,48)         -5.7166         estimate D2E/DX2                !
 ! D308  D(40,37,46,45)         40.9485         estimate D2E/DX2                !
 ! D309  D(40,37,46,48)       -119.3658         estimate D2E/DX2                !
 ! D310  D(70,37,46,45)        -84.1279         estimate D2E/DX2                !
 ! D311  D(70,37,46,48)        115.5578         estimate D2E/DX2                !
 ! D312  D(27,38,39,4)           1.8666         estimate D2E/DX2                !
 ! D313  D(27,38,39,41)       -141.7952         estimate D2E/DX2                !
 ! D314  D(36,38,39,4)         149.2683         estimate D2E/DX2                !
 ! D315  D(36,38,39,41)          5.6065         estimate D2E/DX2                !
 ! D316  D(4,39,41,1)            1.7716         estimate D2E/DX2                !
 ! D317  D(4,39,41,42)        -135.8326         estimate D2E/DX2                !
 ! D318  D(38,39,41,1)         141.0891         estimate D2E/DX2                !
 ! D319  D(38,39,41,42)          3.485          estimate D2E/DX2                !
 ! D320  D(1,41,42,43)        -149.0314         estimate D2E/DX2                !
 ! D321  D(1,41,42,66)          -6.1015         estimate D2E/DX2                !
 ! D322  D(39,41,42,43)         -6.9171         estimate D2E/DX2                !
 ! D323  D(39,41,42,66)        136.0129         estimate D2E/DX2                !
 ! D324  D(41,42,43,36)          1.34           estimate D2E/DX2                !
 ! D325  D(41,42,43,44)        137.04           estimate D2E/DX2                !
 ! D326  D(66,42,43,36)       -137.0418         estimate D2E/DX2                !
 ! D327  D(66,42,43,44)         -1.3419         estimate D2E/DX2                !
 ! D328  D(41,42,66,49)       -136.0082         estimate D2E/DX2                !
 ! D329  D(41,42,66,65)          6.1001         estimate D2E/DX2                !
 ! D330  D(43,42,66,49)          6.9215         estimate D2E/DX2                !
 ! D331  D(43,42,66,65)        149.0297         estimate D2E/DX2                !
 ! D332  D(36,43,44,34)         -6.135          estimate D2E/DX2                !
 ! D333  D(36,43,44,47)        132.9999         estimate D2E/DX2                !
 ! D334  D(42,43,44,34)       -147.0051         estimate D2E/DX2                !
 ! D335  D(42,43,44,47)         -7.8702         estimate D2E/DX2                !
 ! D336  D(34,44,47,18)          3.4403         estimate D2E/DX2                !
 ! D337  D(34,44,47,49)        146.6023         estimate D2E/DX2                !
 ! D338  D(43,44,47,18)       -131.9382         estimate D2E/DX2                !
 ! D339  D(43,44,47,49)         11.2239         estimate D2E/DX2                !
 ! D340  D(14,45,46,37)       -166.6286         estimate D2E/DX2                !
 ! D341  D(14,45,46,48)         -7.897          estimate D2E/DX2                !
 ! D342  D(20,45,46,37)        -16.7782         estimate D2E/DX2                !
 ! D343  D(20,45,46,48)        141.9533         estimate D2E/DX2                !
 ! D344  D(37,46,48,17)        162.9286         estimate D2E/DX2                !
 ! D345  D(37,46,48,50)         14.5487         estimate D2E/DX2                !
 ! D346  D(45,46,48,17)         -0.0626         estimate D2E/DX2                !
 ! D347  D(45,46,48,50)       -148.4425         estimate D2E/DX2                !
 ! D348  D(18,47,49,51)         -1.8663         estimate D2E/DX2                !
 ! D349  D(18,47,49,66)        141.7984         estimate D2E/DX2                !
 ! D350  D(44,47,49,51)       -149.2701         estimate D2E/DX2                !
 ! D351  D(44,47,49,66)         -5.6053         estimate D2E/DX2                !
 ! D352  D(17,48,50,21)        -15.5662         estimate D2E/DX2                !
 ! D353  D(17,48,50,33)       -166.9352         estimate D2E/DX2                !
 ! D354  D(46,48,50,21)        133.7125         estimate D2E/DX2                !
 ! D355  D(46,48,50,33)        -17.6565         estimate D2E/DX2                !
 ! D356  D(47,49,51,19)          3.2408         estimate D2E/DX2                !
 ! D357  D(47,49,51,52)        150.3487         estimate D2E/DX2                !
 ! D358  D(66,49,51,19)       -140.8893         estimate D2E/DX2                !
 ! D359  D(66,49,51,52)          6.2186         estimate D2E/DX2                !
 ! D360  D(47,49,66,42)         -3.4891         estimate D2E/DX2                !
 ! D361  D(47,49,66,65)       -141.0864         estimate D2E/DX2                !
 ! D362  D(51,49,66,42)        135.8301         estimate D2E/DX2                !
 ! D363  D(51,49,66,65)         -1.7672         estimate D2E/DX2                !
 ! D364  D(19,51,52,53)         -3.8129         estimate D2E/DX2                !
 ! D365  D(19,51,52,64)        137.0295         estimate D2E/DX2                !
 ! D366  D(49,51,52,53)       -146.2899         estimate D2E/DX2                !
 ! D367  D(49,51,52,64)         -5.4475         estimate D2E/DX2                !
 ! D368  D(51,52,53,54)          0.0            estimate D2E/DX2                !
 ! D369  D(51,52,53,62)        145.6593         estimate D2E/DX2                !
 ! D370  D(64,52,53,54)       -145.6593         estimate D2E/DX2                !
 ! D371  D(64,52,53,62)          0.0            estimate D2E/DX2                !
 ! D372  D(51,52,64,63)       -152.6048         estimate D2E/DX2                !
 ! D373  D(51,52,64,65)          0.0316         estimate D2E/DX2                !
 ! D374  D(53,52,64,63)         -8.3528         estimate D2E/DX2                !
 ! D375  D(53,52,64,65)        144.2836         estimate D2E/DX2                !
 ! D376  D(52,53,54,20)          3.8129         estimate D2E/DX2                !
 ! D377  D(52,53,54,55)        146.2899         estimate D2E/DX2                !
 ! D378  D(62,53,54,20)       -137.0295         estimate D2E/DX2                !
 ! D379  D(62,53,54,55)          5.4475         estimate D2E/DX2                !
 ! D380  D(52,53,62,61)       -144.2836         estimate D2E/DX2                !
 ! D381  D(52,53,62,63)          8.3528         estimate D2E/DX2                !
 ! D382  D(54,53,62,61)         -0.0316         estimate D2E/DX2                !
 ! D383  D(54,53,62,63)        152.6048         estimate D2E/DX2                !
 ! D384  D(20,54,55,14)         -3.2408         estimate D2E/DX2                !
 ! D385  D(20,54,55,60)        140.8893         estimate D2E/DX2                !
 ! D386  D(53,54,55,14)       -150.3487         estimate D2E/DX2                !
 ! D387  D(53,54,55,60)         -6.2185         estimate D2E/DX2                !
 ! D388  D(14,55,60,59)          3.4891         estimate D2E/DX2                !
 ! D389  D(14,55,60,61)        141.0865         estimate D2E/DX2                !
 ! D390  D(54,55,60,59)       -135.8302         estimate D2E/DX2                !
 ! D391  D(54,55,60,61)          1.7672         estimate D2E/DX2                !
 ! D392  D(17,56,57,15)       -136.1464         estimate D2E/DX2                !
 ! D393  D(17,56,57,58)          3.8524         estimate D2E/DX2                !
 ! D394  D(22,56,57,15)          4.6908         estimate D2E/DX2                !
 ! D395  D(22,56,57,58)        144.6897         estimate D2E/DX2                !
 ! D396  D(15,57,58,16)        133.0008         estimate D2E/DX2                !
 ! D397  D(15,57,58,59)         -7.8691         estimate D2E/DX2                !
 ! D398  D(56,57,58,16)         -6.135          estimate D2E/DX2                !
 ! D399  D(56,57,58,59)       -147.0049         estimate D2E/DX2                !
 ! D400  D(16,58,59,11)       -137.04           estimate D2E/DX2                !
 ! D401  D(16,58,59,60)          1.3419         estimate D2E/DX2                !
 ! D402  D(57,58,59,11)         -1.34           estimate D2E/DX2                !
 ! D403  D(57,58,59,60)        137.0419         estimate D2E/DX2                !
 ! D404  D(11,59,60,55)        136.0082         estimate D2E/DX2                !
 ! D405  D(11,59,60,61)         -6.1001         estimate D2E/DX2                !
 ! D406  D(58,59,60,55)         -6.9215         estimate D2E/DX2                !
 ! D407  D(58,59,60,61)       -149.0297         estimate D2E/DX2                !
 ! D408  D(55,60,61,9)        -137.7013         estimate D2E/DX2                !
 ! D409  D(55,60,61,62)          3.776          estimate D2E/DX2                !
 ! D410  D(59,60,61,9)           3.7632         estimate D2E/DX2                !
 ! D411  D(59,60,61,62)        145.2405         estimate D2E/DX2                !
 ! D412  D(9,61,62,53)         132.239          estimate D2E/DX2                !
 ! D413  D(9,61,62,63)         -16.2965         estimate D2E/DX2                !
 ! D414  D(60,61,62,53)         -4.6059         estimate D2E/DX2                !
 ! D415  D(60,61,62,63)       -153.1414         estimate D2E/DX2                !
 ! D416  D(53,62,63,8)        -135.3977         estimate D2E/DX2                !
 ! D417  D(53,62,63,64)        -12.4648         estimate D2E/DX2                !
 ! D418  D(53,62,63,72)        103.5725         estimate D2E/DX2                !
 ! D419  D(61,62,63,8)          15.5007         estimate D2E/DX2                !
 ! D420  D(61,62,63,64)        138.4335         estimate D2E/DX2                !
 ! D421  D(61,62,63,72)       -105.5292         estimate D2E/DX2                !
 ! D422  D(8,63,64,52)         135.3977         estimate D2E/DX2                !
 ! D423  D(8,63,64,65)         -15.5006         estimate D2E/DX2                !
 ! D424  D(62,63,64,52)         12.4648         estimate D2E/DX2                !
 ! D425  D(62,63,64,65)       -138.4335         estimate D2E/DX2                !
 ! D426  D(72,63,64,52)       -103.5725         estimate D2E/DX2                !
 ! D427  D(72,63,64,65)        105.5292         estimate D2E/DX2                !
 ! D428  D(52,64,65,1)        -132.239          estimate D2E/DX2                !
 ! D429  D(52,64,65,66)          4.6059         estimate D2E/DX2                !
 ! D430  D(63,64,65,1)          16.2964         estimate D2E/DX2                !
 ! D431  D(63,64,65,66)        153.1414         estimate D2E/DX2                !
 ! D432  D(1,65,66,42)          -3.7632         estimate D2E/DX2                !
 ! D433  D(1,65,66,49)         137.7013         estimate D2E/DX2                !
 ! D434  D(64,65,66,42)       -145.2405         estimate D2E/DX2                !
 ! D435  D(64,65,66,49)         -3.776          estimate D2E/DX2                !
 --------------------------------------------------------------------------------
 Trust Radius=3.00D-01 FncErr=1.00D-07 GrdErr=1.00D-06 EigMax=2.50D+02 EigMin=1.00D-04
 Number of steps in this run=    432 maximum allowed number of steps=    432.
 GradGradGradGradGradGradGradGradGradGradGradGradGradGradGradGradGradGrad

 Leave Link  103 at Wed Jul 20 09:59:35 2022, MaxMem=  1342177280 cpu:               1.8 elap:               0.0
 (Enter /home/mkliu/g16/l202.exe)
[...]
 Alpha virt. eigenvalues --    0.95487   0.96517   0.96631   0.96901   0.97083
 Alpha virt. eigenvalues --    0.97309   0.97876   0.98443   0.99080   0.99142
 Alpha virt. eigenvalues --    0.99191   0.99950   1.00857   1.01121   1.01631
 Alpha virt. eigenvalues --    1.01871   1.02220   1.02325   1.02383   1.03162
 Alpha virt. eigenvalues --    1.04098   1.04830   1.05148   1.06070   1.06197
 Alpha virt. eigenvalues --    1.06250   1.06374   1.06555   1.06651   1.06839
 Alpha virt. eigenvalues --    1.06921   1.07783   1.08465   1.08641   1.09187
 Alpha virt. eigenvalues --    1.09382   1.09735   1.10419   1.10692   1.10850
 Alpha virt. eigenvalues --    1.10953   1.11707   1.11818   1.12573   1.13191
 Alpha virt. eigenvalues --    1.14318   1.14744   1.14872   1.15541   1.16061
 Alpha virt. eigenvalues --    1.16778   1.17372   1.17766   1.18212   1.19284
 Alpha virt. eigenvalues --    1.19948   1.20338   1.20437   1.20804   1.21060
 Alpha virt. eigenvalues --    1.21407   1.22061   1.22625   1.22937   1.22962
 Alpha virt. eigenvalues --    1.23420   1.23929   1.24432   1.24528   1.25416
 Alpha virt. eigenvalues --    1.26650   1.26902   1.27232   1.27993   1.28458
 Alpha virt. eigenvalues --    1.28488   1.28901   1.29593   1.29690   1.30284
 Alpha virt. eigenvalues --    1.30883   1.31782   1.31893   1.31926   1.33181
 Alpha virt. eigenvalues --    1.33531   1.33649   1.34134   1.34305   1.34316
 Alpha virt. eigenvalues --    1.34442   1.34956   1.35152   1.35821   1.36316
 Alpha virt. eigenvalues --    1.36712   1.37218   1.37409   1.37740   1.38522
 Alpha virt. eigenvalues --    1.38908   1.38935   1.39272   1.39710   1.40317
 Alpha virt. eigenvalues --    1.40521   1.40565   1.41047   1.41251   1.41325
 Alpha virt. eigenvalues --    1.42071   1.42399   1.43094   1.43392   1.43419
 Alpha virt. eigenvalues --    1.43509   1.44367   1.44570   1.44766   1.44987
 Alpha virt. eigenvalues --    1.45326   1.45452   1.45618   1.46024   1.46154
 Alpha virt. eigenvalues --    1.46399   1.46482   1.46745   1.47007   1.47150
 Alpha virt. eigenvalues --    1.47459   1.47517   1.48162   1.48782   1.48917
 Alpha virt. eigenvalues --    1.49204   1.49236   1.49518   1.49570   1.50166
 Alpha virt. eigenvalues --    1.50174   1.50527   1.50535   1.51240   1.51571
 Alpha virt. eigenvalues --    1.52153   1.52165   1.52266   1.52567   1.52739
 Alpha virt. eigenvalues --    1.52864   1.52885   1.53501   1.53614   1.53761
 Alpha virt. eigenvalues --    1.54266   1.54663   1.54709   1.54720   1.54931
 Alpha virt. eigenvalues --    1.55376   1.56650   1.56719   1.56960   1.57164
 Alpha virt. eigenvalues --    1.57260   1.57459   1.57813   1.58636   1.58860
 Alpha virt. eigenvalues --    1.59036   1.59302   1.59426   1.60112   1.60542
 Alpha virt. eigenvalues --    1.61377   1.61757   1.62121   1.62480   1.62706
 Alpha virt. eigenvalues --    1.63019   1.63132   1.63575   1.63860   1.65358
 Alpha virt. eigenvalues --    1.65429   1.65637   1.66176   1.66550   1.66758
 Alpha virt. eigenvalues --    1.67636   1.67968   1.67992   1.68851   1.69237
 Alpha virt. eigenvalues --    1.69368   1.69585   1.70310   1.70763   1.70839
 Alpha virt. eigenvalues --    1.70968   1.71005   1.71264   1.71764   1.71887
 Alpha virt. eigenvalues --    1.72665   1.73343   1.73900   1.74232   1.74793
 Alpha virt. eigenvalues --    1.75065   1.75227   1.76107   1.76604   1.77014
 Alpha virt. eigenvalues --    1.77715   1.78442   1.78726   1.78792   1.78989
 Alpha virt. eigenvalues --    1.79007   1.79124   1.80029   1.80264   1.80587
 Alpha virt. eigenvalues --    1.80897   1.81934   1.82118   1.82224   1.82336
 Alpha virt. eigenvalues --    1.82895   1.83364   1.83431   1.84326   1.84551
 Alpha virt. eigenvalues --    1.85466   1.85797   1.85935   1.86176   1.87004
 Alpha virt. eigenvalues --    1.87452   1.88763   1.88793   1.88830   1.89046
 Alpha virt. eigenvalues --    1.89700   1.89759   1.90521   1.90841   1.90895
 Alpha virt. eigenvalues --    1.91208   1.91530   1.91923   1.92235   1.93004
 Alpha virt. eigenvalues --    1.93108   1.93760   1.93916   1.93976   1.95389
 Alpha virt. eigenvalues --    1.95668   1.96453   1.96496   1.97352   1.97935
 Alpha virt. eigenvalues --    1.98711   1.98859   1.99626   1.99822   2.00298
 Alpha virt. eigenvalues --    2.01150   2.01718   2.01965   2.02165   2.02670
 Alpha virt. eigenvalues --    2.02846   2.02886   2.04126   2.04335   2.04480
 Alpha virt. eigenvalues --    2.04673   2.06044   2.06589   2.07074   2.07419
 Alpha virt. eigenvalues --    2.07575   2.07788   2.07981   2.09519   2.09814
 Alpha virt. eigenvalues --    2.09923   2.10267   2.10330   2.10751   2.11164
 Alpha virt. eigenvalues --    2.11834   2.11851   2.12098   2.12610   2.12749
 Alpha virt. eigenvalues --    2.12799   2.13205   2.14277   2.14799   2.15373
 Alpha virt. eigenvalues --    2.16179   2.16370   2.17000   2.17012   2.17426
 Alpha virt. eigenvalues --    2.18438   2.19529   2.20221   2.20849   2.21015
 Alpha virt. eigenvalues --    2.21743   2.22201   2.22929   2.23199   2.23263
 Alpha virt. eigenvalues --    2.23818   2.24366   2.24472   2.25247   2.25974
 Alpha virt. eigenvalues --    2.26664   2.27128   2.27531   2.27804   2.28743
 Alpha virt. eigenvalues --    2.29850   2.30444   2.30629   2.31002   2.31792
 Alpha virt. eigenvalues --    2.32340   2.32460   2.33314   2.34627   2.34784
 Alpha virt. eigenvalues --    2.35126   2.35474   2.37561   2.37650   2.38283
 Alpha virt. eigenvalues --    2.38523   2.38545   2.38692   2.40094   2.40673
 Alpha virt. eigenvalues --    2.41010   2.41351   2.41382   2.41978   2.42079
 Alpha virt. eigenvalues --    2.42473   2.42624   2.42943   2.43014   2.43825
 Alpha virt. eigenvalues --    2.44008   2.44542   2.45714   2.45737   2.45801
 Alpha virt. eigenvalues --    2.45932   2.46230   2.46527   2.47342   2.47836
 Alpha virt. eigenvalues --    2.49335   2.49864   2.49880   2.50470   2.52396
 Alpha virt. eigenvalues --    2.52850   2.53242   2.53772   2.54265   2.54422
 Alpha virt. eigenvalues --    2.55304   2.55912   2.56362   2.56501   2.57375
 Alpha virt. eigenvalues --    2.57954   2.58095   2.58267   2.58841   2.59121
 Alpha virt. eigenvalues --    2.59531   2.59861   2.60025   2.60266   2.61282
 Alpha virt. eigenvalues --    2.61300   2.61366   2.62373   2.63840   2.64307
 Alpha virt. eigenvalues --    2.64532   2.66071   2.66139   2.66540   2.67225
 Alpha virt. eigenvalues --    2.67566   2.67621   2.68764   2.69176   2.70753
 Alpha virt. eigenvalues --    2.70860   2.70991   2.72060   2.72280   2.73950
 Alpha virt. eigenvalues --    2.74160   2.74290   2.74598   2.74924   2.75688
 Alpha virt. eigenvalues --    2.76794   2.77354   2.79229   2.79707   2.80433
 Alpha virt. eigenvalues --    2.80484   2.80509   2.82286   2.82938   2.83430
 Alpha virt. eigenvalues --    2.84138   2.84904   2.85036   2.85837   2.86853
 Alpha virt. eigenvalues --    2.87202   2.87943   2.88395   2.90116   2.91026
 Alpha virt. eigenvalues --    2.91506   2.91942   2.92010   2.92243   2.92699
 Alpha virt. eigenvalues --    2.93530   2.94077   2.94154   2.95897   2.95920
 Alpha virt. eigenvalues --    2.96034   2.97431   2.98095   2.98255   2.98438
 Alpha virt. eigenvalues --    2.99367   2.99682   3.00094   3.00179   3.00364
 Alpha virt. eigenvalues --    3.00920   3.01088   3.01826   3.01977   3.03339
 Alpha virt. eigenvalues --    3.03618   3.04048   3.04137   3.04478   3.04555
 Alpha virt. eigenvalues --    3.05278   3.05455   3.06066   3.06273   3.06584
 Alpha virt. eigenvalues --    3.06671   3.07398   3.07887   3.07903   3.08022
 Alpha virt. eigenvalues --    3.08804   3.08871   3.09383   3.09558   3.10237
 Alpha virt. eigenvalues --    3.10473   3.11145   3.11185   3.11418   3.12027
 Alpha virt. eigenvalues --    3.12185   3.12471   3.13116   3.13297   3.13571
 Alpha virt. eigenvalues --    3.13932   3.14427   3.14915   3.15073   3.15101
 Alpha virt. eigenvalues --    3.15160   3.15811   3.16559   3.16686   3.16917
 Alpha virt. eigenvalues --    3.17309   3.17681   3.18074   3.18472   3.18547
 Alpha virt. eigenvalues --    3.18951   3.19532   3.20584   3.20591   3.21313
 Alpha virt. eigenvalues --    3.21852   3.22064   3.22291   3.23718   3.24486
 Alpha virt. eigenvalues --    3.27462   3.27484   3.29010   3.32948   3.33351
 Alpha virt. eigenvalues --    3.33826   3.35665   3.38211   3.40569   3.40888
 Alpha virt. eigenvalues --    3.40933   3.44031   3.44555   3.44657   3.47026
 Alpha virt. eigenvalues --    3.48541   3.49760   3.51310   3.52859   3.53489
 Alpha virt. eigenvalues --    3.54172   3.54617   3.55562   3.56173   3.57517
 Alpha virt. eigenvalues --    3.57597   3.58697   3.60860   3.61036   3.63143
 Alpha virt. eigenvalues --    3.63517   3.64140   3.64841   3.66442   3.67920
 Alpha virt. eigenvalues --    3.68534   3.69378   3.70120   3.71099   3.71435
 Alpha virt. eigenvalues --    3.71509   3.74308   3.74415   3.75887   3.76880
 Alpha virt. eigenvalues --    3.78512   3.78888   3.79322   3.80571   3.82951
 Alpha virt. eigenvalues --    3.84077   3.85366   3.85424   3.87302   3.87334
 Alpha virt. eigenvalues --    3.87566   3.87775   3.89273   3.91077   3.91084
 Alpha virt. eigenvalues --    3.91620   3.92634   3.92701   3.92853   3.92890
 Alpha virt. eigenvalues --    3.94998   3.97828   4.01829   4.02334   4.02607
 Alpha virt. eigenvalues --    4.08351   4.10948   4.16805   4.20974   4.23130
 Alpha virt. eigenvalues --    4.26498   4.28321   4.32881   4.35898   4.38449
 Alpha virt. eigenvalues --    4.38977   4.39425   4.39941   4.40287   4.42952
 Alpha virt. eigenvalues --    4.45773   4.53038   4.56804   4.57133   4.57878
 Alpha virt. eigenvalues --    4.61739   4.62120   4.66626   4.69822   4.70468
 Alpha virt. eigenvalues --    4.71751   4.73156   4.77866   4.87536   4.89088
 Alpha virt. eigenvalues --    4.91035   4.92963   5.00747   5.01298   5.01514
 Alpha virt. eigenvalues --    5.03426   5.06075  23.05356  23.20079  23.26022
 Alpha virt. eigenvalues --   23.30574  23.42300  23.47330  23.51853  23.52300
 Alpha virt. eigenvalues --   23.56465  23.63266  23.65086  23.68247  23.70621
 Alpha virt. eigenvalues --   23.74079  23.77735  23.79314  23.81043  23.81853
 Alpha virt. eigenvalues --   23.84169  23.84369  23.85247  23.85634  23.86283
 Alpha virt. eigenvalues --   23.87762  23.87988  23.92001  23.92506  23.93816
 Alpha virt. eigenvalues --   23.94853  23.96739  23.96757  23.96918  23.97815
 Alpha virt. eigenvalues --   23.98436  23.98835  23.99664  23.99762  24.00192
 Alpha virt. eigenvalues --   24.00669  24.01502  24.02087  24.02334  24.03148
 Alpha virt. eigenvalues --   24.03628  24.03895  24.04722  24.05195  24.07160
 Alpha virt. eigenvalues --   24.07514  24.08924  24.09092  24.09228  24.10607
 Alpha virt. eigenvalues --   24.11629  24.11846  24.12005  24.13128  24.13134
 Alpha virt. eigenvalues --   24.13898  24.14249  24.14306  24.15177  24.15412
 Alpha virt. eigenvalues --   24.16217  24.16362  24.17885
          Condensed to atoms (all electrons):
 Mulliken charges:
               1
     1  C    0.002132
     2  C   -0.019518
     3  C    0.014119
     4  C   -0.010478
     5  C    0.014119
     6  C   -0.019518
     7  C   -0.125013
     8  C   -0.148543
     9  C    0.002132
    10  C   -0.171129
    11  C    0.001228
    12  C   -0.001970
    13  C   -0.010478
    14  C   -0.005667
    15  C   -0.005667
    16  C   -0.006117
    17  C   -0.011223
    18  C    0.016787
    19  C   -0.001769
    20  C   -0.001769
    21  C   -0.004920
    22  C    0.033488
    23  C   -0.024746
    24  C    0.016787
    25  C   -0.001769
    26  C   -0.001769
    27  C    0.016787
    28  C   -0.024746
    29  C    0.033488
    30  C   -0.004920
    31  C   -0.004921
    32  C    0.033488
    33  C   -0.171129
    34  C   -0.011223
    35  C   -0.011223
    36  C   -0.006117
    37  C   -0.125013
    38  C   -0.005667
    39  C   -0.001970
    40  C   -0.024746
    41  C    0.001228
    42  C   -0.003834
    43  C   -0.011993
    44  C   -0.006117
    45  C    0.016787
    46  C   -0.024746
    47  C   -0.005667
    48  C    0.033488
    49  C   -0.001970
    50  C   -0.004921
    51  C   -0.010478
    52  C    0.014119
    53  C    0.014119
    54  C   -0.010478
    55  C   -0.001970
    56  C   -0.011223
    57  C   -0.006117
    58  C   -0.011993
    59  C   -0.003834
    60  C    0.001228
    61  C    0.002132
    62  C   -0.019519
    63  C   -0.148543
    64  C   -0.019519
    65  C    0.002132
    66  C    0.001228
    67  H    0.165702
    68  H    0.160379
    69  H    0.160379
    70  H    0.165702
    71  H    0.171741
    72  H    0.171740
 Sum of Mulliken charges =  -0.00000
 Mulliken charges with hydrogens summed into heavy atoms:
               1
     1  C    0.002132
     2  C   -0.019518
     3  C    0.014119
     4  C   -0.010478
     5  C    0.014119
     6  C   -0.019518
     7  C    0.040688
     8  C    0.023198
     9  C    0.002132
    10  C   -0.010750
    11  C    0.001228
    12  C   -0.001970
    13  C   -0.010478
    14  C   -0.005667
    15  C   -0.005667
    16  C   -0.006117
    17  C   -0.011223
    18  C    0.016787
    19  C   -0.001769
    20  C   -0.001769
    21  C   -0.004920
    22  C    0.033488
    23  C   -0.024746
    24  C    0.016787
    25  C   -0.001769
    26  C   -0.001769
    27  C    0.016787
    28  C   -0.024746
    29  C    0.033488
    30  C   -0.004920
    31  C   -0.004921
    32  C    0.033488
    33  C   -0.010750
    34  C   -0.011223
    35  C   -0.011223
    36  C   -0.006117
    37  C    0.040689
    38  C   -0.005667
    39  C   -0.001970
    40  C   -0.024746
    41  C    0.001228
    42  C   -0.003834
    43  C   -0.011993
    44  C   -0.006117
    45  C    0.016787
    46  C   -0.024746
    47  C   -0.005667
    48  C    0.033488
    49  C   -0.001970
    50  C   -0.004921
    51  C   -0.010478
    52  C    0.014119
    53  C    0.014119
    54  C   -0.010478
    55  C   -0.001970
    56  C   -0.011223
    57  C   -0.006117
    58  C   -0.011993
    59  C   -0.003834
    60  C    0.001228
    61  C    0.002132
    62  C   -0.019519
    63  C    0.023198
    64  C   -0.019519
    65  C    0.002132
    66  C    0.001228
 Electronic spatial extent (au):  <R**2>=          21328.3451
 Charge=             -0.0000 electrons
 Dipole moment (field-independent basis, Debye):
    X=             -1.6417    Y=             -0.0000    Z=              0.0000  Tot=              1.6417
 Quadrupole moment (field-independent basis, Debye-Ang):
   XX=           -336.2553   YY=           -386.0128   ZZ=           -367.0202
   XY=              0.0000   XZ=              0.0000   YZ=              0.0000
 Traceless Quadrupole moment (field-independent basis, Debye-Ang):
   XX=             26.8408   YY=            -22.9167   ZZ=             -3.9241
   XY=              0.0000   XZ=              0.0000   YZ=              0.0000
 Octapole moment (field-independent basis, Debye-Ang**2):
  XXX=            -12.7564  YYY=             -0.0000  ZZZ=              0.0000  XYY=              1.4632
  XXY=              0.0000  XXZ=              0.0000  XZZ=            -55.5286  YZZ=             -0.0000
  YYZ=              0.0000  XYZ=             -0.0000
 Hexadecapole moment (field-independent basis, Debye-Ang**3):
 XXXX=         -11900.3862 YYYY=         -11181.7231 ZZZZ=          -8776.9450 XXXY=              0.0000
 XXXZ=              0.0002 YYYX=             -0.0000 YYYZ=             -0.0000 ZZZX=              0.0002
 ZZZY=              0.0000 XXYY=          -4111.2412 XXZZ=          -3442.4529 YYZZ=          -3366.2114
 XXYZ=              0.0000 YYXZ=              0.0000 ZZXY=             -0.0000
 N-N= 9.879251225883D+03 E-N=-2.560129673872D+04  KE= 2.508693858193D+03
 No NMR shielding tensors so no spin-rotation constants.
 Leave Link  601 at Wed Jul 20 10:31:55 2022, MaxMem=  1342177280 cpu:              61.3 elap:               1.5
 (Enter /home/mkliu/g16/l9999.exe)
 1\1\GINC-NODE02\FOpt\RB3LYP\6-311G(d,p)\C66H6\MKLIU\20-Jul-2022\0\\#P 
 opt b3lyp/6-311G(d, p) empiricaldispersion=GD3\\force\\0,1\C,12.790042
 304,12.0962845854,21.9080750925\C,12.790437458,13.0331851955,22.911253
 4045\C,12.7153990303,14.4251227391,22.5733237374\C,12.6209599441,14.85
 74264776,21.2488548129\C,13.5215245714,15.1692399049,23.4906815621\C,1
 4.1210303888,14.2614269369,24.4254466362\C,15.6321241468,17.372499623,
 18.734153048\C,13.5369766524,12.8621183525,24.2338652247\C,15.39599394
 57,14.5017825618,24.8736059105\C,16.9330999145,16.998293678,17.8944624
 762\C,16.0752407364,15.7151429959,24.4912911658\C,15.4687451699,16.613
 659591,23.5990640358\C,14.1913574992,16.3070267072,23.0359418263\C,19.
 2498994544,14.0490032991,22.5968419888\C,16.2436842781,17.2969826129,2
 2.6039374206\C,19.2139404108,15.4430239235,22.5882918996\C,19.28110492
 68,16.1142557554,21.3341940764\C,17.4686705044,11.5965596466,19.294385
 1051\C,17.7322838124,11.2975181937,20.7309783235\C,18.5172462786,12.02
 21001951,21.6242529126\C,18.0330991413,16.884528154,18.9249423596\C,17
 .5845055961,17.4239809212,20.1670678092\C,16.1467528004,17.5352623455,
 20.1689855644\C,15.469871677,17.3944803687,21.3699787361\C,14.16415590
 53,16.7252738493,21.6345271439\C,13.3791933753,16.0006918175,20.741252
 4982\C,13.6538622566,15.7181610928,19.3033893821\C,14.6865504537,16.18
 73809335,18.5072989183\C,15.2772650831,15.2942167648,17.5414654172\C,1
 6.6555342951,15.612927644,17.357295842\C,17.5912414274,14.6019692851,1
 7.35508729\C,17.1674812789,13.2519860421,17.5370034419\C,18.9950678727
 ,14.7704988383,17.8895956029\C,15.8199119567,12.9193028926,17.39541245
 42\C,14.8412347124,13.9766867574,17.3977225563\C,13.6990367037,13.5242
 623687,18.117805836\C,19.2695498793,13.4425462161,18.7255675237\C,13.1
 007058674,14.3957667676,19.0272788263\C,12.4994273051,13.8727460688,20
 .2200283321\C,18.0144786578,12.5918150825,18.4994440795\C,12.602323359
 3,12.5093675915,20.5391673697\C,13.395245059,11.6517247762,19.68489142
 61\C,13.9192911676,12.1393540904,18.4989094315\C,15.2822296439,11.8137
 461913,18.114068636\C,19.2846800524,13.2728790511,21.3609746081\C,19.4
 746810312,13.9396965241,20.1611307679\C,16.1069205486,11.1477869992,19
 .0201828285\C,19.4747222753,15.3817506327,20.1626063827\C,15.541641273
 1,10.5858719028,20.2128476717\C,18.9688063372,15.8735698581,18.9227338
 831\C,16.5350033854,10.6286091733,21.2396160798\C,16.1141664977,10.753
 0207417,22.5653018025\C,16.9202919226,11.4971377977,23.4826594939\C,18
 .1054012352,12.07820969,23.0267034374\C,18.5109594097,13.3267856715,23
 .5918836778\C,18.3024277253,17.1716396596,21.3365042243\C,17.630747052
 3,17.1535397191,22.5920286179\C,18.2478358285,16.1349406606,23.4247232
 45\C,17.485179995,15.4270558365,24.3391712312\C,17.6638910228,13.99873
 10238,24.4875418959\C,16.4025500701,13.414278106,24.8712311282\C,16.06
 35084768,12.1627307524,24.4208613218\C,14.6228729198,11.6888919109,24.
 2313026746\C,14.7329163647,10.9344897642,22.9066690128\C,13.79659736,1
 1.0087791612,21.9056991059\C,14.1909732264,10.7929552225,20.5354176186
 \H,15.1724969797,18.3012580159,18.3846843273\H,17.1440981214,17.733021
 9774,17.1130716606\H,19.7421885348,14.9259889536,17.1069393017\H,20.15
 92899992,12.9134188517,18.3729139809\H,12.829894946,12.6369611988,25.0
 378480615\H,14.3455524633,10.9994107907,25.034271609\\Version=ES64L-G1
 6RevA.03\State=1-A\HF=-2519.0506972\RMSD=3.397e-09\RMSF=7.084e-05\Dipo
 le=0.3035264,0.2820132,-0.4954786\Quadrupole=-2.3529606,-2.3798328,4.7
 327934,0.5516604,-13.3519189,-12.3747818\PG=C01 [X(C66H6)]\\@


 A great many people think they are thinking when they
 are merely rearranging their prejudices.
                               -- William James
 Job cpu time:       1 days  1 hours 39 minutes  7.2 seconds.
 Elapsed time:       0 days  0 hours 32 minutes  8.3 seconds.
 File lengths (MBytes):  RWF=    920 Int=      0 D2E=      0 Chk=    114 Scr=      1
 Normal termination of Gaussian 16 at Wed Jul 20 10:31:57 2022.
