 Entering Gaussian System, Link 0=g16
 Input=dihept_8_addons_2.gjf
 Output=dihept_8_addons_2.log
 Initial command:
 /home/mkliu/g16/l1.exe "/data/scratch/Gau-117943.inp" -scrdir="/data/scratch/"
 Entering Link 1 = /home/mkliu/g16/l1.exe PID=    117944.
  
 Copyright (c) 1988,1990,1992,1993,1995,1998,2003,2009,2016,
            Gaussian, Inc.  All Rights Reserved.
  
 This is part of the Gaussian(R) 16 program.  It is based on
 the Gaussian(R) 09 system (copyright 2009, Gaussian, Inc.),
 the Gaussian(R) 03 system (copyright 2003, Gaussian, Inc.),
 the Gaussian(R) 98 system (copyright 1998, Gaussian, Inc.),
 the Gaussian(R) 94 system (copyright 1995, Gaussian, Inc.),
 the Gaussian 92(TM) system (copyright 1992, Gaussian, Inc.),
 the Gaussian 90(TM) system (copyright 1990, Gaussian, Inc.),
 the Gaussian 88(TM) system (copyright 1988, Gaussian, Inc.),
 the Gaussian 86(TM) system (copyright 1986, Carnegie Mellon
 University), and the Gaussian 82(TM) system (copyright 1983,
 Carnegie Mellon University). Gaussian is a federally registered
 trademark of Gaussian, Inc.
  
 This software contains proprietary and confidential information,
 including trade secrets, belonging to Gaussian, Inc.
  
 This software is provided under written license and may be
 used, copied, transmitted, or stored only in accord with that
 written license.
  
 The following legend is applicable only to US Government
 contracts under FAR:
  
                    RESTRICTED RIGHTS LEGEND
  
 Use, reproduction and disclosure by the US Government is
 subject to restrictions as set forth in subparagraphs (a)
 and (c) of the Commercial Computer Software - Restricted
 Rights clause in FAR 52.227-19.
  
 Gaussian, Inc.
 340 Quinnipiac St., Bldg. 40, Wallingford CT 06492
  
  
 ---------------------------------------------------------------
 Warning -- This program may not be used in any manner that
 competes with the business of Gaussian, Inc. or will provide
 assistance to any competitor of Gaussian, Inc.  The licensee
 of this program is prohibited from giving any competitor of
 Gaussian, Inc. access to this program.  By using this program,
 the user acknowledges that Gaussian, Inc. is engaged in the
 business of creating and licensing software in the field of
 computational chemistry and represents and warrants to the
 licensee that it is not a competitor of Gaussian, Inc. and that
 it will not use this program in any manner prohibited above.
 ---------------------------------------------------------------
  

 Cite this work as:
 Gaussian 16, Revision A.03,
 M. J. Frisch, G. W. Trucks, H. B. Schlegel, G. E. Scuseria, 
 M. A. Robb, J. R. Cheeseman, G. Scalmani, V. Barone, 
 G. A. Petersson, H. Nakatsuji, X. Li, M. Caricato, A. V. Marenich, 
 J. Bloino, B. G. Janesko, R. Gomperts, B. Mennucci, H. P. Hratchian, 
 J. V. Ortiz, A. F. Izmaylov, J. L. Sonnenberg, D. Williams-Young, 
 F. Ding, F. Lipparini, F. Egidi, J. Goings, B. Peng, A. Petrone, 
 T. Henderson, D. Ranasinghe, V. G. Zakrzewski, J. Gao, N. Rega, 
 G. Zheng, W. Liang, M. Hada, M. Ehara, K. Toyota, R. Fukuda, 
 J. Hasegawa, M. Ishida, T. Nakajima, Y. Honda, O. Kitao, H. Nakai, 
 T. Vreven, K. Throssell, J. A. Montgomery, Jr., J. E. Peralta, 
 F. Ogliaro, M. J. Bearpark, J. J. Heyd, E. N. Brothers, K. N. Kudin, 
 V. N. Staroverov, T. A. Keith, R. Kobayashi, J. Normand, 
 K. Raghavachari, A. P. Rendell, J. C. Burant, S. S. Iyengar, 
 J. Tomasi, M. Cossi, J. M. Millam, M. Klene, C. Adamo, R. Cammi, 
 J. W. Ochterski, R. L. Martin, K. Morokuma, O. Farkas, 
 J. B. Foresman, and D. J. Fox, Gaussian, Inc., Wallingford CT, 2016.
 
 ******************************************
 Gaussian 16:  ES64L-G16RevA.03 25-Dec-2016
                20-Jul-2022 
 ******************************************
 %mem=10GB
 %chk=dihept_8_addons_2.chk
 %nprocshared=48
 Will use up to   48 processors via shared memory.
 -------------------------------------------------
 #P opt b3lyp/6-311G(d, p) empiricaldispersion=GD3
 -------------------------------------------------
 1/18=20,19=15,26=3,38=1/1,3;
 2/9=110,12=2,17=6,18=5,40=1/2;
 3/5=4,6=6,7=101,11=2,25=1,30=1,71=1,74=-5,124=31/1,2,3;
 4//1;
 5/5=2,38=5/2;
 6/7=2,8=2,9=2,10=2,28=1/1;
 7//1,2,3,16;
 1/18=20,19=15,26=3/3(2);
 2/9=110/2;
 99//99;
 2/9=110/2;
 3/5=4,6=6,7=101,11=2,25=1,30=1,71=1,74=-5,124=31/1,2,3;
 4/5=5,16=3,69=1/1;
 5/5=2,38=5/2;
 7//1,2,3,16;
 1/18=20,19=15,26=3/3(-5);
 2/9=110/2;
 6/7=2,8=2,9=2,10=2,19=2,28=1/1;
 99/9=1/99;
 Leave Link    1 at Wed Jul 20 04:21:53 2022, MaxMem=  1342177280 cpu:               2.0 elap:               0.0
 (Enter /home/mkliu/g16/l101.exe)
 -----
 force
 -----
 Symbolic Z-matrix:
 Charge =  0 Multiplicity = 1
 C                     12.77902   12.08576   21.90378 
 C                     12.78419   13.03112   22.91741 
 C                     12.66434   14.43033   22.59033 
 C                     12.59646   14.8432   21.26565 
 C                     13.46591   15.17356   23.50671 
 C                     14.09604   14.2479   24.4159 
 C                     15.62449   17.32701   18.76154 
 C                     13.70972   12.91775   24.01752 
 C                     15.38299   14.49652   24.87314 
 C                     16.89615   16.99682   17.89741 
 C                     16.05488   15.71024   24.49564 
 C                     15.44333   16.57561   23.59739 
 C                     14.1587   16.28285   23.03982 
 C                     19.24203   14.03739   22.63639 
 C                     16.21165   17.21344   22.5729 
 C                     19.20326   15.4025   22.6058 
 C                     19.48628   16.20141   21.35768 
 C                     17.42452   11.60001   19.3372 
 C                     17.67556   11.32188   20.76559 
 C                     18.45341   12.03226   21.65559 
 C                     18.14871   17.11535   18.79894 
 C                     17.55343   17.30884   20.16191 
 C                     16.14738   17.40688   20.17002 
 C                     15.4523   17.29243   21.36498 
 C                     14.14822   16.67822   21.64355 
 C                     13.35803   15.96463   20.75719 
 C                     13.64344   15.69164   19.33891 
 C                     14.67148   16.16529   18.55015 
 C                     15.26723   15.27642   17.60728 
 C                     16.6475   15.5949   17.45756 
 C                     17.569    14.59574   17.45505 
 C                     17.13978   13.24533   17.59819 
 C                     18.98672   14.72496   17.89837 
 C                     15.80171   12.91801   17.43922 
 C                     14.83314   13.96969   17.44403 
 C                     13.68613   13.51276   18.14942 
 C                     19.19821   13.43925   18.77422 
 C                     13.0931   14.38263   19.05535 
 C                     12.48398   13.85307   20.23613 
 C                     17.97446   12.58171   18.5451 
 C                     12.57547   12.49754   20.53883 
 C                     13.36333   11.64107   19.6912 
 C                     13.89872   12.13345   18.51456 
 C                     15.25608   11.81146   18.14695 
 C                     19.47662   13.1509   21.4198 
 C                     19.32531   13.98772   20.17453 
 C                     16.07717   11.15478   19.05581 
 C                     19.37449   15.3174   20.16198 
 C                     15.50137   10.59989   20.24025 
 C                     19.2149   15.95564   18.80551 
 C                     16.49521   10.65081   21.26936 
 C                     16.08523   10.74319   22.59202 
 C                     16.88509   11.48668   23.50334 
 C                     18.04361   12.09252   23.031 
 C                     18.46199   13.33881   23.59897 
 C                     18.26557   17.0868   21.30958 
 C                     17.59138   17.0453   22.54 
 C                     18.22291   16.07968   23.39855 
 C                     17.46007   15.41377   24.34407 
 C                     17.63119   14.00453   24.50274 
 C                     16.36174   13.4374   24.87369 
 C                     16.00996   12.17838   24.4169 
 C                     14.65516   11.89599   24.01896 
 C                     14.69931   10.96266   22.91966 
 C                     13.75803   11.02864   21.90492 
 C                     14.15575   10.79191   20.54187 
 H                     15.15624   18.27263   18.46815 
 H                     16.97585   17.66821   17.03882 
 H                     18.68545   18.02911   18.52077 
 H                     20.17179   16.41715   18.5348 
 H                     19.66624   14.74251   17.04294 
 H                     20.10622   12.88931   18.50186 
 H                     20.44015   16.73855   21.38387 
 H                     20.48226   12.7052   21.42802 
 
 ITRead=  0  0  0  0  0  0  0  0  0  0  0  0  0  0  0  0  0  0  0  0
 ITRead=  0  0  0  0  0  0  0  0  0  0  0  0  0  0  0  0  0  0  0  0
 ITRead=  0  0  0  0  0  0  0  0  0  0  0  0  0  0  0  0  0  0  0  0
 ITRead=  0  0  0  0  0  0  0  0  0  0  0  0  0  0
 MicOpt= -1 -1 -1 -1 -1 -1 -1 -1 -1 -1 -1 -1 -1 -1 -1 -1 -1 -1 -1 -1
 MicOpt= -1 -1 -1 -1 -1 -1 -1 -1 -1 -1 -1 -1 -1 -1 -1 -1 -1 -1 -1 -1
 MicOpt= -1 -1 -1 -1 -1 -1 -1 -1 -1 -1 -1 -1 -1 -1 -1 -1 -1 -1 -1 -1
 MicOpt= -1 -1 -1 -1 -1 -1 -1 -1 -1 -1 -1 -1 -1 -1
 NAtoms=     74 NQM=       74 NQMF=       0 NMMI=      0 NMMIF=      0
                NMic=       0 NMicF=      0.
                    Isotopes and Nuclear Properties:
 (Nuclear quadrupole moments (NQMom) in fm**2, nuclear magnetic moments (NMagM)
  in nuclear magnetons)

  Atom         1           2           3           4           5           6           7           8           9          10
 IAtWgt=          12          12          12          12          12          12          12          12          12          12
 AtmWgt=  12.0000000  12.0000000  12.0000000  12.0000000  12.0000000  12.0000000  12.0000000  12.0000000  12.0000000  12.0000000
 NucSpn=           0           0           0           0           0           0           0           0           0           0
 AtZEff=  -0.0000000  -0.0000000  -0.0000000  -0.0000000  -0.0000000  -0.0000000  -0.0000000  -0.0000000  -0.0000000  -0.0000000
 NQMom=    0.0000000   0.0000000   0.0000000   0.0000000   0.0000000   0.0000000   0.0000000   0.0000000   0.0000000   0.0000000
 NMagM=    0.0000000   0.0000000   0.0000000   0.0000000   0.0000000   0.0000000   0.0000000   0.0000000   0.0000000   0.0000000
 AtZNuc=   6.0000000   6.0000000   6.0000000   6.0000000   6.0000000   6.0000000   6.0000000   6.0000000   6.0000000   6.0000000

  Atom        11          12          13          14          15          16          17          18          19          20
 IAtWgt=          12          12          12          12          12          12          12          12          12          12
 AtmWgt=  12.0000000  12.0000000  12.0000000  12.0000000  12.0000000  12.0000000  12.0000000  12.0000000  12.0000000  12.0000000
 NucSpn=           0           0           0           0           0           0           0           0           0           0
 AtZEff=  -0.0000000  -0.0000000  -0.0000000  -0.0000000  -0.0000000  -0.0000000  -0.0000000  -0.0000000  -0.0000000  -0.0000000
 NQMom=    0.0000000   0.0000000   0.0000000   0.0000000   0.0000000   0.0000000   0.0000000   0.0000000   0.0000000   0.0000000
 NMagM=    0.0000000   0.0000000   0.0000000   0.0000000   0.0000000   0.0000000   0.0000000   0.0000000   0.0000000   0.0000000
 AtZNuc=   6.0000000   6.0000000   6.0000000   6.0000000   6.0000000   6.0000000   6.0000000   6.0000000   6.0000000   6.0000000

  Atom        21          22          23          24          25          26          27          28          29          30
 IAtWgt=          12          12          12          12          12          12          12          12          12          12
 AtmWgt=  12.0000000  12.0000000  12.0000000  12.0000000  12.0000000  12.0000000  12.0000000  12.0000000  12.0000000  12.0000000
 NucSpn=           0           0           0           0           0           0           0           0           0           0
 AtZEff=  -0.0000000  -0.0000000  -0.0000000  -0.0000000  -0.0000000  -0.0000000  -0.0000000  -0.0000000  -0.0000000  -0.0000000
 NQMom=    0.0000000   0.0000000   0.0000000   0.0000000   0.0000000   0.0000000   0.0000000   0.0000000   0.0000000   0.0000000
 NMagM=    0.0000000   0.0000000   0.0000000   0.0000000   0.0000000   0.0000000   0.0000000   0.0000000   0.0000000   0.0000000
 AtZNuc=   6.0000000   6.0000000   6.0000000   6.0000000   6.0000000   6.0000000   6.0000000   6.0000000   6.0000000   6.0000000

  Atom        31          32          33          34          35          36          37          38          39          40
 IAtWgt=          12          12          12          12          12          12          12          12          12          12
 AtmWgt=  12.0000000  12.0000000  12.0000000  12.0000000  12.0000000  12.0000000  12.0000000  12.0000000  12.0000000  12.0000000
 NucSpn=           0           0           0           0           0           0           0           0           0           0
 AtZEff=  -0.0000000  -0.0000000  -0.0000000  -0.0000000  -0.0000000  -0.0000000  -0.0000000  -0.0000000  -0.0000000  -0.0000000
 NQMom=    0.0000000   0.0000000   0.0000000   0.0000000   0.0000000   0.0000000   0.0000000   0.0000000   0.0000000   0.0000000
 NMagM=    0.0000000   0.0000000   0.0000000   0.0000000   0.0000000   0.0000000   0.0000000   0.0000000   0.0000000   0.0000000
 AtZNuc=   6.0000000   6.0000000   6.0000000   6.0000000   6.0000000   6.0000000   6.0000000   6.0000000   6.0000000   6.0000000

  Atom        41          42          43          44          45          46          47          48          49          50
 IAtWgt=          12          12          12          12          12          12          12          12          12          12
 AtmWgt=  12.0000000  12.0000000  12.0000000  12.0000000  12.0000000  12.0000000  12.0000000  12.0000000  12.0000000  12.0000000
 NucSpn=           0           0           0           0           0           0           0           0           0           0
 AtZEff=  -0.0000000  -0.0000000  -0.0000000  -0.0000000  -0.0000000  -0.0000000  -0.0000000  -0.0000000  -0.0000000  -0.0000000
 NQMom=    0.0000000   0.0000000   0.0000000   0.0000000   0.0000000   0.0000000   0.0000000   0.0000000   0.0000000   0.0000000
 NMagM=    0.0000000   0.0000000   0.0000000   0.0000000   0.0000000   0.0000000   0.0000000   0.0000000   0.0000000   0.0000000
 AtZNuc=   6.0000000   6.0000000   6.0000000   6.0000000   6.0000000   6.0000000   6.0000000   6.0000000   6.0000000   6.0000000

  Atom        51          52          53          54          55          56          57          58          59          60
 IAtWgt=          12          12          12          12          12          12          12          12          12          12
 AtmWgt=  12.0000000  12.0000000  12.0000000  12.0000000  12.0000000  12.0000000  12.0000000  12.0000000  12.0000000  12.0000000
 NucSpn=           0           0           0           0           0           0           0           0           0           0
 AtZEff=  -0.0000000  -0.0000000  -0.0000000  -0.0000000  -0.0000000  -0.0000000  -0.0000000  -0.0000000  -0.0000000  -0.0000000
 NQMom=    0.0000000   0.0000000   0.0000000   0.0000000   0.0000000   0.0000000   0.0000000   0.0000000   0.0000000   0.0000000
 NMagM=    0.0000000   0.0000000   0.0000000   0.0000000   0.0000000   0.0000000   0.0000000   0.0000000   0.0000000   0.0000000
 AtZNuc=   6.0000000   6.0000000   6.0000000   6.0000000   6.0000000   6.0000000   6.0000000   6.0000000   6.0000000   6.0000000

  Atom        61          62          63          64          65          66          67          68          69          70
 IAtWgt=          12          12          12          12          12          12           1           1           1           1
 AtmWgt=  12.0000000  12.0000000  12.0000000  12.0000000  12.0000000  12.0000000   1.0078250   1.0078250   1.0078250   1.0078250
 NucSpn=           0           0           0           0           0           0           1           1           1           1
 AtZEff=  -0.0000000  -0.0000000  -0.0000000  -0.0000000  -0.0000000  -0.0000000  -0.0000000  -0.0000000  -0.0000000  -0.0000000
 NQMom=    0.0000000   0.0000000   0.0000000   0.0000000   0.0000000   0.0000000   0.0000000   0.0000000   0.0000000   0.0000000
 NMagM=    0.0000000   0.0000000   0.0000000   0.0000000   0.0000000   0.0000000   2.7928460   2.7928460   2.7928460   2.7928460
 AtZNuc=   6.0000000   6.0000000   6.0000000   6.0000000   6.0000000   6.0000000   1.0000000   1.0000000   1.0000000   1.0000000

  Atom        71          72          73          74
 IAtWgt=           1           1           1           1
 AtmWgt=   1.0078250   1.0078250   1.0078250   1.0078250
 NucSpn=           1           1           1           1
 AtZEff=  -0.0000000  -0.0000000  -0.0000000  -0.0000000
 NQMom=    0.0000000   0.0000000   0.0000000   0.0000000
 NMagM=    2.7928460   2.7928460   2.7928460   2.7928460
 AtZNuc=   1.0000000   1.0000000   1.0000000   1.0000000
 Leave Link  101 at Wed Jul 20 04:21:54 2022, MaxMem=  1342177280 cpu:              27.8 elap:               0.6
 (Enter /home/mkliu/g16/l103.exe)

 GradGradGradGradGradGradGradGradGradGradGradGradGradGradGradGradGradGrad
 Berny optimization.
 Initialization pass.
                           ----------------------------
                           !    Initial Parameters    !
                           ! (Angstroms and Degrees)  !
 --------------------------                            --------------------------
 ! Name  Definition              Value          Derivative Info.                !
 --------------------------------------------------------------------------------
 ! R1    R(1,2)                  1.3861         estimate D2E/DX2                !
 ! R2    R(1,41)                 1.4402         estimate D2E/DX2                !
 ! R3    R(1,65)                 1.4408         estimate D2E/DX2                !
 ! R4    R(2,3)                  1.4419         estimate D2E/DX2                !
 ! R5    R(2,8)                  1.4421         estimate D2E/DX2                !
 ! R6    R(3,4)                  1.3892         estimate D2E/DX2                !
 ! R7    R(3,5)                  1.4264         estimate D2E/DX2                !
 ! R8    R(4,26)                 1.4478         estimate D2E/DX2                !
 ! R9    R(4,39)                 1.4328         estimate D2E/DX2                !
 ! R10   R(5,6)                  1.4424         estimate D2E/DX2                !
 ! R11   R(5,13)                 1.3887         estimate D2E/DX2                !
 ! R12   R(6,8)                  1.4413         estimate D2E/DX2                !
 ! R13   R(6,9)                  1.3882         estimate D2E/DX2                !
 ! R14   R(7,10)                 1.5725         estimate D2E/DX2                !
 ! R15   R(7,23)                 1.5045         estimate D2E/DX2                !
 ! R16   R(7,28)                 1.5174         estimate D2E/DX2                !
 ! R17   R(7,67)                 1.0952         estimate D2E/DX2                !
 ! R18   R(8,63)                 1.3921         estimate D2E/DX2                !
 ! R19   R(9,11)                 1.4377         estimate D2E/DX2                !
 ! R20   R(9,61)                 1.4421         estimate D2E/DX2                !
 ! R21   R(10,21)                1.5478         estimate D2E/DX2                !
 ! R22   R(10,30)                1.4902         estimate D2E/DX2                !
 ! R23   R(10,68)                1.0928         estimate D2E/DX2                !
 ! R24   R(11,12)                1.3891         estimate D2E/DX2                !
 ! R25   R(11,59)                1.4441         estimate D2E/DX2                !
 ! R26   R(12,13)                1.4307         estimate D2E/DX2                !
 ! R27   R(12,15)                1.4306         estimate D2E/DX2                !
 ! R28   R(13,25)                1.4512         estimate D2E/DX2                !
 ! R29   R(14,16)                1.366          estimate D2E/DX2                !
 ! R30   R(14,45)                1.5235         estimate D2E/DX2                !
 ! R31   R(14,55)                1.4223         estimate D2E/DX2                !
 ! R32   R(15,24)                1.429          estimate D2E/DX2                !
 ! R33   R(15,57)                1.3903         estimate D2E/DX2                !
 ! R34   R(16,17)                1.5087         estimate D2E/DX2                !
 ! R35   R(16,58)                1.4311         estimate D2E/DX2                !
 ! R36   R(17,48)                1.4912         estimate D2E/DX2                !
 ! R37   R(17,56)                1.5088         estimate D2E/DX2                !
 ! R38   R(17,73)                1.095          estimate D2E/DX2                !
 ! R39   R(18,19)                1.4767         estimate D2E/DX2                !
 ! R40   R(18,40)                1.3761         estimate D2E/DX2                !
 ! R41   R(18,47)                1.4466         estimate D2E/DX2                !
 ! R42   R(19,20)                1.3791         estimate D2E/DX2                !
 ! R43   R(19,51)                1.4482         estimate D2E/DX2                !
 ! R44   R(20,45)                1.5342         estimate D2E/DX2                !
 ! R45   R(20,54)                1.4364         estimate D2E/DX2                !
 ! R46   R(21,22)                1.4998         estimate D2E/DX2                !
 ! R47   R(21,50)                1.5754         estimate D2E/DX2                !
 ! R48   R(21,69)                1.0956         estimate D2E/DX2                !
 ! R49   R(22,23)                1.4095         estimate D2E/DX2                !
 ! R50   R(22,56)                1.3688         estimate D2E/DX2                !
 ! R51   R(23,24)                1.3871         estimate D2E/DX2                !
 ! R52   R(24,25)                1.4682         estimate D2E/DX2                !
 ! R53   R(25,26)                1.3854         estimate D2E/DX2                !
 ! R54   R(26,27)                1.4722         estimate D2E/DX2                !
 ! R55   R(27,28)                1.3796         estimate D2E/DX2                !
 ! R56   R(27,38)                1.448          estimate D2E/DX2                !
 ! R57   R(28,29)                1.4262         estimate D2E/DX2                !
 ! R58   R(29,30)                1.4244         estimate D2E/DX2                !
 ! R59   R(29,35)                1.3866         estimate D2E/DX2                !
 ! R60   R(30,31)                1.3592         estimate D2E/DX2                !
 ! R61   R(31,32)                1.4242         estimate D2E/DX2                !
 ! R62   R(31,33)                1.491          estimate D2E/DX2                !
 ! R63   R(32,34)                1.3867         estimate D2E/DX2                !
 ! R64   R(32,40)                1.4261         estimate D2E/DX2                !
 ! R65   R(33,37)                1.57           estimate D2E/DX2                !
 ! R66   R(33,50)                1.5458         estimate D2E/DX2                !
 ! R67   R(33,71)                1.0926         estimate D2E/DX2                !
 ! R68   R(34,35)                1.4298         estimate D2E/DX2                !
 ! R69   R(34,44)                1.4223         estimate D2E/DX2                !
 ! R70   R(35,36)                1.422          estimate D2E/DX2                !
 ! R71   R(36,38)                1.3889         estimate D2E/DX2                !
 ! R72   R(36,43)                1.4426         estimate D2E/DX2                !
 ! R73   R(37,40)                1.5118         estimate D2E/DX2                !
 ! R74   R(37,46)                1.5093         estimate D2E/DX2                !
 ! R75   R(37,72)                1.0959         estimate D2E/DX2                !
 ! R76   R(38,39)                1.4303         estimate D2E/DX2                !
 ! R77   R(39,41)                1.3919         estimate D2E/DX2                !
 ! R78   R(41,42)                1.4397         estimate D2E/DX2                !
 ! R79   R(42,43)                1.3833         estimate D2E/DX2                !
 ! R80   R(42,66)                1.4397         estimate D2E/DX2                !
 ! R81   R(43,44)                1.4426         estimate D2E/DX2                !
 ! R82   R(44,47)                1.3898         estimate D2E/DX2                !
 ! R83   R(45,46)                1.5079         estimate D2E/DX2                !
 ! R84   R(45,74)                1.1            estimate D2E/DX2                !
 ! R85   R(46,48)                1.3307         estimate D2E/DX2                !
 ! R86   R(47,49)                1.4291         estimate D2E/DX2                !
 ! R87   R(48,50)                1.5076         estimate D2E/DX2                !
 ! R88   R(49,51)                1.4316         estimate D2E/DX2                !
 ! R89   R(49,66)                1.3923         estimate D2E/DX2                !
 ! R90   R(50,70)                1.0963         estimate D2E/DX2                !
 ! R91   R(51,52)                1.3878         estimate D2E/DX2                !
 ! R92   R(52,53)                1.4223         estimate D2E/DX2                !
 ! R93   R(52,64)                1.4409         estimate D2E/DX2                !
 ! R94   R(53,54)                1.3901         estimate D2E/DX2                !
 ! R95   R(53,62)                1.4418         estimate D2E/DX2                !
 ! R96   R(54,55)                1.4321         estimate D2E/DX2                !
 ! R97   R(55,60)                1.3965         estimate D2E/DX2                !
 ! R98   R(56,57)                1.4036         estimate D2E/DX2                !
 ! R99   R(57,58)                1.4382         estimate D2E/DX2                !
 ! R100  R(58,59)                1.3854         estimate D2E/DX2                !
 ! R101  R(59,60)                1.4284         estimate D2E/DX2                !
 ! R102  R(60,61)                1.439          estimate D2E/DX2                !
 ! R103  R(61,62)                1.3847         estimate D2E/DX2                !
 ! R104  R(62,63)                1.44           estimate D2E/DX2                !
 ! R105  R(63,64)                1.4427         estimate D2E/DX2                !
 ! R106  R(64,65)                1.3857         estimate D2E/DX2                !
 ! R107  R(65,66)                1.4395         estimate D2E/DX2                !
 ! A1    A(2,1,41)             119.9089         estimate D2E/DX2                !
 ! A2    A(2,1,65)             119.8215         estimate D2E/DX2                !
 ! A3    A(41,1,65)            107.8526         estimate D2E/DX2                !
 ! A4    A(1,2,3)              119.7125         estimate D2E/DX2                !
 ! A5    A(1,2,8)              120.4405         estimate D2E/DX2                !
 ! A6    A(3,2,8)              107.6179         estimate D2E/DX2                !
 ! A7    A(2,3,4)              120.5815         estimate D2E/DX2                !
 ! A8    A(2,3,5)              108.2509         estimate D2E/DX2                !
 ! A9    A(4,3,5)              119.026          estimate D2E/DX2                !
 ! A10   A(3,4,26)             122.6421         estimate D2E/DX2                !
 ! A11   A(3,4,39)             118.9223         estimate D2E/DX2                !
 ! A12   A(26,4,39)            108.9181         estimate D2E/DX2                !
 ! A13   A(3,5,6)              108.4247         estimate D2E/DX2                !
 ! A14   A(3,5,13)             118.7224         estimate D2E/DX2                !
 ! A15   A(6,5,13)             120.438          estimate D2E/DX2                !
 ! A16   A(5,6,8)              107.5143         estimate D2E/DX2                !
 ! A17   A(5,6,9)              119.8465         estimate D2E/DX2                !
 ! A18   A(8,6,9)              120.3198         estimate D2E/DX2                !
 ! A19   A(10,7,23)            104.154          estimate D2E/DX2                !
 ! A20   A(10,7,28)            105.6987         estimate D2E/DX2                !
 ! A21   A(10,7,67)            112.3221         estimate D2E/DX2                !
 ! A22   A(23,7,28)            112.9131         estimate D2E/DX2                !
 ! A23   A(23,7,67)            110.7037         estimate D2E/DX2                !
 ! A24   A(28,7,67)            110.8049         estimate D2E/DX2                !
 ! A25   A(2,8,6)              108.0793         estimate D2E/DX2                !
 ! A26   A(2,8,63)             119.6281         estimate D2E/DX2                !
 ! A27   A(6,8,63)             119.6744         estimate D2E/DX2                !
 ! A28   A(6,9,11)             119.8641         estimate D2E/DX2                !
 ! A29   A(6,9,61)             119.8528         estimate D2E/DX2                !
 ! A30   A(11,9,61)            107.6336         estimate D2E/DX2                !
 ! A31   A(7,10,21)            108.558          estimate D2E/DX2                !
 ! A32   A(7,10,30)            102.991          estimate D2E/DX2                !
 ! A33   A(7,10,68)            111.2052         estimate D2E/DX2                !
 ! A34   A(21,10,30)           112.2713         estimate D2E/DX2                !
 ! A35   A(21,10,68)           110.5816         estimate D2E/DX2                !
 ! A36   A(30,10,68)           110.9918         estimate D2E/DX2                !
 ! A37   A(9,11,12)            119.3369         estimate D2E/DX2                !
 ! A38   A(9,11,59)            107.9981         estimate D2E/DX2                !
 ! A39   A(12,11,59)           119.2353         estimate D2E/DX2                !
 ! A40   A(11,12,13)           121.3203         estimate D2E/DX2                !
 ! A41   A(11,12,15)           120.2884         estimate D2E/DX2                !
 ! A42   A(13,12,15)           107.1198         estimate D2E/DX2                !
 ! A43   A(5,13,12)            118.7103         estimate D2E/DX2                !
 ! A44   A(5,13,25)            122.5138         estimate D2E/DX2                !
 ! A45   A(12,13,25)           109.0082         estimate D2E/DX2                !
 ! A46   A(16,14,45)           124.61           estimate D2E/DX2                !
 ! A47   A(16,14,55)           119.3685         estimate D2E/DX2                !
 ! A48   A(45,14,55)           109.8213         estimate D2E/DX2                !
 ! A49   A(12,15,24)           110.1567         estimate D2E/DX2                !
 ! A50   A(12,15,57)           119.7346         estimate D2E/DX2                !
 ! A51   A(24,15,57)           120.9331         estimate D2E/DX2                !
 ! A52   A(14,16,17)           122.8471         estimate D2E/DX2                !
 ! A53   A(14,16,58)           118.6794         estimate D2E/DX2                !
 ! A54   A(17,16,58)           109.6455         estimate D2E/DX2                !
 ! A55   A(16,17,48)           109.5946         estimate D2E/DX2                !
 ! A56   A(16,17,56)           100.6813         estimate D2E/DX2                !
 ! A57   A(16,17,73)           113.79           estimate D2E/DX2                !
 ! A58   A(48,17,56)           105.1693         estimate D2E/DX2                !
 ! A59   A(48,17,73)           112.0409         estimate D2E/DX2                !
 ! A60   A(56,17,73)           114.6889         estimate D2E/DX2                !
 ! A61   A(19,18,40)           128.5512         estimate D2E/DX2                !
 ! A62   A(19,18,47)           106.7687         estimate D2E/DX2                !
 ! A63   A(40,18,47)           118.6733         estimate D2E/DX2                !
 ! A64   A(18,19,20)           128.5438         estimate D2E/DX2                !
 ! A65   A(18,19,51)           106.5704         estimate D2E/DX2                !
 ! A66   A(20,19,51)           118.2891         estimate D2E/DX2                !
 ! A67   A(19,20,45)           130.7359         estimate D2E/DX2                !
 ! A68   A(19,20,54)           118.597          estimate D2E/DX2                !
 ! A69   A(45,20,54)           107.8684         estimate D2E/DX2                !
 ! A70   A(10,21,22)           102.5913         estimate D2E/DX2                !
 ! A71   A(10,21,50)           119.5871         estimate D2E/DX2                !
 ! A72   A(10,21,69)           108.2056         estimate D2E/DX2                !
 ! A73   A(22,21,50)           111.0881         estimate D2E/DX2                !
 ! A74   A(22,21,69)           108.5161         estimate D2E/DX2                !
 ! A75   A(50,21,69)           106.4668         estimate D2E/DX2                !
 ! A76   A(21,22,23)           114.2131         estimate D2E/DX2                !
 ! A77   A(21,22,56)           122.3117         estimate D2E/DX2                !
 ! A78   A(23,22,56)           121.6992         estimate D2E/DX2                !
 ! A79   A(7,23,22)            109.7322         estimate D2E/DX2                !
 ! A80   A(7,23,24)            128.8974         estimate D2E/DX2                !
 ! A81   A(22,23,24)           119.9392         estimate D2E/DX2                !
 ! A82   A(15,24,23)           117.8061         estimate D2E/DX2                !
 ! A83   A(15,24,25)           106.7682         estimate D2E/DX2                !
 ! A84   A(23,24,25)           130.02           estimate D2E/DX2                !
 ! A85   A(13,25,24)           106.8653         estimate D2E/DX2                !
 ! A86   A(13,25,26)           118.6438         estimate D2E/DX2                !
 ! A87   A(24,25,26)           126.9228         estimate D2E/DX2                !
 ! A88   A(4,26,25)            118.315          estimate D2E/DX2                !
 ! A89   A(4,26,27)            107.2576         estimate D2E/DX2                !
 ! A90   A(25,26,27)           126.9618         estimate D2E/DX2                !
 ! A91   A(26,27,28)           129.1655         estimate D2E/DX2                !
 ! A92   A(26,27,38)           106.415          estimate D2E/DX2                !
 ! A93   A(28,27,38)           118.7906         estimate D2E/DX2                !
 ! A94   A(7,28,27)            130.6321         estimate D2E/DX2                !
 ! A95   A(7,28,29)            107.8728         estimate D2E/DX2                !
 ! A96   A(27,28,29)           118.3771         estimate D2E/DX2                !
 ! A97   A(28,29,30)           109.5673         estimate D2E/DX2                !
 ! A98   A(28,29,35)           122.304          estimate D2E/DX2                !
 ! A99   A(30,29,35)           120.1121         estimate D2E/DX2                !
 ! A100  A(10,30,29)           109.9379         estimate D2E/DX2                !
 ! A101  A(10,30,31)           125.3784         estimate D2E/DX2                !
 ! A102  A(29,30,31)           119.5236         estimate D2E/DX2                !
 ! A103  A(30,31,32)           119.5053         estimate D2E/DX2                !
 ! A104  A(30,31,33)           125.4767         estimate D2E/DX2                !
 ! A105  A(32,31,33)           109.807          estimate D2E/DX2                !
 ! A106  A(31,32,34)           120.2062         estimate D2E/DX2                !
 ! A107  A(31,32,40)           109.3645         estimate D2E/DX2                !
 ! A108  A(34,32,40)           122.0774         estimate D2E/DX2                !
 ! A109  A(31,33,37)           102.8839         estimate D2E/DX2                !
 ! A110  A(31,33,50)           112.5714         estimate D2E/DX2                !
 ! A111  A(31,33,71)           111.097          estimate D2E/DX2                !
 ! A112  A(37,33,50)           107.7415         estimate D2E/DX2                !
 ! A113  A(37,33,71)           111.4779         estimate D2E/DX2                !
 ! A114  A(50,33,71)           110.7844         estimate D2E/DX2                !
 ! A115  A(32,34,35)           118.6648         estimate D2E/DX2                !
 ! A116  A(32,34,44)           119.7864         estimate D2E/DX2                !
 ! A117  A(35,34,44)           108.1015         estimate D2E/DX2                !
 ! A118  A(29,35,34)           118.7845         estimate D2E/DX2                !
 ! A119  A(29,35,36)           119.7991         estimate D2E/DX2                !
 ! A120  A(34,35,36)           108.1648         estimate D2E/DX2                !
 ! A121  A(35,36,38)           117.8216         estimate D2E/DX2                !
 ! A122  A(35,36,43)           108.2967         estimate D2E/DX2                !
 ! A123  A(38,36,43)           119.7789         estimate D2E/DX2                !
 ! A124  A(33,37,40)           105.7205         estimate D2E/DX2                !
 ! A125  A(33,37,46)           103.376          estimate D2E/DX2                !
 ! A126  A(33,37,72)           112.5755         estimate D2E/DX2                !
 ! A127  A(40,37,46)           114.5146         estimate D2E/DX2                !
 ! A128  A(40,37,72)           110.3874         estimate D2E/DX2                !
 ! A129  A(46,37,72)           110.0693         estimate D2E/DX2                !
 ! A130  A(27,38,36)           122.1151         estimate D2E/DX2                !
 ! A131  A(27,38,39)           109.5661         estimate D2E/DX2                !
 ! A132  A(36,38,39)           119.2374         estimate D2E/DX2                !
 ! A133  A(4,39,38)            107.6921         estimate D2E/DX2                !
 ! A134  A(4,39,41)            120.7678         estimate D2E/DX2                !
 ! A135  A(38,39,41)           120.8044         estimate D2E/DX2                !
 ! A136  A(18,40,32)           118.7032         estimate D2E/DX2                !
 ! A137  A(18,40,37)           129.8621         estimate D2E/DX2                !
 ! A138  A(32,40,37)           108.0867         estimate D2E/DX2                !
 ! A139  A(1,41,39)            119.5936         estimate D2E/DX2                !
 ! A140  A(1,41,42)            108.0934         estimate D2E/DX2                !
 ! A141  A(39,41,42)           119.1612         estimate D2E/DX2                !
 ! A142  A(41,42,43)           120.0562         estimate D2E/DX2                !
 ! A143  A(41,42,66)           107.7105         estimate D2E/DX2                !
 ! A144  A(43,42,66)           119.968          estimate D2E/DX2                !
 ! A145  A(36,43,42)           119.907          estimate D2E/DX2                !
 ! A146  A(36,43,44)           106.7118         estimate D2E/DX2                !
 ! A147  A(42,43,44)           120.0968         estimate D2E/DX2                !
 ! A148  A(34,44,43)           108.3062         estimate D2E/DX2                !
 ! A149  A(34,44,47)           117.7982         estimate D2E/DX2                !
 ! A150  A(43,44,47)           119.6499         estimate D2E/DX2                !
 ! A151  A(14,45,20)           101.4691         estimate D2E/DX2                !
 ! A152  A(14,45,46)           108.7292         estimate D2E/DX2                !
 ! A153  A(14,45,74)           111.7511         estimate D2E/DX2                !
 ! A154  A(20,45,46)           117.6849         estimate D2E/DX2                !
 ! A155  A(20,45,74)           108.2478         estimate D2E/DX2                !
 ! A156  A(46,45,74)           108.83           estimate D2E/DX2                !
 ! A157  A(37,46,45)           124.9588         estimate D2E/DX2                !
 ! A158  A(37,46,48)           110.9469         estimate D2E/DX2                !
 ! A159  A(45,46,48)           123.9603         estimate D2E/DX2                !
 ! A160  A(18,47,44)           122.1437         estimate D2E/DX2                !
 ! A161  A(18,47,49)           109.4839         estimate D2E/DX2                !
 ! A162  A(44,47,49)           119.1717         estimate D2E/DX2                !
 ! A163  A(17,48,46)           125.9867         estimate D2E/DX2                !
 ! A164  A(17,48,50)           118.5828         estimate D2E/DX2                !
 ! A165  A(46,48,50)           115.3162         estimate D2E/DX2                !
 ! A166  A(47,49,51)           107.5941         estimate D2E/DX2                !
 ! A167  A(47,49,66)           121.0233         estimate D2E/DX2                !
 ! A168  A(51,49,66)           120.685          estimate D2E/DX2                !
 ! A169  A(21,50,33)           118.9298         estimate D2E/DX2                !
 ! A170  A(21,50,48)           112.7708         estimate D2E/DX2                !
 ! A171  A(21,50,70)           106.2479         estimate D2E/DX2                !
 ! A172  A(33,50,48)           101.9226         estimate D2E/DX2                !
 ! A173  A(33,50,70)           108.6073         estimate D2E/DX2                !
 ! A174  A(48,50,70)           107.9384         estimate D2E/DX2                !
 ! A175  A(19,51,49)           109.4053         estimate D2E/DX2                !
 ! A176  A(19,51,52)           122.7826         estimate D2E/DX2                !
 ! A177  A(49,51,52)           118.8418         estimate D2E/DX2                !
 ! A178  A(51,52,53)           118.6398         estimate D2E/DX2                !
 ! A179  A(51,52,64)           120.7291         estimate D2E/DX2                !
 ! A180  A(53,52,64)           108.396          estimate D2E/DX2                !
 ! A181  A(52,53,54)           118.6061         estimate D2E/DX2                !
 ! A182  A(52,53,62)           108.3857         estimate D2E/DX2                !
 ! A183  A(54,53,62)           120.8009         estimate D2E/DX2                !
 ! A184  A(20,54,53)           123.0138         estimate D2E/DX2                !
 ! A185  A(20,54,55)           109.4462         estimate D2E/DX2                !
 ! A186  A(53,54,55)           119.2096         estimate D2E/DX2                !
 ! A187  A(14,55,54)           108.6172         estimate D2E/DX2                !
 ! A188  A(14,55,60)           122.0125         estimate D2E/DX2                !
 ! A189  A(54,55,60)           119.8497         estimate D2E/DX2                !
 ! A190  A(17,56,22)           122.8787         estimate D2E/DX2                !
 ! A191  A(17,56,57)           110.0793         estimate D2E/DX2                !
 ! A192  A(22,56,57)           119.3333         estimate D2E/DX2                !
 ! A193  A(15,57,56)           119.5922         estimate D2E/DX2                !
 ! A194  A(15,57,58)           120.1883         estimate D2E/DX2                !
 ! A195  A(56,57,58)           109.4049         estimate D2E/DX2                !
 ! A196  A(16,58,57)           106.7273         estimate D2E/DX2                !
 ! A197  A(16,58,59)           121.857          estimate D2E/DX2                !
 ! A198  A(57,58,59)           119.2327         estimate D2E/DX2                !
 ! A199  A(11,59,58)           120.5802         estimate D2E/DX2                !
 ! A200  A(11,59,60)           107.9053         estimate D2E/DX2                !
 ! A201  A(58,59,60)           118.9502         estimate D2E/DX2                !
 ! A202  A(55,60,59)           118.0139         estimate D2E/DX2                !
 ! A203  A(55,60,61)           120.25           estimate D2E/DX2                !
 ! A204  A(59,60,61)           108.166          estimate D2E/DX2                !
 ! A205  A(9,61,60)            108.0094         estimate D2E/DX2                !
 ! A206  A(9,61,62)            119.6832         estimate D2E/DX2                !
 ! A207  A(60,61,62)           119.8279         estimate D2E/DX2                !
 ! A208  A(53,62,61)           119.4062         estimate D2E/DX2                !
 ! A209  A(53,62,63)           107.5696         estimate D2E/DX2                !
 ! A210  A(61,62,63)           120.562          estimate D2E/DX2                !
 ! A211  A(8,63,62)            119.691          estimate D2E/DX2                !
 ! A212  A(8,63,64)            119.6578         estimate D2E/DX2                !
 ! A213  A(62,63,64)           107.977          estimate D2E/DX2                !
 ! A214  A(52,64,63)           107.5308         estimate D2E/DX2                !
 ! A215  A(52,64,65)           119.6109         estimate D2E/DX2                !
 ! A216  A(63,64,65)           120.424          estimate D2E/DX2                !
 ! A217  A(1,65,64)            119.8075         estimate D2E/DX2                !
 ! A218  A(1,65,66)            107.9171         estimate D2E/DX2                !
 ! A219  A(64,65,66)           119.8618         estimate D2E/DX2                !
 ! A220  A(42,66,49)           119.0321         estimate D2E/DX2                !
 ! A221  A(42,66,65)           108.0854         estimate D2E/DX2                !
 ! A222  A(49,66,65)           119.6588         estimate D2E/DX2                !
 ! D1    D(41,1,2,3)            -3.6457         estimate D2E/DX2                !
 ! D2    D(41,1,2,8)          -141.3396         estimate D2E/DX2                !
 ! D3    D(65,1,2,3)           133.8628         estimate D2E/DX2                !
 ! D4    D(65,1,2,8)            -3.8312         estimate D2E/DX2                !
 ! D5    D(2,1,41,39)            4.7323         estimate D2E/DX2                !
 ! D6    D(2,1,41,42)          145.5441         estimate D2E/DX2                !
 ! D7    D(65,1,41,39)        -137.2664         estimate D2E/DX2                !
 ! D8    D(65,1,41,42)           3.5454         estimate D2E/DX2                !
 ! D9    D(2,1,65,64)            0.0147         estimate D2E/DX2                !
 ! D10   D(2,1,65,66)         -142.012          estimate D2E/DX2                !
 ! D11   D(41,1,65,64)         142.0526         estimate D2E/DX2                !
 ! D12   D(41,1,65,66)           0.0259         estimate D2E/DX2                !
 ! D13   D(1,2,3,4)             -2.5363         estimate D2E/DX2                !
 ! D14   D(1,2,3,5)           -144.5663         estimate D2E/DX2                !
 ! D15   D(8,2,3,4)            139.9561         estimate D2E/DX2                !
 ! D16   D(8,2,3,5)             -2.0739         estimate D2E/DX2                !
 ! D17   D(1,2,8,6)            145.4909         estimate D2E/DX2                !
 ! D18   D(1,2,8,63)             3.7909         estimate D2E/DX2                !
 ! D19   D(3,2,8,6)              3.3241         estimate D2E/DX2                !
 ! D20   D(3,2,8,63)          -138.376          estimate D2E/DX2                !
 ! D21   D(2,3,4,26)          -135.0614         estimate D2E/DX2                !
 ! D22   D(2,3,4,39)             7.4835         estimate D2E/DX2                !
 ! D23   D(5,3,4,26)             3.0082         estimate D2E/DX2                !
 ! D24   D(5,3,4,39)           145.5531         estimate D2E/DX2                !
 ! D25   D(2,3,5,6)              0.0318         estimate D2E/DX2                !
 ! D26   D(2,3,5,13)           142.3531         estimate D2E/DX2                !
 ! D27   D(4,3,5,6)           -142.6851         estimate D2E/DX2                !
 ! D28   D(4,3,5,13)            -0.3637         estimate D2E/DX2                !
 ! D29   D(3,4,26,25)           -2.2949         estimate D2E/DX2                !
 ! D30   D(3,4,26,27)          149.6594         estimate D2E/DX2                !
 ! D31   D(39,4,26,25)        -148.0533         estimate D2E/DX2                !
 ! D32   D(39,4,26,27)           3.9011         estimate D2E/DX2                !
 ! D33   D(3,4,39,38)         -151.0218         estimate D2E/DX2                !
 ! D34   D(3,4,39,41)           -6.3851         estimate D2E/DX2                !
 ! D35   D(26,4,39,38)          -3.7958         estimate D2E/DX2                !
 ! D36   D(26,4,39,41)         140.8408         estimate D2E/DX2                !
 ! D37   D(3,5,6,8)              2.0228         estimate D2E/DX2                !
 ! D38   D(3,5,6,9)            144.3382         estimate D2E/DX2                !
 ! D39   D(13,5,6,8)          -139.5361         estimate D2E/DX2                !
 ! D40   D(13,5,6,9)             2.7794         estimate D2E/DX2                !
 ! D41   D(3,5,13,12)         -145.0871         estimate D2E/DX2                !
 ! D42   D(3,5,13,25)           -2.9481         estimate D2E/DX2                !
 ! D43   D(6,5,13,12)           -7.3551         estimate D2E/DX2                !
 ! D44   D(6,5,13,25)          134.784          estimate D2E/DX2                !
 ! D45   D(5,6,8,2)             -3.3004         estimate D2E/DX2                !
 ! D46   D(5,6,8,63)           138.3789         estimate D2E/DX2                !
 ! D47   D(9,6,8,2)           -145.4032         estimate D2E/DX2                !
 ! D48   D(9,6,8,63)            -3.724          estimate D2E/DX2                !
 ! D49   D(5,6,9,11)             3.3177         estimate D2E/DX2                !
 ! D50   D(5,6,9,61)          -133.7622         estimate D2E/DX2                !
 ! D51   D(8,6,9,11)           140.8366         estimate D2E/DX2                !
 ! D52   D(8,6,9,61)             3.7566         estimate D2E/DX2                !
 ! D53   D(23,7,10,21)          -8.7955         estimate D2E/DX2                !
 ! D54   D(23,7,10,30)         110.3962         estimate D2E/DX2                !
 ! D55   D(23,7,10,68)        -130.6665         estimate D2E/DX2                !
 ! D56   D(28,7,10,21)        -128.0022         estimate D2E/DX2                !
 ! D57   D(28,7,10,30)          -8.8105         estimate D2E/DX2                !
 ! D58   D(28,7,10,68)         110.1268         estimate D2E/DX2                !
 ! D59   D(67,7,10,21)         111.0513         estimate D2E/DX2                !
 ! D60   D(67,7,10,30)        -129.757          estimate D2E/DX2                !
 ! D61   D(67,7,10,68)         -10.8196         estimate D2E/DX2                !
 ! D62   D(10,7,23,22)           6.3986         estimate D2E/DX2                !
 ! D63   D(10,7,23,24)        -159.6898         estimate D2E/DX2                !
 ! D64   D(28,7,23,22)         120.5752         estimate D2E/DX2                !
 ! D65   D(28,7,23,24)         -45.5133         estimate D2E/DX2                !
 ! D66   D(67,7,23,22)        -114.536          estimate D2E/DX2                !
 ! D67   D(67,7,23,24)          79.3756         estimate D2E/DX2                !
 ! D68   D(10,7,28,27)         156.2005         estimate D2E/DX2                !
 ! D69   D(10,7,28,29)          -2.9818         estimate D2E/DX2                !
 ! D70   D(23,7,28,27)          42.9617         estimate D2E/DX2                !
 ! D71   D(23,7,28,29)        -116.2206         estimate D2E/DX2                !
 ! D72   D(67,7,28,27)         -81.8721         estimate D2E/DX2                !
 ! D73   D(67,7,28,29)         118.9456         estimate D2E/DX2                !
 ! D74   D(2,8,63,62)          137.2312         estimate D2E/DX2                !
 ! D75   D(2,8,63,64)            0.0497         estimate D2E/DX2                !
 ! D76   D(6,8,63,62)           -0.0726         estimate D2E/DX2                !
 ! D77   D(6,8,63,64)         -137.2541         estimate D2E/DX2                !
 ! D78   D(6,9,11,12)           -4.6501         estimate D2E/DX2                !
 ! D79   D(6,9,11,59)         -145.1536         estimate D2E/DX2                !
 ! D80   D(61,9,11,12)         137.0531         estimate D2E/DX2                !
 ! D81   D(61,9,11,59)          -3.4504         estimate D2E/DX2                !
 ! D82   D(6,9,61,60)          141.9588         estimate D2E/DX2                !
 ! D83   D(6,9,61,62)            0.0223         estimate D2E/DX2                !
 ! D84   D(11,9,61,60)           0.2505         estimate D2E/DX2                !
 ! D85   D(11,9,61,62)        -141.6861         estimate D2E/DX2                !
 ! D86   D(7,10,21,22)           7.7271         estimate D2E/DX2                !
 ! D87   D(7,10,21,50)         131.1471         estimate D2E/DX2                !
 ! D88   D(7,10,21,69)        -106.8557         estimate D2E/DX2                !
 ! D89   D(30,10,21,22)       -105.4602         estimate D2E/DX2                !
 ! D90   D(30,10,21,50)         17.9599         estimate D2E/DX2                !
 ! D91   D(30,10,21,69)        139.957          estimate D2E/DX2                !
 ! D92   D(68,10,21,22)        129.9781         estimate D2E/DX2                !
 ! D93   D(68,10,21,50)       -106.6018         estimate D2E/DX2                !
 ! D94   D(68,10,21,69)         15.3953         estimate D2E/DX2                !
 ! D95   D(7,10,30,29)          18.0203         estimate D2E/DX2                !
 ! D96   D(7,10,30,31)        -136.2036         estimate D2E/DX2                !
 ! D97   D(21,10,30,29)        134.5998         estimate D2E/DX2                !
 ! D98   D(21,10,30,31)        -19.6241         estimate D2E/DX2                !
 ! D99   D(68,10,30,29)       -101.0655         estimate D2E/DX2                !
 ! D100  D(68,10,30,31)        104.7106         estimate D2E/DX2                !
 ! D101  D(9,11,12,13)          -0.0396         estimate D2E/DX2                !
 ! D102  D(9,11,12,15)        -139.0184         estimate D2E/DX2                !
 ! D103  D(59,11,12,13)        136.0758         estimate D2E/DX2                !
 ! D104  D(59,11,12,15)         -2.903          estimate D2E/DX2                !
 ! D105  D(9,11,59,58)         146.7951         estimate D2E/DX2                !
 ! D106  D(9,11,59,60)           5.3702         estimate D2E/DX2                !
 ! D107  D(12,11,59,58)          6.2446         estimate D2E/DX2                !
 ! D108  D(12,11,59,60)       -135.1803         estimate D2E/DX2                !
 ! D109  D(11,12,13,5)           6.0323         estimate D2E/DX2                !
 ! D110  D(11,12,13,25)       -140.779          estimate D2E/DX2                !
 ! D111  D(15,12,13,5)         149.6605         estimate D2E/DX2                !
 ! D112  D(15,12,13,25)          2.8492         estimate D2E/DX2                !
 ! D113  D(11,12,15,24)        142.2776         estimate D2E/DX2                !
 ! D114  D(11,12,15,57)         -4.8911         estimate D2E/DX2                !
 ! D115  D(13,12,15,24)         -1.8001         estimate D2E/DX2                !
 ! D116  D(13,12,15,57)       -148.9687         estimate D2E/DX2                !
 ! D117  D(5,13,25,24)        -148.1063         estimate D2E/DX2                !
 ! D118  D(5,13,25,26)           3.6407         estimate D2E/DX2                !
 ! D119  D(12,13,25,24)         -2.8104         estimate D2E/DX2                !
 ! D120  D(12,13,25,26)        148.9366         estimate D2E/DX2                !
 ! D121  D(45,14,16,17)         -4.3409         estimate D2E/DX2                !
 ! D122  D(45,14,16,58)        139.6871         estimate D2E/DX2                !
 ! D123  D(55,14,16,17)       -153.7824         estimate D2E/DX2                !
 ! D124  D(55,14,16,58)         -9.7544         estimate D2E/DX2                !
 ! D125  D(16,14,45,20)       -138.0838         estimate D2E/DX2                !
 ! D126  D(16,14,45,46)        -13.3774         estimate D2E/DX2                !
 ! D127  D(16,14,45,74)        106.7688         estimate D2E/DX2                !
 ! D128  D(55,14,45,20)         13.8182         estimate D2E/DX2                !
 ! D129  D(55,14,45,46)        138.5246         estimate D2E/DX2                !
 ! D130  D(55,14,45,74)       -101.3292         estimate D2E/DX2                !
 ! D131  D(16,14,55,54)        147.4239         estimate D2E/DX2                !
 ! D132  D(16,14,55,60)          1.3251         estimate D2E/DX2                !
 ! D133  D(45,14,55,54)         -6.1656         estimate D2E/DX2                !
 ! D134  D(45,14,55,60)       -152.2645         estimate D2E/DX2                !
 ! D135  D(12,15,24,23)       -156.596          estimate D2E/DX2                !
 ! D136  D(12,15,24,25)          0.0668         estimate D2E/DX2                !
 ! D137  D(57,15,24,23)         -9.8838         estimate D2E/DX2                !
 ! D138  D(57,15,24,25)        146.7791         estimate D2E/DX2                !
 ! D139  D(12,15,57,56)        150.0055         estimate D2E/DX2                !
 ! D140  D(12,15,57,58)          9.4358         estimate D2E/DX2                !
 ! D141  D(24,15,57,56)          6.401          estimate D2E/DX2                !
 ! D142  D(24,15,57,58)       -134.1687         estimate D2E/DX2                !
 ! D143  D(14,16,17,48)         17.6419         estimate D2E/DX2                !
 ! D144  D(14,16,17,56)        128.1169         estimate D2E/DX2                !
 ! D145  D(14,16,17,73)       -108.6754         estimate D2E/DX2                !
 ! D146  D(58,16,17,48)       -129.1844         estimate D2E/DX2                !
 ! D147  D(58,16,17,56)        -18.7094         estimate D2E/DX2                !
 ! D148  D(58,16,17,73)        104.4983         estimate D2E/DX2                !
 ! D149  D(14,16,58,57)       -131.6784         estimate D2E/DX2                !
 ! D150  D(14,16,58,59)         10.2392         estimate D2E/DX2                !
 ! D151  D(17,16,58,57)         16.7222         estimate D2E/DX2                !
 ! D152  D(17,16,58,59)        158.6397         estimate D2E/DX2                !
 ! D153  D(16,17,48,46)        -13.591          estimate D2E/DX2                !
 ! D154  D(16,17,48,50)        162.3275         estimate D2E/DX2                !
 ! D155  D(56,17,48,46)       -121.0699         estimate D2E/DX2                !
 ! D156  D(56,17,48,50)         54.8485         estimate D2E/DX2                !
 ! D157  D(73,17,48,46)        113.7144         estimate D2E/DX2                !
 ! D158  D(73,17,48,50)        -70.3672         estimate D2E/DX2                !
 ! D159  D(16,17,56,22)       -134.7816         estimate D2E/DX2                !
 ! D160  D(16,17,56,57)         14.2399         estimate D2E/DX2                !
 ! D161  D(48,17,56,22)        -20.9072         estimate D2E/DX2                !
 ! D162  D(48,17,56,57)        128.1144         estimate D2E/DX2                !
 ! D163  D(73,17,56,22)        102.6364         estimate D2E/DX2                !
 ! D164  D(73,17,56,57)       -108.342          estimate D2E/DX2                !
 ! D165  D(40,18,19,20)          4.5296         estimate D2E/DX2                !
 ! D166  D(40,18,19,51)        154.9005         estimate D2E/DX2                !
 ! D167  D(47,18,19,20)       -147.2218         estimate D2E/DX2                !
 ! D168  D(47,18,19,51)          3.1491         estimate D2E/DX2                !
 ! D169  D(19,18,40,32)       -140.6046         estimate D2E/DX2                !
 ! D170  D(19,18,40,37)         16.079          estimate D2E/DX2                !
 ! D171  D(47,18,40,32)          8.2969         estimate D2E/DX2                !
 ! D172  D(47,18,40,37)        164.9804         estimate D2E/DX2                !
 ! D173  D(19,18,47,44)        145.5462         estimate D2E/DX2                !
 ! D174  D(19,18,47,49)         -0.8571         estimate D2E/DX2                !
 ! D175  D(40,18,47,44)         -9.5006         estimate D2E/DX2                !
 ! D176  D(40,18,47,49)       -155.9039         estimate D2E/DX2                !
 ! D177  D(18,19,20,45)        -12.2104         estimate D2E/DX2                !
 ! D178  D(18,19,20,54)        146.3335         estimate D2E/DX2                !
 ! D179  D(51,19,20,45)       -159.6547         estimate D2E/DX2                !
 ! D180  D(51,19,20,54)         -1.1107         estimate D2E/DX2                !
 ! D181  D(18,19,51,49)         -4.349          estimate D2E/DX2                !
 ! D182  D(18,19,51,52)       -150.9857         estimate D2E/DX2                !
 ! D183  D(20,19,51,49)        149.6034         estimate D2E/DX2                !
 ! D184  D(20,19,51,52)          2.9667         estimate D2E/DX2                !
 ! D185  D(19,20,45,14)        143.702          estimate D2E/DX2                !
 ! D186  D(19,20,45,46)         25.2484         estimate D2E/DX2                !
 ! D187  D(19,20,45,74)        -98.585          estimate D2E/DX2                !
 ! D188  D(54,20,45,14)        -16.5769         estimate D2E/DX2                !
 ! D189  D(54,20,45,46)       -135.0306         estimate D2E/DX2                !
 ! D190  D(54,20,45,74)        101.1361         estimate D2E/DX2                !
 ! D191  D(19,20,54,53)         -1.1601         estimate D2E/DX2                !
 ! D192  D(19,20,54,55)       -149.0018         estimate D2E/DX2                !
 ! D193  D(45,20,54,53)        161.9093         estimate D2E/DX2                !
 ! D194  D(45,20,54,55)         14.0675         estimate D2E/DX2                !
 ! D195  D(10,21,22,23)         -3.9245         estimate D2E/DX2                !
 ! D196  D(10,21,22,56)        161.1181         estimate D2E/DX2                !
 ! D197  D(50,21,22,23)       -132.854          estimate D2E/DX2                !
 ! D198  D(50,21,22,56)         32.1886         estimate D2E/DX2                !
 ! D199  D(69,21,22,23)        110.4318         estimate D2E/DX2                !
 ! D200  D(69,21,22,56)        -84.5256         estimate D2E/DX2                !
 ! D201  D(10,21,50,33)          0.4153         estimate D2E/DX2                !
 ! D202  D(10,21,50,48)       -118.7941         estimate D2E/DX2                !
 ! D203  D(10,21,50,70)        123.1548         estimate D2E/DX2                !
 ! D204  D(22,21,50,33)        119.6002         estimate D2E/DX2                !
 ! D205  D(22,21,50,48)          0.3907         estimate D2E/DX2                !
 ! D206  D(22,21,50,70)       -117.6603         estimate D2E/DX2                !
 ! D207  D(69,21,50,33)       -122.4364         estimate D2E/DX2                !
 ! D208  D(69,21,50,48)        118.3542         estimate D2E/DX2                !
 ! D209  D(69,21,50,70)          0.3031         estimate D2E/DX2                !
 ! D210  D(21,22,23,7)          -1.6635         estimate D2E/DX2                !
 ! D211  D(21,22,23,24)        165.8664         estimate D2E/DX2                !
 ! D212  D(56,22,23,7)        -166.808          estimate D2E/DX2                !
 ! D213  D(56,22,23,24)          0.7219         estimate D2E/DX2                !
 ! D214  D(21,22,56,17)        -22.013          estimate D2E/DX2                !
 ! D215  D(21,22,56,57)       -168.3347         estimate D2E/DX2                !
 ! D216  D(23,22,56,17)        141.9254         estimate D2E/DX2                !
 ! D217  D(23,22,56,57)         -4.3963         estimate D2E/DX2                !
 ! D218  D(7,23,24,15)         171.1363         estimate D2E/DX2                !
 ! D219  D(7,23,24,25)          20.8246         estimate D2E/DX2                !
 ! D220  D(22,23,24,15)          6.275          estimate D2E/DX2                !
 ! D221  D(22,23,24,25)       -144.0367         estimate D2E/DX2                !
 ! D222  D(15,24,25,13)          1.6658         estimate D2E/DX2                !
 ! D223  D(15,24,25,26)       -147.0254         estimate D2E/DX2                !
 ! D224  D(23,24,25,13)        154.4369         estimate D2E/DX2                !
 ! D225  D(23,24,25,26)          5.7457         estimate D2E/DX2                !
 ! D226  D(13,25,26,4)          -0.9823         estimate D2E/DX2                !
 ! D227  D(13,25,26,27)       -146.7925         estimate D2E/DX2                !
 ! D228  D(24,25,26,4)         144.5008         estimate D2E/DX2                !
 ! D229  D(24,25,26,27)         -1.3094         estimate D2E/DX2                !
 ! D230  D(4,26,27,28)        -155.0491         estimate D2E/DX2                !
 ! D231  D(4,26,27,38)          -2.4831         estimate D2E/DX2                !
 ! D232  D(25,26,27,28)         -6.2489         estimate D2E/DX2                !
 ! D233  D(25,26,27,38)        146.3171         estimate D2E/DX2                !
 ! D234  D(26,27,28,7)         -15.972          estimate D2E/DX2                !
 ! D235  D(26,27,28,29)        141.4191         estimate D2E/DX2                !
 ! D236  D(38,27,28,7)        -165.6881         estimate D2E/DX2                !
 ! D237  D(38,27,28,29)         -8.297          estimate D2E/DX2                !
 ! D238  D(26,27,38,36)       -146.4397         estimate D2E/DX2                !
 ! D239  D(26,27,38,39)          0.1861         estimate D2E/DX2                !
 ! D240  D(28,27,38,36)          9.5063         estimate D2E/DX2                !
 ! D241  D(28,27,38,39)        156.132          estimate D2E/DX2                !
 ! D242  D(7,28,29,30)          14.5784         estimate D2E/DX2                !
 ! D243  D(7,28,29,35)         163.3025         estimate D2E/DX2                !
 ! D244  D(27,28,29,30)       -147.5703         estimate D2E/DX2                !
 ! D245  D(27,28,29,35)          1.1538         estimate D2E/DX2                !
 ! D246  D(28,29,30,10)        -21.1744         estimate D2E/DX2                !
 ! D247  D(28,29,30,31)        134.7799         estimate D2E/DX2                !
 ! D248  D(35,29,30,10)       -170.6927         estimate D2E/DX2                !
 ! D249  D(35,29,30,31)        -14.7384         estimate D2E/DX2                !
 ! D250  D(28,29,35,34)       -131.0329         estimate D2E/DX2                !
 ! D251  D(28,29,35,36)          5.3973         estimate D2E/DX2                !
 ! D252  D(30,29,35,34)         14.5306         estimate D2E/DX2                !
 ! D253  D(30,29,35,36)        150.9608         estimate D2E/DX2                !
 ! D254  D(10,30,31,32)        152.1648         estimate D2E/DX2                !
 ! D255  D(10,30,31,33)          0.3522         estimate D2E/DX2                !
 ! D256  D(29,30,31,32)          0.1856         estimate D2E/DX2                !
 ! D257  D(29,30,31,33)       -151.627          estimate D2E/DX2                !
 ! D258  D(30,31,32,34)         14.4776         estimate D2E/DX2                !
 ! D259  D(30,31,32,40)       -134.3879         estimate D2E/DX2                !
 ! D260  D(33,31,32,34)        170.3448         estimate D2E/DX2                !
 ! D261  D(33,31,32,40)         21.4793         estimate D2E/DX2                !
 ! D262  D(30,31,33,37)        135.1573         estimate D2E/DX2                !
 ! D263  D(30,31,33,50)         19.4608         estimate D2E/DX2                !
 ! D264  D(30,31,33,71)       -105.4476         estimate D2E/DX2                !
 ! D265  D(32,31,33,37)        -18.9335         estimate D2E/DX2                !
 ! D266  D(32,31,33,50)       -134.6299         estimate D2E/DX2                !
 ! D267  D(32,31,33,71)        100.4617         estimate D2E/DX2                !
 ! D268  D(31,32,34,35)        -14.457          estimate D2E/DX2                !
 ! D269  D(31,32,34,44)       -150.5877         estimate D2E/DX2                !
 ! D270  D(40,32,34,35)        130.3952         estimate D2E/DX2                !
 ! D271  D(40,32,34,44)         -5.7355         estimate D2E/DX2                !
 ! D272  D(31,32,40,18)        147.191          estimate D2E/DX2                !
 ! D273  D(31,32,40,37)        -14.1696         estimate D2E/DX2                !
 ! D274  D(34,32,40,18)         -0.9822         estimate D2E/DX2                !
 ! D275  D(34,32,40,37)       -162.3427         estimate D2E/DX2                !
 ! D276  D(31,33,37,40)          9.9236         estimate D2E/DX2                !
 ! D277  D(31,33,37,46)       -110.7402         estimate D2E/DX2                !
 ! D278  D(31,33,37,72)        130.5183         estimate D2E/DX2                !
 ! D279  D(50,33,37,40)        129.0403         estimate D2E/DX2                !
 ! D280  D(50,33,37,46)          8.3764         estimate D2E/DX2                !
 ! D281  D(50,33,37,72)       -110.3651         estimate D2E/DX2                !
 ! D282  D(71,33,37,40)       -109.2067         estimate D2E/DX2                !
 ! D283  D(71,33,37,46)        130.1294         estimate D2E/DX2                !
 ! D284  D(71,33,37,72)         11.3879         estimate D2E/DX2                !
 ! D285  D(31,33,50,21)        -18.45           estimate D2E/DX2                !
 ! D286  D(31,33,50,48)        106.2084         estimate D2E/DX2                !
 ! D287  D(31,33,50,70)       -140.011          estimate D2E/DX2                !
 ! D288  D(37,33,50,21)       -131.1882         estimate D2E/DX2                !
 ! D289  D(37,33,50,48)         -6.5298         estimate D2E/DX2                !
 ! D290  D(37,33,50,70)        107.2508         estimate D2E/DX2                !
 ! D291  D(71,33,50,21)        106.6293         estimate D2E/DX2                !
 ! D292  D(71,33,50,48)       -128.7123         estimate D2E/DX2                !
 ! D293  D(71,33,50,70)        -14.9317         estimate D2E/DX2                !
 ! D294  D(32,34,35,29)          0.0011         estimate D2E/DX2                !
 ! D295  D(32,34,35,36)       -140.9877         estimate D2E/DX2                !
 ! D296  D(44,34,35,29)        140.746          estimate D2E/DX2                !
 ! D297  D(44,34,35,36)         -0.2428         estimate D2E/DX2                !
 ! D298  D(32,34,44,43)        144.4013         estimate D2E/DX2                !
 ! D299  D(32,34,44,47)          4.6305         estimate D2E/DX2                !
 ! D300  D(35,34,44,43)          4.1739         estimate D2E/DX2                !
 ! D301  D(35,34,44,47)       -135.5969         estimate D2E/DX2                !
 ! D302  D(29,35,36,38)         -4.3126         estimate D2E/DX2                !
 ! D303  D(29,35,36,43)       -144.3056         estimate D2E/DX2                !
 ! D304  D(34,35,36,38)        136.2113         estimate D2E/DX2                !
 ! D305  D(34,35,36,43)         -3.7817         estimate D2E/DX2                !
 ! D306  D(35,36,38,27)         -3.0141         estimate D2E/DX2                !
 ! D307  D(35,36,38,39)       -146.5716         estimate D2E/DX2                !
 ! D308  D(43,36,38,27)        132.2981         estimate D2E/DX2                !
 ! D309  D(43,36,38,39)        -11.2594         estimate D2E/DX2                !
 ! D310  D(35,36,43,42)        147.2259         estimate D2E/DX2                !
 ! D311  D(35,36,43,44)          6.2661         estimate D2E/DX2                !
 ! D312  D(38,36,43,42)          8.1509         estimate D2E/DX2                !
 ! D313  D(38,36,43,44)       -132.8089         estimate D2E/DX2                !
 ! D314  D(33,37,40,18)       -156.5498         estimate D2E/DX2                !
 ! D315  D(33,37,40,32)          2.0291         estimate D2E/DX2                !
 ! D316  D(46,37,40,18)        -43.4396         estimate D2E/DX2                !
 ! D317  D(46,37,40,32)        115.1394         estimate D2E/DX2                !
 ! D318  D(72,37,40,18)         81.4393         estimate D2E/DX2                !
 ! D319  D(72,37,40,32)       -119.9817         estimate D2E/DX2                !
 ! D320  D(33,37,46,45)        176.8312         estimate D2E/DX2                !
 ! D321  D(33,37,46,48)         -7.2482         estimate D2E/DX2                !
 ! D322  D(40,37,46,45)         62.3413         estimate D2E/DX2                !
 ! D323  D(40,37,46,48)       -121.7381         estimate D2E/DX2                !
 ! D324  D(72,37,46,45)        -62.7052         estimate D2E/DX2                !
 ! D325  D(72,37,46,48)        113.2153         estimate D2E/DX2                !
 ! D326  D(27,38,39,4)           2.213          estimate D2E/DX2                !
 ! D327  D(27,38,39,41)       -142.4082         estimate D2E/DX2                !
 ! D328  D(36,38,39,4)         149.94           estimate D2E/DX2                !
 ! D329  D(36,38,39,41)          5.3188         estimate D2E/DX2                !
 ! D330  D(4,39,41,1)            0.3055         estimate D2E/DX2                !
 ! D331  D(4,39,41,42)        -136.2381         estimate D2E/DX2                !
 ! D332  D(38,39,41,1)         140.368          estimate D2E/DX2                !
 ! D333  D(38,39,41,42)          3.8244         estimate D2E/DX2                !
 ! D334  D(1,41,42,43)        -147.9961         estimate D2E/DX2                !
 ! D335  D(1,41,42,66)          -5.7525         estimate D2E/DX2                !
 ! D336  D(39,41,42,43)         -6.9866         estimate D2E/DX2                !
 ! D337  D(39,41,42,66)        135.2571         estimate D2E/DX2                !
 ! D338  D(41,42,43,36)          1.0807         estimate D2E/DX2                !
 ! D339  D(41,42,43,44)        136.8725         estimate D2E/DX2                !
 ! D340  D(66,42,43,36)       -136.5968         estimate D2E/DX2                !
 ! D341  D(66,42,43,44)         -0.8051         estimate D2E/DX2                !
 ! D342  D(41,42,66,49)       -135.184          estimate D2E/DX2                !
 ! D343  D(41,42,66,65)          5.768          estimate D2E/DX2                !
 ! D344  D(43,42,66,49)          7.0991         estimate D2E/DX2                !
 ! D345  D(43,42,66,65)        148.0511         estimate D2E/DX2                !
 ! D346  D(36,43,44,34)         -6.4173         estimate D2E/DX2                !
 ! D347  D(36,43,44,47)        132.4817         estimate D2E/DX2                !
 ! D348  D(42,43,44,34)       -147.2881         estimate D2E/DX2                !
 ! D349  D(42,43,44,47)         -8.3891         estimate D2E/DX2                !
 ! D350  D(34,44,47,18)          2.868          estimate D2E/DX2                !
 ! D351  D(34,44,47,49)        146.1817         estimate D2E/DX2                !
 ! D352  D(43,44,47,18)       -132.2586         estimate D2E/DX2                !
 ! D353  D(43,44,47,49)         11.0551         estimate D2E/DX2                !
 ! D354  D(14,45,46,37)       -166.7248         estimate D2E/DX2                !
 ! D355  D(14,45,46,48)         17.8696         estimate D2E/DX2                !
 ! D356  D(20,45,46,37)        -52.2061         estimate D2E/DX2                !
 ! D357  D(20,45,46,48)        132.3883         estimate D2E/DX2                !
 ! D358  D(74,45,46,37)         71.3344         estimate D2E/DX2                !
 ! D359  D(74,45,46,48)       -104.0712         estimate D2E/DX2                !
 ! D360  D(37,46,48,17)        179.4124         estimate D2E/DX2                !
 ! D361  D(37,46,48,50)          3.3771         estimate D2E/DX2                !
 ! D362  D(45,46,48,17)         -4.6185         estimate D2E/DX2                !
 ! D363  D(45,46,48,50)        179.3462         estimate D2E/DX2                !
 ! D364  D(18,47,49,51)         -1.814          estimate D2E/DX2                !
 ! D365  D(18,47,49,66)        142.8163         estimate D2E/DX2                !
 ! D366  D(44,47,49,51)       -149.3626         estimate D2E/DX2                !
 ! D367  D(44,47,49,66)         -4.7323         estimate D2E/DX2                !
 ! D368  D(17,48,50,21)        -45.5008         estimate D2E/DX2                !
 ! D369  D(17,48,50,33)       -174.1701         estimate D2E/DX2                !
 ! D370  D(17,48,50,70)         71.5539         estimate D2E/DX2                !
 ! D371  D(46,48,50,21)        130.8464         estimate D2E/DX2                !
 ! D372  D(46,48,50,33)          2.1771         estimate D2E/DX2                !
 ! D373  D(46,48,50,70)       -112.099          estimate D2E/DX2                !
 ! D374  D(47,49,51,19)          3.86           estimate D2E/DX2                !
 ! D375  D(47,49,51,52)        152.0009         estimate D2E/DX2                !
 ! D376  D(66,49,51,19)       -140.9135         estimate D2E/DX2                !
 ! D377  D(66,49,51,52)          7.2275         estimate D2E/DX2                !
 ! D378  D(47,49,66,42)         -4.3778         estimate D2E/DX2                !
 ! D379  D(47,49,66,65)       -140.8164         estimate D2E/DX2                !
 ! D380  D(51,49,66,42)        135.7106         estimate D2E/DX2                !
 ! D381  D(51,49,66,65)         -0.728          estimate D2E/DX2                !
 ! D382  D(19,51,52,53)         -2.4483         estimate D2E/DX2                !
 ! D383  D(19,51,52,64)        135.5348         estimate D2E/DX2                !
 ! D384  D(49,51,52,53)       -146.138          estimate D2E/DX2                !
 ! D385  D(49,51,52,64)         -8.1548         estimate D2E/DX2                !
 ! D386  D(51,52,53,54)          0.1207         estimate D2E/DX2                !
 ! D387  D(51,52,53,62)        142.8603         estimate D2E/DX2                !
 ! D388  D(64,52,53,54)       -142.553          estimate D2E/DX2                !
 ! D389  D(64,52,53,62)          0.1865         estimate D2E/DX2                !
 ! D390  D(51,52,64,63)       -139.6165         estimate D2E/DX2                !
 ! D391  D(51,52,64,65)          2.6031         estimate D2E/DX2                !
 ! D392  D(53,52,64,63)          2.1337         estimate D2E/DX2                !
 ! D393  D(53,52,64,65)        144.3533         estimate D2E/DX2                !
 ! D394  D(52,53,54,20)          1.6893         estimate D2E/DX2                !
 ! D395  D(52,53,54,55)        146.5886         estimate D2E/DX2                !
 ! D396  D(62,53,54,20)       -136.3301         estimate D2E/DX2                !
 ! D397  D(62,53,54,55)          8.5692         estimate D2E/DX2                !
 ! D398  D(52,53,62,61)       -144.6894         estimate D2E/DX2                !
 ! D399  D(52,53,62,63)         -2.4392         estimate D2E/DX2                !
 ! D400  D(54,53,62,61)         -2.9193         estimate D2E/DX2                !
 ! D401  D(54,53,62,63)        139.3309         estimate D2E/DX2                !
 ! D402  D(20,54,55,14)         -5.0453         estimate D2E/DX2                !
 ! D403  D(20,54,55,60)        141.9106         estimate D2E/DX2                !
 ! D404  D(53,54,55,14)       -154.292          estimate D2E/DX2                !
 ! D405  D(53,54,55,60)         -7.3361         estimate D2E/DX2                !
 ! D406  D(14,55,60,59)          6.9949         estimate D2E/DX2                !
 ! D407  D(14,55,60,61)        142.9735         estimate D2E/DX2                !
 ! D408  D(54,55,60,59)       -135.4571         estimate D2E/DX2                !
 ! D409  D(54,55,60,61)          0.5214         estimate D2E/DX2                !
 ! D410  D(17,56,57,15)       -149.485          estimate D2E/DX2                !
 ! D411  D(17,56,57,58)         -5.0809         estimate D2E/DX2                !
 ! D412  D(22,56,57,15)          0.7896         estimate D2E/DX2                !
 ! D413  D(22,56,57,58)        145.1937         estimate D2E/DX2                !
 ! D414  D(15,57,58,16)        136.9989         estimate D2E/DX2                !
 ! D415  D(15,57,58,59)         -6.1066         estimate D2E/DX2                !
 ! D416  D(56,57,58,16)         -7.1588         estimate D2E/DX2                !
 ! D417  D(56,57,58,59)       -150.2644         estimate D2E/DX2                !
 ! D418  D(16,58,59,11)       -139.1745         estimate D2E/DX2                !
 ! D419  D(16,58,59,60)         -1.8675         estimate D2E/DX2                !
 ! D420  D(57,58,59,11)         -1.7766         estimate D2E/DX2                !
 ! D421  D(57,58,59,60)        135.5304         estimate D2E/DX2                !
 ! D422  D(11,59,60,55)        135.6066         estimate D2E/DX2                !
 ! D423  D(11,59,60,61)         -5.2108         estimate D2E/DX2                !
 ! D424  D(58,59,60,55)         -6.5521         estimate D2E/DX2                !
 ! D425  D(58,59,60,61)       -147.3695         estimate D2E/DX2                !
 ! D426  D(55,60,61,9)        -136.6997         estimate D2E/DX2                !
 ! D427  D(55,60,61,62)          5.172          estimate D2E/DX2                !
 ! D428  D(59,60,61,9)           3.083          estimate D2E/DX2                !
[...]
 Alpha virt. eigenvalues --    1.03306   1.03743   1.03914   1.04355   1.04833
 Alpha virt. eigenvalues --    1.05019   1.05634   1.05910   1.06090   1.06632
 Alpha virt. eigenvalues --    1.06795   1.07070   1.07911   1.08619   1.08829
 Alpha virt. eigenvalues --    1.09076   1.09285   1.09593   1.10265   1.10485
 Alpha virt. eigenvalues --    1.11406   1.11527   1.11731   1.12064   1.12724
 Alpha virt. eigenvalues --    1.13421   1.13708   1.14597   1.15087   1.15565
 Alpha virt. eigenvalues --    1.16070   1.16577   1.16680   1.17126   1.18061
 Alpha virt. eigenvalues --    1.18292   1.18817   1.19421   1.20604   1.20717
 Alpha virt. eigenvalues --    1.21055   1.21155   1.21903   1.22798   1.22981
 Alpha virt. eigenvalues --    1.23635   1.23787   1.23909   1.24167   1.24740
 Alpha virt. eigenvalues --    1.24858   1.25105   1.25708   1.25980   1.26485
 Alpha virt. eigenvalues --    1.26922   1.27357   1.28573   1.28797   1.29474
 Alpha virt. eigenvalues --    1.29901   1.30675   1.31267   1.31528   1.32075
 Alpha virt. eigenvalues --    1.32654   1.32875   1.33740   1.34005   1.34246
 Alpha virt. eigenvalues --    1.34570   1.34755   1.34937   1.35116   1.35315
 Alpha virt. eigenvalues --    1.36076   1.36159   1.36465   1.37057   1.37227
 Alpha virt. eigenvalues --    1.37701   1.37742   1.38147   1.38568   1.39287
 Alpha virt. eigenvalues --    1.39407   1.39688   1.40123   1.40525   1.40722
 Alpha virt. eigenvalues --    1.41351   1.41414   1.41777   1.41861   1.42694
 Alpha virt. eigenvalues --    1.42949   1.43005   1.43635   1.43866   1.44011
 Alpha virt. eigenvalues --    1.44481   1.44882   1.45108   1.45290   1.45514
 Alpha virt. eigenvalues --    1.45711   1.46085   1.46324   1.46359   1.46833
 Alpha virt. eigenvalues --    1.47012   1.47248   1.47329   1.47462   1.47813
 Alpha virt. eigenvalues --    1.48062   1.48533   1.48892   1.49162   1.49333
 Alpha virt. eigenvalues --    1.49407   1.49725   1.49863   1.50171   1.50532
 Alpha virt. eigenvalues --    1.50732   1.50886   1.51219   1.51764   1.51975
 Alpha virt. eigenvalues --    1.52305   1.52478   1.52647   1.52744   1.53172
 Alpha virt. eigenvalues --    1.53336   1.53792   1.53987   1.54116   1.54619
 Alpha virt. eigenvalues --    1.55117   1.55446   1.55480   1.55736   1.55963
 Alpha virt. eigenvalues --    1.56899   1.57159   1.57267   1.57564   1.58170
 Alpha virt. eigenvalues --    1.58497   1.58769   1.59274   1.59383   1.60323
 Alpha virt. eigenvalues --    1.60381   1.60762   1.61256   1.61885   1.62043
 Alpha virt. eigenvalues --    1.62623   1.62851   1.62930   1.63212   1.63373
 Alpha virt. eigenvalues --    1.64425   1.64620   1.64974   1.65109   1.65505
 Alpha virt. eigenvalues --    1.65936   1.66272   1.67021   1.67571   1.67871
 Alpha virt. eigenvalues --    1.67930   1.68305   1.68757   1.69098   1.69343
 Alpha virt. eigenvalues --    1.69495   1.70310   1.70702   1.71131   1.71424
 Alpha virt. eigenvalues --    1.72115   1.72472   1.72891   1.72993   1.73168
 Alpha virt. eigenvalues --    1.74071   1.74361   1.74756   1.75318   1.75571
 Alpha virt. eigenvalues --    1.75842   1.76224   1.76362   1.77066   1.77188
 Alpha virt. eigenvalues --    1.77783   1.78179   1.78500   1.78660   1.79519
 Alpha virt. eigenvalues --    1.79794   1.80270   1.80449   1.80571   1.80907
 Alpha virt. eigenvalues --    1.81201   1.81243   1.81806   1.82020   1.82673
 Alpha virt. eigenvalues --    1.83153   1.83641   1.84269   1.84757   1.85226
 Alpha virt. eigenvalues --    1.85385   1.85666   1.85848   1.86594   1.86959
 Alpha virt. eigenvalues --    1.87431   1.88199   1.88236   1.89145   1.89414
 Alpha virt. eigenvalues --    1.89737   1.90201   1.90352   1.90714   1.91567
 Alpha virt. eigenvalues --    1.92045   1.92115   1.92413   1.92554   1.93028
 Alpha virt. eigenvalues --    1.93486   1.93950   1.94272   1.95140   1.95167
 Alpha virt. eigenvalues --    1.95671   1.95953   1.96324   1.96916   1.97494
 Alpha virt. eigenvalues --    1.98639   1.98671   1.99448   1.99760   2.00102
 Alpha virt. eigenvalues --    2.01094   2.01423   2.01960   2.02345   2.02979
 Alpha virt. eigenvalues --    2.03195   2.03716   2.03947   2.04247   2.04725
 Alpha virt. eigenvalues --    2.05085   2.05235   2.05386   2.05853   2.06433
 Alpha virt. eigenvalues --    2.06645   2.07184   2.07541   2.07947   2.08457
 Alpha virt. eigenvalues --    2.09032   2.09376   2.09536   2.09931   2.10742
 Alpha virt. eigenvalues --    2.10888   2.11530   2.11768   2.12101   2.12557
 Alpha virt. eigenvalues --    2.12998   2.13494   2.13856   2.14324   2.14997
 Alpha virt. eigenvalues --    2.15470   2.15922   2.16043   2.16132   2.16615
 Alpha virt. eigenvalues --    2.17701   2.17997   2.19035   2.19338   2.19943
 Alpha virt. eigenvalues --    2.21207   2.21666   2.21994   2.22908   2.23044
 Alpha virt. eigenvalues --    2.23096   2.23804   2.24601   2.25115   2.25389
 Alpha virt. eigenvalues --    2.25893   2.26291   2.26458   2.26983   2.27220
 Alpha virt. eigenvalues --    2.28490   2.28599   2.29539   2.30494   2.30898
 Alpha virt. eigenvalues --    2.31453   2.32335   2.32438   2.32671   2.33192
 Alpha virt. eigenvalues --    2.33511   2.33762   2.34605   2.35015   2.35376
 Alpha virt. eigenvalues --    2.36342   2.37026   2.37240   2.37926   2.38018
 Alpha virt. eigenvalues --    2.38441   2.39310   2.39365   2.40432   2.40964
 Alpha virt. eigenvalues --    2.41354   2.41825   2.42495   2.43151   2.43519
 Alpha virt. eigenvalues --    2.44061   2.44223   2.44801   2.44978   2.45625
 Alpha virt. eigenvalues --    2.45949   2.46181   2.46395   2.46485   2.46946
 Alpha virt. eigenvalues --    2.47394   2.48045   2.48850   2.49336   2.49499
 Alpha virt. eigenvalues --    2.50884   2.51156   2.51686   2.52711   2.53304
 Alpha virt. eigenvalues --    2.53741   2.54619   2.54917   2.55986   2.56642
 Alpha virt. eigenvalues --    2.57073   2.57290   2.57375   2.57879   2.58213
 Alpha virt. eigenvalues --    2.58837   2.58889   2.59424   2.59997   2.60126
 Alpha virt. eigenvalues --    2.60515   2.60848   2.61011   2.61768   2.62181
 Alpha virt. eigenvalues --    2.62362   2.63433   2.64433   2.64682   2.65460
 Alpha virt. eigenvalues --    2.66068   2.66572   2.66752   2.67235   2.67591
 Alpha virt. eigenvalues --    2.68625   2.68942   2.69798   2.70501   2.71318
 Alpha virt. eigenvalues --    2.71564   2.73009   2.73291   2.73772   2.74257
 Alpha virt. eigenvalues --    2.74578   2.75393   2.75718   2.76794   2.77892
 Alpha virt. eigenvalues --    2.78958   2.79617   2.80335   2.81188   2.81926
 Alpha virt. eigenvalues --    2.82277   2.82757   2.82850   2.83619   2.84617
 Alpha virt. eigenvalues --    2.84820   2.85025   2.86264   2.86978   2.87652
 Alpha virt. eigenvalues --    2.87968   2.88110   2.89930   2.90280   2.90989
 Alpha virt. eigenvalues --    2.91722   2.92250   2.92551   2.93136   2.94404
 Alpha virt. eigenvalues --    2.94985   2.95160   2.95762   2.96479   2.97407
 Alpha virt. eigenvalues --    2.97527   2.98254   2.98712   2.99217   2.99539
 Alpha virt. eigenvalues --    2.99632   3.00242   3.00752   3.01209   3.01388
 Alpha virt. eigenvalues --    3.01476   3.02137   3.02407   3.02927   3.03430
 Alpha virt. eigenvalues --    3.03583   3.04071   3.04264   3.04816   3.05295
 Alpha virt. eigenvalues --    3.05547   3.05779   3.06278   3.06466   3.07080
 Alpha virt. eigenvalues --    3.07155   3.07510   3.07977   3.08119   3.08710
 Alpha virt. eigenvalues --    3.08951   3.09309   3.09694   3.10722   3.10844
 Alpha virt. eigenvalues --    3.11209   3.11497   3.11890   3.12415   3.12672
 Alpha virt. eigenvalues --    3.13134   3.13250   3.13920   3.14017   3.14308
 Alpha virt. eigenvalues --    3.14587   3.14823   3.14942   3.15326   3.15596
 Alpha virt. eigenvalues --    3.15931   3.15963   3.16519   3.16734   3.16797
 Alpha virt. eigenvalues --    3.17264   3.17396   3.18306   3.18627   3.19286
 Alpha virt. eigenvalues --    3.20329   3.20470   3.20950   3.21657   3.21849
 Alpha virt. eigenvalues --    3.22612   3.23181   3.23768   3.24072   3.25696
 Alpha virt. eigenvalues --    3.27000   3.28254   3.30343   3.30981   3.33152
 Alpha virt. eigenvalues --    3.34680   3.36589   3.37667   3.37879   3.41106
 Alpha virt. eigenvalues --    3.42571   3.44539   3.46969   3.48071   3.48714
 Alpha virt. eigenvalues --    3.50447   3.51171   3.52039   3.53601   3.54441
 Alpha virt. eigenvalues --    3.54996   3.55210   3.56436   3.57253   3.57704
 Alpha virt. eigenvalues --    3.58570   3.59115   3.60597   3.61636   3.61888
 Alpha virt. eigenvalues --    3.63975   3.65164   3.65631   3.66320   3.67774
 Alpha virt. eigenvalues --    3.69575   3.69647   3.70245   3.71231   3.71599
 Alpha virt. eigenvalues --    3.72885   3.74392   3.75389   3.76424   3.77442
 Alpha virt. eigenvalues --    3.78209   3.79299   3.79996   3.81610   3.83299
 Alpha virt. eigenvalues --    3.84491   3.85303   3.85624   3.86534   3.87751
 Alpha virt. eigenvalues --    3.88718   3.89557   3.90148   3.90810   3.91486
 Alpha virt. eigenvalues --    3.92307   3.92365   3.93339   3.94185   3.94353
 Alpha virt. eigenvalues --    3.95410   3.96936   4.00091   4.02796   4.06103
 Alpha virt. eigenvalues --    4.07473   4.09931   4.13966   4.17275   4.22933
 Alpha virt. eigenvalues --    4.24386   4.26124   4.31106   4.33787   4.36021
 Alpha virt. eigenvalues --    4.37706   4.38390   4.39479   4.39688   4.41221
 Alpha virt. eigenvalues --    4.42584   4.43916   4.50311   4.53414   4.56450
 Alpha virt. eigenvalues --    4.57879   4.61768   4.63291   4.65850   4.66550
 Alpha virt. eigenvalues --    4.67400   4.69908   4.75918   4.77979   4.81703
 Alpha virt. eigenvalues --    4.86655   4.90384   4.97736   5.00551   5.01977
 Alpha virt. eigenvalues --    5.03858   5.05940   5.06435  23.05103  23.22547
 Alpha virt. eigenvalues --   23.27420  23.31968  23.46138  23.49380  23.51426
 Alpha virt. eigenvalues --   23.54306  23.55470  23.62654  23.66444  23.68299
 Alpha virt. eigenvalues --   23.71041  23.76517  23.78837  23.80250  23.81845
 Alpha virt. eigenvalues --   23.82098  23.82862  23.85015  23.85583  23.86804
 Alpha virt. eigenvalues --   23.88158  23.88932  23.90496  23.91149  23.91706
 Alpha virt. eigenvalues --   23.92770  23.93915  23.94948  23.95748  23.97001
 Alpha virt. eigenvalues --   23.97919  23.98526  23.98620  23.98799  23.99384
 Alpha virt. eigenvalues --   23.99791  24.00351  24.00806  24.01128  24.01530
 Alpha virt. eigenvalues --   24.02520  24.03585  24.03819  24.04821  24.05549
 Alpha virt. eigenvalues --   24.06858  24.07652  24.09920  24.10506  24.11060
 Alpha virt. eigenvalues --   24.11187  24.11302  24.11889  24.12306  24.12515
 Alpha virt. eigenvalues --   24.12822  24.13857  24.13985  24.14656  24.15473
 Alpha virt. eigenvalues --   24.16370  24.17365  24.18946  24.26483
          Condensed to atoms (all electrons):
 Mulliken charges:
               1
     1  C   -0.004741
     2  C   -0.002026
     3  C   -0.004341
     4  C   -0.006347
     5  C   -0.005698
     6  C   -0.001898
     7  C   -0.135745
     8  C   -0.001612
     9  C   -0.004744
    10  C   -0.148704
    11  C    0.001088
    12  C   -0.004529
    13  C   -0.005448
    14  C   -0.004643
    15  C   -0.002018
    16  C   -0.000515
    17  C   -0.135859
    18  C    0.009177
    19  C    0.006503
    20  C   -0.016008
    21  C   -0.135920
    22  C    0.019240
    23  C    0.000365
    24  C    0.015218
    25  C   -0.005041
    26  C   -0.003120
    27  C    0.018826
    28  C   -0.031397
    29  C    0.021112
    30  C    0.007815
    31  C    0.009332
    32  C    0.018132
    33  C   -0.138807
    34  C   -0.009202
    35  C   -0.009402
    36  C   -0.006342
    37  C   -0.163384
    38  C   -0.001978
    39  C   -0.002587
    40  C   -0.008342
    41  C    0.001666
    42  C   -0.003788
    43  C   -0.012143
    44  C   -0.006292
    45  C   -0.156842
    46  C   -0.003083
    47  C   -0.000203
    48  C   -0.041367
    49  C   -0.001894
    50  C   -0.102415
    51  C   -0.009457
    52  C   -0.003442
    53  C   -0.009144
    54  C    0.014556
    55  C    0.026810
    56  C   -0.015082
    57  C    0.030510
    58  C    0.004584
    59  C   -0.012999
    60  C   -0.005460
    61  C   -0.006439
    62  C   -0.002681
    63  C   -0.000977
    64  C   -0.006307
    65  C   -0.003168
    66  C    0.001270
    67  H    0.159395
    68  H    0.145290
    69  H    0.143372
    70  H    0.131576
    71  H    0.144394
    72  H    0.148095
    73  H    0.156164
    74  H    0.169094
 Sum of Mulliken charges =  -0.00000
 Mulliken charges with hydrogens summed into heavy atoms:
               1
     1  C   -0.004741
     2  C   -0.002026
     3  C   -0.004341
     4  C   -0.006347
     5  C   -0.005698
     6  C   -0.001898
     7  C    0.023651
     8  C   -0.001612
     9  C   -0.004744
    10  C   -0.003414
    11  C    0.001088
    12  C   -0.004529
    13  C   -0.005448
    14  C   -0.004643
    15  C   -0.002018
    16  C   -0.000515
    17  C    0.020305
    18  C    0.009177
    19  C    0.006503
    20  C   -0.016008
    21  C    0.007452
    22  C    0.019240
    23  C    0.000365
    24  C    0.015218
    25  C   -0.005041
    26  C   -0.003120
    27  C    0.018826
    28  C   -0.031397
    29  C    0.021112
    30  C    0.007815
    31  C    0.009332
    32  C    0.018132
    33  C    0.005587
    34  C   -0.009202
    35  C   -0.009402
    36  C   -0.006342
    37  C   -0.015289
    38  C   -0.001978
    39  C   -0.002587
    40  C   -0.008342
    41  C    0.001666
    42  C   -0.003788
    43  C   -0.012143
    44  C   -0.006292
    45  C    0.012252
    46  C   -0.003083
    47  C   -0.000203
    48  C   -0.041367
    49  C   -0.001894
    50  C    0.029160
    51  C   -0.009457
    52  C   -0.003442
    53  C   -0.009144
    54  C    0.014556
    55  C    0.026810
    56  C   -0.015082
    57  C    0.030510
    58  C    0.004584
    59  C   -0.012999
    60  C   -0.005460
    61  C   -0.006439
    62  C   -0.002681
    63  C   -0.000977
    64  C   -0.006307
    65  C   -0.003168
    66  C    0.001270
 Electronic spatial extent (au):  <R**2>=          21546.7932
 Charge=             -0.0000 electrons
 Dipole moment (field-independent basis, Debye):
    X=              6.6654    Y=              1.6143    Z=              1.0498  Tot=              6.9380
 Quadrupole moment (field-independent basis, Debye-Ang):
   XX=           -348.2607   YY=           -378.4047   ZZ=           -364.7346
   XY=              6.6892   XZ=              2.0783   YZ=              5.4036
 Traceless Quadrupole moment (field-independent basis, Debye-Ang):
   XX=             15.5393   YY=            -14.6047   ZZ=             -0.9346
   XY=              6.6892   XZ=              2.0783   YZ=              5.4036
 Octapole moment (field-independent basis, Debye-Ang**2):
  XXX=            195.7165  YYY=             29.4556  ZZZ=             22.7758  XYY=             30.7113
  XXY=             22.8776  XXZ=              1.1135  XZZ=             67.0607  YZZ=              8.9774
  YYZ=              9.5496  XYZ=             13.1241
 Hexadecapole moment (field-independent basis, Debye-Ang**3):
 XXXX=         -12428.7101 YYYY=         -11255.9380 ZZZZ=          -8762.3667 XXXY=            109.4370
 XXXZ=             -3.8452 YYYX=            117.9734 YYYZ=             34.4100 ZZZX=             32.2584
 ZZZY=             92.3024 XXYY=          -3996.6316 XXZZ=          -3511.9650 YYZZ=          -3356.4933
 XXYZ=             35.8874 YYXZ=             25.6289 ZZXY=              4.2312
 N-N= 9.954124669029D+03 E-N=-2.575430737881D+04  KE= 2.509865535146D+03
 No NMR shielding tensors so no spin-rotation constants.
 Leave Link  601 at Wed Jul 20 04:56:14 2022, MaxMem=  1342177280 cpu:              61.8 elap:               1.5
 (Enter /home/mkliu/g16/l9999.exe)
 1\1\GINC-NODE01\FOpt\RB3LYP\6-311G(d,p)\C66H8\MKLIU\20-Jul-2022\0\\#P 
 opt b3lyp/6-311G(d, p) empiricaldispersion=GD3\\force\\0,1\C,12.762103
 1045,12.0764342706,21.9114322618\C,12.7651744993,13.0241464903,22.9270
 464432\C,12.643317215,14.4346699563,22.5999916912\C,12.5729541,14.8454
 297183,21.2706497887\C,13.4474259461,15.1804614301,23.5204579176\C,14.
 0837340413,14.2483428973,24.4353988312\C,15.6131607884,17.344668889,18
 .7571458771\C,13.6963792264,12.9101753669,24.0346630741\C,15.375001511
 8,14.4976306783,24.8930590951\C,16.900618251,17.0075101685,17.88148955
 5\C,16.0513636841,15.7172138405,24.5133410351\C,15.4376934437,16.58723
 52533,23.6127810939\C,14.1437757404,16.2947232071,23.0587210789\C,19.2
 684162632,14.0360659523,22.664401256\C,16.2111043177,17.2395626683,22.
 5899703642\C,19.2186993926,15.4055283932,22.6252263881\C,19.492548237,
 16.2003930243,21.3605332833\C,17.4322183665,11.5766242092,19.318125246
 4\C,17.688224964,11.2969953591,20.7685090557\C,18.4680870227,12.011133
 7188,21.6665351493\C,18.1603352353,17.1422085601,18.7927572222\C,17.56
 55031557,17.3502061249,20.1646750024\C,16.1496717469,17.4386011976,20.
 1728365766\C,15.4504789389,17.3277348833,21.3771180763\C,14.1303408943
 ,16.6991517682,21.650595229\C,13.3370393006,15.9807714344,20.758994449
 1\C,13.6177038648,15.7006924742,19.3203135477\C,14.6562043919,16.17028
 15479,18.5297729269\C,15.2604879379,15.2744347593,17.5825717912\C,16.6
 470794918,15.598828711,17.4354203944\C,17.5740813931,14.5943038827,17.
 430048379\C,17.1384674501,13.2373631498,17.5716507876\C,19.0001479876,
 14.7288464433,17.8752308379\C,15.7963381491,12.9058887789,17.414656378
 1\C,14.8208620898,13.9652174891,17.4200240277\C,13.6716750311,13.51004
 62004,18.131349707\C,19.2185571027,13.4270061947,18.7598154614\C,13.07
 10398927,14.3787755987,19.0423832087\C,12.4640439286,13.8511529867,20.
 232785487\C,17.9825061995,12.5637508687,18.5197899513\C,12.5581304597,
 12.4895882801,20.5368447886\C,13.349855605,11.6288945043,19.6823483406
 \C,13.8871416146,12.1228311249,18.5041001011\C,15.2522771458,11.797550
 7144,18.1281889508\C,19.4992034708,13.1490408682,21.4255995418\C,19.35
 39672056,13.9838245019,20.1649585021\C,16.0728057751,11.1353617765,19.
 0433293933\C,19.3994197862,15.3205135107,20.1540359042\C,15.4981820533
 ,10.5822439114,20.2375428826\C,19.2426997598,15.9631458774,18.79458923
 64\C,16.4946668804,10.6257938255,21.2752256223\C,16.0884044257,10.7203
 645094,22.6037315031\C,16.8902780465,11.4653877085,23.5203839656\C,18.
 0526780167,12.0774324653,23.0520751252\C,18.4742539455,13.3321438465,2
 3.620752295\C,18.2720700774,17.11499886,21.3212402355\C,17.5972885589,
 17.0667502506,22.5514430236\C,18.2291849925,16.0879899658,23.416182677
 4\C,17.4692045926,15.4212628712,24.3668544701\C,17.6398417135,14.00445
 14038,24.5277773458\C,16.3612509366,13.4315006931,24.8941411515\C,16.0
 092886766,12.1684388885,24.4373389424\C,14.6465854372,11.8846283349,24
 .0365957842\C,14.6918989247,10.9451469446,22.9295111416\C,13.747949165
 8,11.011898621,21.9126302274\C,14.146349717,10.7755842807,20.540270067
 7\H,15.1493235911,18.2882190895,18.4536049945\H,16.9732852349,17.68396
 45902,17.0269304102\H,18.6965439689,18.0494582929,18.5018726891\H,20.1
 957073303,16.4269679676,18.5191492318\H,19.6822670438,14.7412113473,17
 .0221177645\H,20.1254705198,12.8807978646,18.4750846045\H,20.451073735
 4,16.7368496075,21.3888915141\H,20.5036055041,12.7005063604,21.4356344
 851\\Version=ES64L-G16RevA.03\State=1-A\HF=-2520.2750389\RMSD=4.441e-0
 9\RMSF=7.197e-05\Dipole=2.0617381,1.1902192,-1.3354217\Quadrupole=6.91
 08007,-1.4012686,-5.5095321,2.5313981,-7.4081851,-8.237831\PG=C01 [X(C
 66H8)]\\@


 NOTHING WILL BE ATTEMPTED IF ALL POSSIBLE OBJECTIONS
 MUST FIRST BE OVERCOME.

                               -- THE GOLDEN PRINCIPLE,
                    PAUL DICKSON'S "THE OFFICIAL RULES"
 Job cpu time:       1 days  3 hours 21 minutes  9.2 seconds.
 Elapsed time:       0 days  0 hours 34 minutes 16.5 seconds.
 File lengths (MBytes):  RWF=    939 Int=      0 D2E=      0 Chk=    116 Scr=      1
 Normal termination of Gaussian 16 at Wed Jul 20 04:56:14 2022.
