 Entering Gaussian System, Link 0=g16
 Input=dihept_8_addons_4.gjf
 Output=dihept_8_addons_4.log
 Initial command:
 /home/mkliu/g16/l1.exe "/data/scratch/Gau-104260.inp" -scrdir="/data/scratch/"
 Entering Link 1 = /home/mkliu/g16/l1.exe PID=    104261.
  
 Copyright (c) 1988,1990,1992,1993,1995,1998,2003,2009,2016,
            Gaussian, Inc.  All Rights Reserved.
  
 This is part of the Gaussian(R) 16 program.  It is based on
 the Gaussian(R) 09 system (copyright 2009, Gaussian, Inc.),
 the Gaussian(R) 03 system (copyright 2003, Gaussian, Inc.),
 the Gaussian(R) 98 system (copyright 1998, Gaussian, Inc.),
 the Gaussian(R) 94 system (copyright 1995, Gaussian, Inc.),
 the Gaussian 92(TM) system (copyright 1992, Gaussian, Inc.),
 the Gaussian 90(TM) system (copyright 1990, Gaussian, Inc.),
 the Gaussian 88(TM) system (copyright 1988, Gaussian, Inc.),
 the Gaussian 86(TM) system (copyright 1986, Carnegie Mellon
 University), and the Gaussian 82(TM) system (copyright 1983,
 Carnegie Mellon University). Gaussian is a federally registered
 trademark of Gaussian, Inc.
  
 This software contains proprietary and confidential information,
 including trade secrets, belonging to Gaussian, Inc.
  
 This software is provided under written license and may be
 used, copied, transmitted, or stored only in accord with that
 written license.
  
 The following legend is applicable only to US Government
 contracts under FAR:
  
                    RESTRICTED RIGHTS LEGEND
  
 Use, reproduction and disclosure by the US Government is
 subject to restrictions as set forth in subparagraphs (a)
 and (c) of the Commercial Computer Software - Restricted
 Rights clause in FAR 52.227-19.
  
 Gaussian, Inc.
 340 Quinnipiac St., Bldg. 40, Wallingford CT 06492
  
  
 ---------------------------------------------------------------
 Warning -- This program may not be used in any manner that
 competes with the business of Gaussian, Inc. or will provide
 assistance to any competitor of Gaussian, Inc.  The licensee
 of this program is prohibited from giving any competitor of
 Gaussian, Inc. access to this program.  By using this program,
 the user acknowledges that Gaussian, Inc. is engaged in the
 business of creating and licensing software in the field of
 computational chemistry and represents and warrants to the
 licensee that it is not a competitor of Gaussian, Inc. and that
 it will not use this program in any manner prohibited above.
 ---------------------------------------------------------------
  

 Cite this work as:
 Gaussian 16, Revision A.03,
 M. J. Frisch, G. W. Trucks, H. B. Schlegel, G. E. Scuseria, 
 M. A. Robb, J. R. Cheeseman, G. Scalmani, V. Barone, 
 G. A. Petersson, H. Nakatsuji, X. Li, M. Caricato, A. V. Marenich, 
 J. Bloino, B. G. Janesko, R. Gomperts, B. Mennucci, H. P. Hratchian, 
 J. V. Ortiz, A. F. Izmaylov, J. L. Sonnenberg, D. Williams-Young, 
 F. Ding, F. Lipparini, F. Egidi, J. Goings, B. Peng, A. Petrone, 
 T. Henderson, D. Ranasinghe, V. G. Zakrzewski, J. Gao, N. Rega, 
 G. Zheng, W. Liang, M. Hada, M. Ehara, K. Toyota, R. Fukuda, 
 J. Hasegawa, M. Ishida, T. Nakajima, Y. Honda, O. Kitao, H. Nakai, 
 T. Vreven, K. Throssell, J. A. Montgomery, Jr., J. E. Peralta, 
 F. Ogliaro, M. J. Bearpark, J. J. Heyd, E. N. Brothers, K. N. Kudin, 
 V. N. Staroverov, T. A. Keith, R. Kobayashi, J. Normand, 
 K. Raghavachari, A. P. Rendell, J. C. Burant, S. S. Iyengar, 
 J. Tomasi, M. Cossi, J. M. Millam, M. Klene, C. Adamo, R. Cammi, 
 J. W. Ochterski, R. L. Martin, K. Morokuma, O. Farkas, 
 J. B. Foresman, and D. J. Fox, Gaussian, Inc., Wallingford CT, 2016.
 
 ******************************************
 Gaussian 16:  ES64L-G16RevA.03 25-Dec-2016
                20-Jul-2022 
 ******************************************
 %mem=10GB
 %chk=dihept_8_addons_4.chk
 %nprocshared=48
 Will use up to   48 processors via shared memory.
 -------------------------------------------------
 #P opt b3lyp/6-311G(d, p) empiricaldispersion=GD3
 -------------------------------------------------
 1/18=20,19=15,26=3,38=1/1,3;
 2/9=110,12=2,17=6,18=5,40=1/2;
 3/5=4,6=6,7=101,11=2,25=1,30=1,71=1,74=-5,124=31/1,2,3;
 4//1;
 5/5=2,38=5/2;
 6/7=2,8=2,9=2,10=2,28=1/1;
 7//1,2,3,16;
 1/18=20,19=15,26=3/3(2);
 2/9=110/2;
 99//99;
 2/9=110/2;
 3/5=4,6=6,7=101,11=2,25=1,30=1,71=1,74=-5,124=31/1,2,3;
 4/5=5,16=3,69=1/1;
 5/5=2,38=5/2;
 7//1,2,3,16;
 1/18=20,19=15,26=3/3(-5);
 2/9=110/2;
 6/7=2,8=2,9=2,10=2,19=2,28=1/1;
 99/9=1/99;
 Leave Link    1 at Wed Jul 20 02:09:48 2022, MaxMem=  1342177280 cpu:               2.0 elap:               0.0
 (Enter /home/mkliu/g16/l101.exe)
 -----
 force
 -----
 Symbolic Z-matrix:
 Charge =  0 Multiplicity = 1
 C                     12.56133   11.9318   21.91674 
 C                     12.52233   12.99358   23.05489 
 C                     12.75892   14.39769   22.55202 
 C                     12.67807   14.82875   21.25404 
 C                     13.57169   15.12266   23.43847 
 C                     14.15674   14.22747   24.36939 
 C                     15.64686   17.35645   18.73888 
 C                     13.53904   12.85405   24.25838 
 C                     15.41742   14.49223   24.83849 
 C                     16.93117   16.99905   17.9059 
 C                     16.08879   15.70538   24.46455 
 C                     15.48879   16.59688   23.57658 
 C                     14.22894   16.27441   22.99791 
 C                     19.24387   14.05489   22.57929 
 C                     16.25314   17.28458   22.58542 
 C                     19.20596   15.44273   22.57626 
 C                     19.26836   16.10607   21.32138 
 C                     17.48039   11.6301   19.30337 
 C                     17.73321   11.33368   20.72397 
 C                     18.51184   12.05138   21.61768 
 C                     18.02465   16.86722   18.92674 
 C                     17.57602   17.40642   20.16204 
 C                     16.15008   17.51518   20.16255 
 C                     15.48338   17.36795   21.35873 
 C                     14.20454   16.69191   21.62456 
 C                     13.42971   15.95006   20.74288 
 C                     13.69888   15.68763   19.32326 
 C                     14.71413   16.17567   18.52873 
 C                     15.30118   15.29721   17.56268 
 C                     16.67357   15.61604   17.38198 
 C                     17.60711   14.61249   17.37875 
 C                     17.19055   13.26634   17.55471 
 C                     19.00708   14.76776   17.8994 
 C                     15.84825   12.93764   17.40226 
 C                     14.874    13.98519   17.40401 
 C                     13.73197   13.52292   18.11382 
 C                     19.27469   13.45821   18.72647 
 C                     13.14144   14.38186   19.03423 
 C                     12.53192   13.84222   20.20522 
 C                     18.03197   12.61347   18.511 
 C                     12.60227   12.50378   20.50852 
 C                     13.41554   11.67913   19.67445 
 C                     13.94719   12.15346   18.48331 
 C                     15.306    11.83374   18.11363 
 C                     19.26919   13.28348   21.35145 
 C                     19.46372   13.94063   20.15492 
 C                     16.13101   11.18272   19.01968 
 C                     19.46161   15.37072   20.15803 
 C                     15.55712   10.63921   20.20858 
 C                     18.95671   15.86323   18.92464 
 C                     16.54431   10.6832   21.22921 
 C                     16.1103   10.81095   22.54217 
 C                     16.91518   11.53082   23.46402 
 C                     18.10169   12.10097   23.00693 
 C                     18.51125   13.34003   23.57627 
 C                     18.29742   17.15577   21.32377 
 C                     17.63452   17.14158   22.58036 
 C                     18.25172   16.13414   23.40944 
 C                     17.49222   15.42593   24.32352 
 C                     17.67132   14.00596   24.47068 
 C                     16.41357   13.42711   24.8512 
 C                     16.05727   12.18524   24.39542 
 C                     14.62404   11.71949   24.20652 
 C                     14.73643   11.02359   22.87344 
 C                     13.81371   11.08565   21.8824 
 C                     14.21918   10.85741   20.53234 
 H                     15.17018   18.28176   18.3977 
 H                     17.15055   17.72824   17.12314 
 H                     19.74755   14.93795   17.11501 
 H                     20.16589   12.92059   18.38512 
 H                     12.95121   12.66798   25.16312 
 H                     14.37275   10.9885   24.98355 
 H                     11.51487   12.95466   23.48365 
 H                     11.68029   11.28752   22.01911 
 
 ITRead=  0  0  0  0  0  0  0  0  0  0  0  0  0  0  0  0  0  0  0  0
 ITRead=  0  0  0  0  0  0  0  0  0  0  0  0  0  0  0  0  0  0  0  0
 ITRead=  0  0  0  0  0  0  0  0  0  0  0  0  0  0  0  0  0  0  0  0
 ITRead=  0  0  0  0  0  0  0  0  0  0  0  0  0  0
 MicOpt= -1 -1 -1 -1 -1 -1 -1 -1 -1 -1 -1 -1 -1 -1 -1 -1 -1 -1 -1 -1
 MicOpt= -1 -1 -1 -1 -1 -1 -1 -1 -1 -1 -1 -1 -1 -1 -1 -1 -1 -1 -1 -1
 MicOpt= -1 -1 -1 -1 -1 -1 -1 -1 -1 -1 -1 -1 -1 -1 -1 -1 -1 -1 -1 -1
 MicOpt= -1 -1 -1 -1 -1 -1 -1 -1 -1 -1 -1 -1 -1 -1
 NAtoms=     74 NQM=       74 NQMF=       0 NMMI=      0 NMMIF=      0
                NMic=       0 NMicF=      0.
                    Isotopes and Nuclear Properties:
 (Nuclear quadrupole moments (NQMom) in fm**2, nuclear magnetic moments (NMagM)
  in nuclear magnetons)

  Atom         1           2           3           4           5           6           7           8           9          10
 IAtWgt=          12          12          12          12          12          12          12          12          12          12
 AtmWgt=  12.0000000  12.0000000  12.0000000  12.0000000  12.0000000  12.0000000  12.0000000  12.0000000  12.0000000  12.0000000
 NucSpn=           0           0           0           0           0           0           0           0           0           0
 AtZEff=  -0.0000000  -0.0000000  -0.0000000  -0.0000000  -0.0000000  -0.0000000  -0.0000000  -0.0000000  -0.0000000  -0.0000000
 NQMom=    0.0000000   0.0000000   0.0000000   0.0000000   0.0000000   0.0000000   0.0000000   0.0000000   0.0000000   0.0000000
 NMagM=    0.0000000   0.0000000   0.0000000   0.0000000   0.0000000   0.0000000   0.0000000   0.0000000   0.0000000   0.0000000
 AtZNuc=   6.0000000   6.0000000   6.0000000   6.0000000   6.0000000   6.0000000   6.0000000   6.0000000   6.0000000   6.0000000

  Atom        11          12          13          14          15          16          17          18          19          20
 IAtWgt=          12          12          12          12          12          12          12          12          12          12
 AtmWgt=  12.0000000  12.0000000  12.0000000  12.0000000  12.0000000  12.0000000  12.0000000  12.0000000  12.0000000  12.0000000
 NucSpn=           0           0           0           0           0           0           0           0           0           0
 AtZEff=  -0.0000000  -0.0000000  -0.0000000  -0.0000000  -0.0000000  -0.0000000  -0.0000000  -0.0000000  -0.0000000  -0.0000000
 NQMom=    0.0000000   0.0000000   0.0000000   0.0000000   0.0000000   0.0000000   0.0000000   0.0000000   0.0000000   0.0000000
 NMagM=    0.0000000   0.0000000   0.0000000   0.0000000   0.0000000   0.0000000   0.0000000   0.0000000   0.0000000   0.0000000
 AtZNuc=   6.0000000   6.0000000   6.0000000   6.0000000   6.0000000   6.0000000   6.0000000   6.0000000   6.0000000   6.0000000

  Atom        21          22          23          24          25          26          27          28          29          30
 IAtWgt=          12          12          12          12          12          12          12          12          12          12
 AtmWgt=  12.0000000  12.0000000  12.0000000  12.0000000  12.0000000  12.0000000  12.0000000  12.0000000  12.0000000  12.0000000
 NucSpn=           0           0           0           0           0           0           0           0           0           0
 AtZEff=  -0.0000000  -0.0000000  -0.0000000  -0.0000000  -0.0000000  -0.0000000  -0.0000000  -0.0000000  -0.0000000  -0.0000000
 NQMom=    0.0000000   0.0000000   0.0000000   0.0000000   0.0000000   0.0000000   0.0000000   0.0000000   0.0000000   0.0000000
 NMagM=    0.0000000   0.0000000   0.0000000   0.0000000   0.0000000   0.0000000   0.0000000   0.0000000   0.0000000   0.0000000
 AtZNuc=   6.0000000   6.0000000   6.0000000   6.0000000   6.0000000   6.0000000   6.0000000   6.0000000   6.0000000   6.0000000

  Atom        31          32          33          34          35          36          37          38          39          40
 IAtWgt=          12          12          12          12          12          12          12          12          12          12
 AtmWgt=  12.0000000  12.0000000  12.0000000  12.0000000  12.0000000  12.0000000  12.0000000  12.0000000  12.0000000  12.0000000
 NucSpn=           0           0           0           0           0           0           0           0           0           0
 AtZEff=  -0.0000000  -0.0000000  -0.0000000  -0.0000000  -0.0000000  -0.0000000  -0.0000000  -0.0000000  -0.0000000  -0.0000000
 NQMom=    0.0000000   0.0000000   0.0000000   0.0000000   0.0000000   0.0000000   0.0000000   0.0000000   0.0000000   0.0000000
 NMagM=    0.0000000   0.0000000   0.0000000   0.0000000   0.0000000   0.0000000   0.0000000   0.0000000   0.0000000   0.0000000
 AtZNuc=   6.0000000   6.0000000   6.0000000   6.0000000   6.0000000   6.0000000   6.0000000   6.0000000   6.0000000   6.0000000

  Atom        41          42          43          44          45          46          47          48          49          50
 IAtWgt=          12          12          12          12          12          12          12          12          12          12
 AtmWgt=  12.0000000  12.0000000  12.0000000  12.0000000  12.0000000  12.0000000  12.0000000  12.0000000  12.0000000  12.0000000
 NucSpn=           0           0           0           0           0           0           0           0           0           0
 AtZEff=  -0.0000000  -0.0000000  -0.0000000  -0.0000000  -0.0000000  -0.0000000  -0.0000000  -0.0000000  -0.0000000  -0.0000000
 NQMom=    0.0000000   0.0000000   0.0000000   0.0000000   0.0000000   0.0000000   0.0000000   0.0000000   0.0000000   0.0000000
 NMagM=    0.0000000   0.0000000   0.0000000   0.0000000   0.0000000   0.0000000   0.0000000   0.0000000   0.0000000   0.0000000
 AtZNuc=   6.0000000   6.0000000   6.0000000   6.0000000   6.0000000   6.0000000   6.0000000   6.0000000   6.0000000   6.0000000

  Atom        51          52          53          54          55          56          57          58          59          60
 IAtWgt=          12          12          12          12          12          12          12          12          12          12
 AtmWgt=  12.0000000  12.0000000  12.0000000  12.0000000  12.0000000  12.0000000  12.0000000  12.0000000  12.0000000  12.0000000
 NucSpn=           0           0           0           0           0           0           0           0           0           0
 AtZEff=  -0.0000000  -0.0000000  -0.0000000  -0.0000000  -0.0000000  -0.0000000  -0.0000000  -0.0000000  -0.0000000  -0.0000000
 NQMom=    0.0000000   0.0000000   0.0000000   0.0000000   0.0000000   0.0000000   0.0000000   0.0000000   0.0000000   0.0000000
 NMagM=    0.0000000   0.0000000   0.0000000   0.0000000   0.0000000   0.0000000   0.0000000   0.0000000   0.0000000   0.0000000
 AtZNuc=   6.0000000   6.0000000   6.0000000   6.0000000   6.0000000   6.0000000   6.0000000   6.0000000   6.0000000   6.0000000

  Atom        61          62          63          64          65          66          67          68          69          70
 IAtWgt=          12          12          12          12          12          12           1           1           1           1
 AtmWgt=  12.0000000  12.0000000  12.0000000  12.0000000  12.0000000  12.0000000   1.0078250   1.0078250   1.0078250   1.0078250
 NucSpn=           0           0           0           0           0           0           1           1           1           1
 AtZEff=  -0.0000000  -0.0000000  -0.0000000  -0.0000000  -0.0000000  -0.0000000  -0.0000000  -0.0000000  -0.0000000  -0.0000000
 NQMom=    0.0000000   0.0000000   0.0000000   0.0000000   0.0000000   0.0000000   0.0000000   0.0000000   0.0000000   0.0000000
 NMagM=    0.0000000   0.0000000   0.0000000   0.0000000   0.0000000   0.0000000   2.7928460   2.7928460   2.7928460   2.7928460
 AtZNuc=   6.0000000   6.0000000   6.0000000   6.0000000   6.0000000   6.0000000   1.0000000   1.0000000   1.0000000   1.0000000

  Atom        71          72          73          74
 IAtWgt=           1           1           1           1
 AtmWgt=   1.0078250   1.0078250   1.0078250   1.0078250
 NucSpn=           1           1           1           1
 AtZEff=  -0.0000000  -0.0000000  -0.0000000  -0.0000000
 NQMom=    0.0000000   0.0000000   0.0000000   0.0000000
 NMagM=    2.7928460   2.7928460   2.7928460   2.7928460
 AtZNuc=   1.0000000   1.0000000   1.0000000   1.0000000
 Leave Link  101 at Wed Jul 20 02:09:49 2022, MaxMem=  1342177280 cpu:              29.0 elap:               0.6
 (Enter /home/mkliu/g16/l103.exe)

 GradGradGradGradGradGradGradGradGradGradGradGradGradGradGradGradGradGrad
 Berny optimization.
 Initialization pass.
                           ----------------------------
                           !    Initial Parameters    !
                           ! (Angstroms and Degrees)  !
 --------------------------                            --------------------------
 ! Name  Definition              Value          Derivative Info.                !
 --------------------------------------------------------------------------------
 ! R1    R(1,2)                  1.557          estimate D2E/DX2                !
 ! R2    R(1,41)                 1.5205         estimate D2E/DX2                !
 ! R3    R(1,65)                 1.5118         estimate D2E/DX2                !
 ! R4    R(1,74)                 1.0963         estimate D2E/DX2                !
 ! R5    R(2,3)                  1.5101         estimate D2E/DX2                !
 ! R6    R(2,8)                  1.5816         estimate D2E/DX2                !
 ! R7    R(2,73)                 1.0956         estimate D2E/DX2                !
 ! R8    R(3,4)                  1.3701         estimate D2E/DX2                !
 ! R9    R(3,5)                  1.4043         estimate D2E/DX2                !
 ! R10   R(4,26)                 1.4435         estimate D2E/DX2                !
 ! R11   R(4,39)                 1.4473         estimate D2E/DX2                !
 ! R12   R(5,6)                  1.4178         estimate D2E/DX2                !
 ! R13   R(5,13)                 1.3973         estimate D2E/DX2                !
 ! R14   R(6,8)                  1.51           estimate D2E/DX2                !
 ! R15   R(6,9)                  1.3709         estimate D2E/DX2                !
 ! R16   R(7,10)                 1.572          estimate D2E/DX2                !
 ! R17   R(7,23)                 1.5183         estimate D2E/DX2                !
 ! R18   R(7,28)                 1.5193         estimate D2E/DX2                !
 ! R19   R(7,67)                 1.0954         estimate D2E/DX2                !
 ! R20   R(8,63)                 1.5707         estimate D2E/DX2                !
 ! R21   R(8,71)                 1.0949         estimate D2E/DX2                !
 ! R22   R(9,11)                 1.4361         estimate D2E/DX2                !
 ! R23   R(9,61)                 1.4584         estimate D2E/DX2                !
 ! R24   R(10,21)                1.5017         estimate D2E/DX2                !
 ! R25   R(10,30)                1.5012         estimate D2E/DX2                !
 ! R26   R(10,68)                1.092          estimate D2E/DX2                !
 ! R27   R(11,12)                1.394          estimate D2E/DX2                !
 ! R28   R(11,59)                1.4379         estimate D2E/DX2                !
 ! R29   R(12,13)                1.4234         estimate D2E/DX2                !
 ! R30   R(12,15)                1.4281         estimate D2E/DX2                !
 ! R31   R(13,25)                1.4356         estimate D2E/DX2                !
 ! R32   R(14,16)                1.3884         estimate D2E/DX2                !
 ! R33   R(14,45)                1.4503         estimate D2E/DX2                !
 ! R34   R(14,55)                1.4289         estimate D2E/DX2                !
 ! R35   R(15,24)                1.4506         estimate D2E/DX2                !
 ! R36   R(15,57)                1.3888         estimate D2E/DX2                !
 ! R37   R(16,17)                1.4208         estimate D2E/DX2                !
 ! R38   R(16,58)                1.4432         estimate D2E/DX2                !
 ! R39   R(17,48)                1.3898         estimate D2E/DX2                !
 ! R40   R(17,56)                1.4299         estimate D2E/DX2                !
 ! R41   R(18,19)                1.4731         estimate D2E/DX2                !
 ! R42   R(18,40)                1.3781         estimate D2E/DX2                !
 ! R43   R(18,47)                1.4496         estimate D2E/DX2                !
 ! R44   R(19,20)                1.3857         estimate D2E/DX2                !
 ! R45   R(19,51)                1.4463         estimate D2E/DX2                !
 ! R46   R(20,45)                1.4706         estimate D2E/DX2                !
 ! R47   R(20,54)                1.4494         estimate D2E/DX2                !
 ! R48   R(21,22)                1.4205         estimate D2E/DX2                !
 ! R49   R(21,50)                1.3699         estimate D2E/DX2                !
 ! R50   R(22,23)                1.4301         estimate D2E/DX2                !
 ! R51   R(22,56)                1.3903         estimate D2E/DX2                !
 ! R52   R(23,24)                1.3773         estimate D2E/DX2                !
 ! R53   R(24,25)                1.4708         estimate D2E/DX2                !
 ! R54   R(25,26)                1.3886         estimate D2E/DX2                !
 ! R55   R(26,27)                1.4686         estimate D2E/DX2                !
 ! R56   R(27,28)                1.3785         estimate D2E/DX2                !
 ! R57   R(27,38)                1.4489         estimate D2E/DX2                !
 ! R58   R(28,29)                1.4316         estimate D2E/DX2                !
 ! R59   R(29,30)                1.4205         estimate D2E/DX2                !
 ! R60   R(29,35)                1.3889         estimate D2E/DX2                !
 ! R61   R(30,31)                1.3706         estimate D2E/DX2                !
 ! R62   R(31,32)                1.4201         estimate D2E/DX2                !
 ! R63   R(31,33)                1.5017         estimate D2E/DX2                !
 ! R64   R(32,34)                1.3903         estimate D2E/DX2                !
 ! R65   R(32,40)                1.4313         estimate D2E/DX2                !
 ! R66   R(33,37)                1.5718         estimate D2E/DX2                !
 ! R67   R(33,50)                1.5012         estimate D2E/DX2                !
 ! R68   R(33,69)                1.092          estimate D2E/DX2                !
 ! R69   R(34,35)                1.4306         estimate D2E/DX2                !
 ! R70   R(34,44)                1.4208         estimate D2E/DX2                !
 ! R71   R(35,36)                1.4219         estimate D2E/DX2                !
 ! R72   R(36,38)                1.3906         estimate D2E/DX2                !
 ! R73   R(36,43)                1.4347         estimate D2E/DX2                !
 ! R74   R(37,40)                1.518          estimate D2E/DX2                !
 ! R75   R(37,46)                1.5195         estimate D2E/DX2                !
 ! R76   R(37,70)                1.0953         estimate D2E/DX2                !
 ! R77   R(38,39)                1.4262         estimate D2E/DX2                !
 ! R78   R(39,41)                1.3742         estimate D2E/DX2                !
 ! R79   R(41,42)                1.4273         estimate D2E/DX2                !
 ! R80   R(42,43)                1.388          estimate D2E/DX2                !
 ! R81   R(42,66)                1.4342         estimate D2E/DX2                !
 ! R82   R(43,44)                1.444          estimate D2E/DX2                !
 ! R83   R(44,47)                1.3876         estimate D2E/DX2                !
 ! R84   R(45,46)                1.3789         estimate D2E/DX2                !
 ! R85   R(46,48)                1.4301         estimate D2E/DX2                !
 ! R86   R(47,49)                1.4277         estimate D2E/DX2                !
 ! R87   R(48,50)                1.4208         estimate D2E/DX2                !
 ! R88   R(49,51)                1.4206         estimate D2E/DX2                !
 ! R89   R(49,66)                1.3937         estimate D2E/DX2                !
 ! R90   R(51,52)                1.3887         estimate D2E/DX2                !
 ! R91   R(52,53)                1.4198         estimate D2E/DX2                !
 ! R92   R(52,64)                1.4291         estimate D2E/DX2                !
 ! R93   R(53,54)                1.3935         estimate D2E/DX2                !
 ! R94   R(53,62)                1.4254         estimate D2E/DX2                !
 ! R95   R(54,55)                1.4238         estimate D2E/DX2                !
 ! R96   R(55,60)                1.396          estimate D2E/DX2                !
 ! R97   R(56,57)                1.4208         estimate D2E/DX2                !
 ! R98   R(57,58)                1.4433         estimate D2E/DX2                !
 ! R99   R(58,59)                1.3834         estimate D2E/DX2                !
 ! R100  R(59,60)                1.4388         estimate D2E/DX2                !
 ! R101  R(60,61)                1.4359         estimate D2E/DX2                !
 ! R102  R(61,62)                1.37           estimate D2E/DX2                !
 ! R103  R(62,63)                1.5188         estimate D2E/DX2                !
 ! R104  R(63,64)                1.508          estimate D2E/DX2                !
 ! R105  R(63,72)                1.096          estimate D2E/DX2                !
 ! R106  R(64,65)                1.3555         estimate D2E/DX2                !
 ! R107  R(65,66)                1.428          estimate D2E/DX2                !
 ! A1    A(2,1,41)             114.9067         estimate D2E/DX2                !
 ! A2    A(2,1,65)             114.7731         estimate D2E/DX2                !
 ! A3    A(2,1,74)             108.2033         estimate D2E/DX2                !
 ! A4    A(41,1,65)             99.625          estimate D2E/DX2                !
 ! A5    A(41,1,74)            109.2206         estimate D2E/DX2                !
 ! A6    A(65,1,74)            109.8128         estimate D2E/DX2                !
 ! A7    A(1,2,3)              112.7514         estimate D2E/DX2                !
 ! A8    A(1,2,8)              118.6825         estimate D2E/DX2                !
 ! A9    A(1,2,73)             106.5517         estimate D2E/DX2                !
 ! A10   A(3,2,8)              103.5745         estimate D2E/DX2                !
 ! A11   A(3,2,73)             107.9036         estimate D2E/DX2                !
 ! A12   A(8,2,73)             106.8692         estimate D2E/DX2                !
 ! A13   A(2,3,4)              126.7828         estimate D2E/DX2                !
 ! A14   A(2,3,5)              111.1307         estimate D2E/DX2                !
 ! A15   A(4,3,5)              118.0187         estimate D2E/DX2                !
 ! A16   A(3,4,26)             123.3098         estimate D2E/DX2                !
 ! A17   A(3,4,39)             118.5578         estimate D2E/DX2                !
 ! A18   A(26,4,39)            108.9946         estimate D2E/DX2                !
 ! A19   A(3,5,6)              109.1073         estimate D2E/DX2                !
 ! A20   A(3,5,13)             119.9161         estimate D2E/DX2                !
 ! A21   A(6,5,13)             122.2303         estimate D2E/DX2                !
 ! A22   A(5,6,8)              110.9281         estimate D2E/DX2                !
 ! A23   A(5,6,9)              118.8284         estimate D2E/DX2                !
 ! A24   A(8,6,9)              125.238          estimate D2E/DX2                !
 ! A25   A(10,7,23)            104.4683         estimate D2E/DX2                !
 ! A26   A(10,7,28)            104.5707         estimate D2E/DX2                !
 ! A27   A(10,7,67)            112.4925         estimate D2E/DX2                !
 ! A28   A(23,7,28)            114.4822         estimate D2E/DX2                !
 ! A29   A(23,7,67)            110.3642         estimate D2E/DX2                !
 ! A30   A(28,7,67)            110.2596         estimate D2E/DX2                !
 ! A31   A(2,8,6)              103.8072         estimate D2E/DX2                !
 ! A32   A(2,8,63)             118.8583         estimate D2E/DX2                !
 ! A33   A(2,8,71)             107.3765         estimate D2E/DX2                !
 ! A34   A(6,8,63)             112.1374         estimate D2E/DX2                !
 ! A35   A(6,8,71)             108.2675         estimate D2E/DX2                !
 ! A36   A(63,8,71)            105.9859         estimate D2E/DX2                !
 ! A37   A(6,9,11)             120.2616         estimate D2E/DX2                !
 ! A38   A(6,9,61)             119.3437         estimate D2E/DX2                !
 ! A39   A(11,9,61)            107.452          estimate D2E/DX2                !
 ! A40   A(7,10,21)            104.7531         estimate D2E/DX2                !
 ! A41   A(7,10,30)            104.7261         estimate D2E/DX2                !
 ! A42   A(7,10,68)            113.0872         estimate D2E/DX2                !
 ! A43   A(21,10,30)           106.3394         estimate D2E/DX2                !
 ! A44   A(21,10,68)           113.5527         estimate D2E/DX2                !
 ! A45   A(30,10,68)           113.5454         estimate D2E/DX2                !
 ! A46   A(9,11,12)            120.3241         estimate D2E/DX2                !
 ! A47   A(9,11,59)            108.5211         estimate D2E/DX2                !
 ! A48   A(12,11,59)           118.8096         estimate D2E/DX2                !
 ! A49   A(11,12,13)           119.6723         estimate D2E/DX2                !
 ! A50   A(11,12,15)           121.311          estimate D2E/DX2                !
 ! A51   A(13,12,15)           107.4973         estimate D2E/DX2                !
 ! A52   A(5,13,12)            118.3506         estimate D2E/DX2                !
 ! A53   A(5,13,25)            122.2302         estimate D2E/DX2                !
 ! A54   A(12,13,25)           109.7585         estimate D2E/DX2                !
 ! A55   A(16,14,45)           122.0277         estimate D2E/DX2                !
 ! A56   A(16,14,55)           119.1848         estimate D2E/DX2                !
 ! A57   A(45,14,55)           109.4852         estimate D2E/DX2                !
 ! A58   A(12,15,24)           109.303          estimate D2E/DX2                !
 ! A59   A(12,15,57)           119.0325         estimate D2E/DX2                !
 ! A60   A(24,15,57)           122.0501         estimate D2E/DX2                !
 ! A61   A(14,16,17)           117.8683         estimate D2E/DX2                !
 ! A62   A(14,16,58)           119.7155         estimate D2E/DX2                !
 ! A63   A(17,16,58)           108.3768         estimate D2E/DX2                !
 ! A64   A(16,17,48)           119.8943         estimate D2E/DX2                !
 ! A65   A(16,17,56)           108.1466         estimate D2E/DX2                !
 ! A66   A(48,17,56)           118.963          estimate D2E/DX2                !
 ! A67   A(19,18,40)           129.0062         estimate D2E/DX2                !
 ! A68   A(19,18,47)           106.6419         estimate D2E/DX2                !
 ! A69   A(40,18,47)           118.7026         estimate D2E/DX2                !
 ! A70   A(18,19,20)           127.8951         estimate D2E/DX2                !
 ! A71   A(18,19,51)           106.6369         estimate D2E/DX2                !
 ! A72   A(20,19,51)           118.0048         estimate D2E/DX2                !
 ! A73   A(19,20,45)           127.3435         estimate D2E/DX2                !
 ! A74   A(19,20,54)           118.4842         estimate D2E/DX2                !
 ! A75   A(45,20,54)           106.8937         estimate D2E/DX2                !
 ! A76   A(10,21,22)           109.1381         estimate D2E/DX2                !
 ! A77   A(10,21,50)           123.9656         estimate D2E/DX2                !
 ! A78   A(22,21,50)           119.6287         estimate D2E/DX2                !
 ! A79   A(21,22,23)           110.1258         estimate D2E/DX2                !
 ! A80   A(21,22,56)           119.6261         estimate D2E/DX2                !
 ! A81   A(23,22,56)           122.0594         estimate D2E/DX2                !
 ! A82   A(7,23,22)            108.7956         estimate D2E/DX2                !
 ! A83   A(7,23,24)            129.9965         estimate D2E/DX2                !
 ! A84   A(22,23,24)           118.3485         estimate D2E/DX2                !
 ! A85   A(15,24,23)           118.9279         estimate D2E/DX2                !
 ! A86   A(15,24,25)           106.388          estimate D2E/DX2                !
 ! A87   A(23,24,25)           128.8292         estimate D2E/DX2                !
 ! A88   A(13,25,24)           106.9663         estimate D2E/DX2                !
 ! A89   A(13,25,26)           117.4858         estimate D2E/DX2                !
 ! A90   A(24,25,26)           128.0252         estimate D2E/DX2                !
 ! A91   A(4,26,25)            118.7342         estimate D2E/DX2                !
 ! A92   A(4,26,27)            107.3941         estimate D2E/DX2                !
 ! A93   A(25,26,27)           127.3732         estimate D2E/DX2                !
 ! A94   A(26,27,28)           128.9691         estimate D2E/DX2                !
 ! A95   A(26,27,38)           106.4614         estimate D2E/DX2                !
 ! A96   A(28,27,38)           119.1728         estimate D2E/DX2                !
 ! A97   A(7,28,27)            130.3587         estimate D2E/DX2                !
 ! A98   A(7,28,29)            108.5708         estimate D2E/DX2                !
 ! A99   A(27,28,29)           118.2747         estimate D2E/DX2                !
 ! A100  A(28,29,30)           110.1385         estimate D2E/DX2                !
 ! A101  A(28,29,35)           122.0467         estimate D2E/DX2                !
 ! A102  A(30,29,35)           119.6461         estimate D2E/DX2                !
 ! A103  A(10,30,29)           109.1581         estimate D2E/DX2                !
 ! A104  A(10,30,31)           123.951          estimate D2E/DX2                !
 ! A105  A(29,30,31)           119.6045         estimate D2E/DX2                !
 ! A106  A(30,31,32)           119.603          estimate D2E/DX2                !
 ! A107  A(30,31,33)           123.9484         estimate D2E/DX2                !
 ! A108  A(32,31,33)           109.1788         estimate D2E/DX2                !
 ! A109  A(31,32,34)           119.5858         estimate D2E/DX2                !
 ! A110  A(31,32,40)           110.0434         estimate D2E/DX2                !
 ! A111  A(34,32,40)           122.2053         estimate D2E/DX2                !
 ! A112  A(31,33,37)           104.7743         estimate D2E/DX2                !
 ! A113  A(31,33,50)           106.3165         estimate D2E/DX2                !
 ! A114  A(31,33,69)           113.5291         estimate D2E/DX2                !
 ! A115  A(37,33,50)           104.733          estimate D2E/DX2                !
 ! A116  A(37,33,69)           113.1012         estimate D2E/DX2                !
 ! A117  A(50,33,69)           113.5513         estimate D2E/DX2                !
 ! A118  A(32,34,35)           118.9623         estimate D2E/DX2                !
 ! A119  A(32,34,44)           119.8187         estimate D2E/DX2                !
 ! A120  A(35,34,44)           107.9633         estimate D2E/DX2                !
 ! A121  A(29,35,34)           118.843          estimate D2E/DX2                !
 ! A122  A(29,35,36)           119.809          estimate D2E/DX2                !
 ! A123  A(34,35,36)           108.031          estimate D2E/DX2                !
 ! A124  A(35,36,38)           118.0794         estimate D2E/DX2                !
 ! A125  A(35,36,43)           108.567          estimate D2E/DX2                !
 ! A126  A(38,36,43)           118.872          estimate D2E/DX2                !
 ! A127  A(33,37,40)           104.4515         estimate D2E/DX2                !
 ! A128  A(33,37,46)           104.5559         estimate D2E/DX2                !
 ! A129  A(33,37,70)           112.5491         estimate D2E/DX2                !
 ! A130  A(40,37,46)           114.3269         estimate D2E/DX2                !
 ! A131  A(40,37,70)           110.4084         estimate D2E/DX2                !
 ! A132  A(46,37,70)           110.3386         estimate D2E/DX2                !
 ! A133  A(27,38,36)           121.6904         estimate D2E/DX2                !
 ! A134  A(27,38,39)           109.9771         estimate D2E/DX2                !
 ! A135  A(36,38,39)           119.4221         estimate D2E/DX2                !
 ! A136  A(4,39,38)            107.0936         estimate D2E/DX2                !
 ! A137  A(4,39,41)            119.9203         estimate D2E/DX2                !
 ! A138  A(38,39,41)           121.8632         estimate D2E/DX2                !
 ! A139  A(18,40,32)           118.3171         estimate D2E/DX2                !
 ! A140  A(18,40,37)           130.0266         estimate D2E/DX2                !
 ! A141  A(32,40,37)           108.799          estimate D2E/DX2                !
 ! A142  A(1,41,39)            124.7112         estimate D2E/DX2                !
 ! A143  A(1,41,42)            109.8292         estimate D2E/DX2                !
 ! A144  A(39,41,42)           117.577          estimate D2E/DX2                !
 ! A145  A(41,42,43)           121.4873         estimate D2E/DX2                !
 ! A146  A(41,42,66)           107.5028         estimate D2E/DX2                !
 ! A147  A(43,42,66)           119.6366         estimate D2E/DX2                !
 ! A148  A(36,43,42)           119.3261         estimate D2E/DX2                !
 ! A149  A(36,43,44)           106.6526         estimate D2E/DX2                !
 ! A150  A(42,43,44)           120.2961         estimate D2E/DX2                !
 ! A151  A(34,44,43)           108.3778         estimate D2E/DX2                !
 ! A152  A(34,44,47)           117.68           estimate D2E/DX2                !
 ! A153  A(43,44,47)           119.7485         estimate D2E/DX2                !
 ! A154  A(14,45,20)           106.4628         estimate D2E/DX2                !
 ! A155  A(14,45,46)           118.9223         estimate D2E/DX2                !
 ! A156  A(20,45,46)           128.9797         estimate D2E/DX2                !
 ! A157  A(37,46,45)           130.3069         estimate D2E/DX2                !
 ! A158  A(37,46,48)           108.623          estimate D2E/DX2                !
 ! A159  A(45,46,48)           118.3255         estimate D2E/DX2                !
 ! A160  A(18,47,44)           122.4416         estimate D2E/DX2                !
 ! A161  A(18,47,49)           109.1897         estimate D2E/DX2                !
 ! A162  A(44,47,49)           118.9056         estimate D2E/DX2                !
 ! A163  A(17,48,46)           122.0824         estimate D2E/DX2                !
 ! A164  A(17,48,50)           119.5924         estimate D2E/DX2                !
 ! A165  A(46,48,50)           110.1988         estimate D2E/DX2                !
 ! A166  A(47,49,51)           107.8881         estimate D2E/DX2                !
 ! A167  A(47,49,66)           121.314          estimate D2E/DX2                !
 ! A168  A(51,49,66)           119.6922         estimate D2E/DX2                !
 ! A169  A(21,50,33)           123.9631         estimate D2E/DX2                !
 ! A170  A(21,50,48)           119.6358         estimate D2E/DX2                !
 ! A171  A(33,50,48)           109.1457         estimate D2E/DX2                !
 ! A172  A(19,51,49)           109.5223         estimate D2E/DX2                !
 ! A173  A(19,51,52)           123.079          estimate D2E/DX2                !
 ! A174  A(49,51,52)           117.7047         estimate D2E/DX2                !
 ! A175  A(51,52,53)           118.903          estimate D2E/DX2                !
 ! A176  A(51,52,64)           122.2274         estimate D2E/DX2                !
 ! A177  A(53,52,64)           108.6041         estimate D2E/DX2                !
 ! A178  A(52,53,54)           118.5004         estimate D2E/DX2                !
 ! A179  A(52,53,62)           108.4113         estimate D2E/DX2                !
 ! A180  A(54,53,62)           122.6132         estimate D2E/DX2                !
 ! A181  A(20,54,53)           122.7764         estimate D2E/DX2                !
 ! A182  A(20,54,55)           109.37           estimate D2E/DX2                !
 ! A183  A(53,54,55)           118.023          estimate D2E/DX2                !
 ! A184  A(14,55,54)           107.6895         estimate D2E/DX2                !
 ! A185  A(14,55,60)           121.1211         estimate D2E/DX2                !
 ! A186  A(54,55,60)           119.885          estimate D2E/DX2                !
 ! A187  A(17,56,22)           118.9009         estimate D2E/DX2                !
 ! A188  A(17,56,57)           108.1168         estimate D2E/DX2                !
 ! A189  A(22,56,57)           119.9172         estimate D2E/DX2                !
 ! A190  A(15,57,56)           117.7927         estimate D2E/DX2                !
 ! A191  A(15,57,58)           119.6773         estimate D2E/DX2                !
 ! A192  A(56,57,58)           108.3903         estimate D2E/DX2                !
 ! A193  A(16,58,57)           106.5898         estimate D2E/DX2                !
 ! A194  A(16,58,59)           119.9464         estimate D2E/DX2                !
 ! A195  A(57,58,59)           120.1383         estimate D2E/DX2                !
 ! A196  A(11,59,58)           120.0752         estimate D2E/DX2                !
 ! A197  A(11,59,60)           107.6543         estimate D2E/DX2                !
 ! A198  A(58,59,60)           120.296          estimate D2E/DX2                !
 ! A199  A(55,60,59)           118.6955         estimate D2E/DX2                !
 ! A200  A(55,60,61)           120.2975         estimate D2E/DX2                !
 ! A201  A(59,60,61)           108.4167         estimate D2E/DX2                !
 ! A202  A(9,61,60)            107.5522         estimate D2E/DX2                !
 ! A203  A(9,61,62)            118.7826         estimate D2E/DX2                !
 ! A204  A(60,61,62)           120.3352         estimate D2E/DX2                !
 ! A205  A(53,62,61)           118.4916         estimate D2E/DX2                !
 ! A206  A(53,62,63)           110.2371         estimate D2E/DX2                !
 ! A207  A(61,62,63)           124.3857         estimate D2E/DX2                !
 ! A208  A(8,63,62)            115.2298         estimate D2E/DX2                !
 ! A209  A(8,63,64)            114.4569         estimate D2E/DX2                !
 ! A210  A(8,63,72)            107.4555         estimate D2E/DX2                !
 ! A211  A(62,63,64)           100.4354         estimate D2E/DX2                !
 ! A212  A(62,63,72)           109.4328         estimate D2E/DX2                !
 ! A213  A(64,63,72)           109.6353         estimate D2E/DX2                !
 ! A214  A(52,64,63)           110.1956         estimate D2E/DX2                !
 ! A215  A(52,64,65)           119.4537         estimate D2E/DX2                !
 ! A216  A(63,64,65)           125.0615         estimate D2E/DX2                !
 ! A217  A(1,65,64)            124.9535         estimate D2E/DX2                !
 ! A218  A(1,65,66)            110.252          estimate D2E/DX2                !
 ! A219  A(64,65,66)           119.3811         estimate D2E/DX2                !
 ! A220  A(42,66,49)           119.2514         estimate D2E/DX2                !
 ! A221  A(42,66,65)           108.3511         estimate D2E/DX2                !
 ! A222  A(49,66,65)           121.1457         estimate D2E/DX2                !
 ! D1    D(41,1,2,3)            -9.3608         estimate D2E/DX2                !
 ! D2    D(41,1,2,8)          -130.6622         estimate D2E/DX2                !
 ! D3    D(41,1,2,73)          108.8293         estimate D2E/DX2                !
 ! D4    D(65,1,2,3)           105.3042         estimate D2E/DX2                !
 ! D5    D(65,1,2,8)           -15.9972         estimate D2E/DX2                !
 ! D6    D(65,1,2,73)         -136.5057         estimate D2E/DX2                !
 ! D7    D(74,1,2,3)          -131.6896         estimate D2E/DX2                !
 ! D8    D(74,1,2,8)           107.009          estimate D2E/DX2                !
 ! D9    D(74,1,2,73)          -13.4996         estimate D2E/DX2                !
 ! D10   D(2,1,41,39)           -3.7777         estimate D2E/DX2                !
 ! D11   D(2,1,41,42)          144.2663         estimate D2E/DX2                !
 ! D12   D(65,1,41,39)        -126.962          estimate D2E/DX2                !
 ! D13   D(65,1,41,42)          21.0821         estimate D2E/DX2                !
 ! D14   D(74,1,41,39)         118.0008         estimate D2E/DX2                !
 ! D15   D(74,1,41,42)         -93.9551         estimate D2E/DX2                !
 ! D16   D(2,1,65,64)           12.6139         estimate D2E/DX2                !
 ! D17   D(2,1,65,66)         -141.0152         estimate D2E/DX2                !
 ! D18   D(41,1,65,64)         135.8926         estimate D2E/DX2                !
 ! D19   D(41,1,65,66)         -17.7365         estimate D2E/DX2                !
 ! D20   D(74,1,65,64)        -109.5242         estimate D2E/DX2                !
 ! D21   D(74,1,65,66)          96.8466         estimate D2E/DX2                !
 ! D22   D(1,2,3,4)             16.534          estimate D2E/DX2                !
 ! D23   D(1,2,3,5)           -140.0666         estimate D2E/DX2                !
 ! D24   D(8,2,3,4)            146.0776         estimate D2E/DX2                !
 ! D25   D(8,2,3,5)            -10.523          estimate D2E/DX2                !
 ! D26   D(73,2,3,4)          -100.8607         estimate D2E/DX2                !
 ! D27   D(73,2,3,5)           102.5387         estimate D2E/DX2                !
 ! D28   D(1,2,8,6)            130.1386         estimate D2E/DX2                !
 ! D29   D(1,2,8,63)             4.7939         estimate D2E/DX2                !
 ! D30   D(1,2,8,71)          -115.3344         estimate D2E/DX2                !
 ! D31   D(3,2,8,6)              4.2939         estimate D2E/DX2                !
 ! D32   D(3,2,8,63)          -121.0509         estimate D2E/DX2                !
 ! D33   D(3,2,8,71)           118.8208         estimate D2E/DX2                !
 ! D34   D(73,2,8,6)          -109.5151         estimate D2E/DX2                !
 ! D35   D(73,2,8,63)          125.1401         estimate D2E/DX2                !
 ! D36   D(73,2,8,71)            5.0118         estimate D2E/DX2                !
 ! D37   D(2,3,4,26)          -152.365          estimate D2E/DX2                !
 ! D38   D(2,3,4,39)            -9.1339         estimate D2E/DX2                !
 ! D39   D(5,3,4,26)             2.8247         estimate D2E/DX2                !
 ! D40   D(5,3,4,39)           146.0557         estimate D2E/DX2                !
 ! D41   D(2,3,5,6)             12.9178         estimate D2E/DX2                !
 ! D42   D(2,3,5,13)           161.1858         estimate D2E/DX2                !
 ! D43   D(4,3,5,6)           -145.9635         estimate D2E/DX2                !
 ! D44   D(4,3,5,13)             2.3046         estimate D2E/DX2                !
 ! D45   D(3,4,26,25)           -4.6467         estimate D2E/DX2                !
 ! D46   D(3,4,26,27)          149.1424         estimate D2E/DX2                !
 ! D47   D(39,4,26,25)        -150.8643         estimate D2E/DX2                !
 ! D48   D(39,4,26,27)           2.9247         estimate D2E/DX2                !
 ! D49   D(3,4,39,38)         -150.5685         estimate D2E/DX2                !
 ! D50   D(3,4,39,41)           -6.0609         estimate D2E/DX2                !
 ! D51   D(26,4,39,38)          -2.5103         estimate D2E/DX2                !
 ! D52   D(26,4,39,41)         141.9973         estimate D2E/DX2                !
 ! D53   D(3,5,6,8)             -9.8152         estimate D2E/DX2                !
 ! D54   D(3,5,6,9)            146.4756         estimate D2E/DX2                !
 ! D55   D(13,5,6,8)          -157.2059         estimate D2E/DX2                !
 ! D56   D(13,5,6,9)            -0.9152         estimate D2E/DX2                !
 ! D57   D(3,5,13,12)         -148.3061         estimate D2E/DX2                !
 ! D58   D(3,5,13,25)           -5.7176         estimate D2E/DX2                !
 ! D59   D(6,5,13,12)           -4.2856         estimate D2E/DX2                !
 ! D60   D(6,5,13,25)          138.3028         estimate D2E/DX2                !
 ! D61   D(5,6,8,2)              2.9939         estimate D2E/DX2                !
 ! D62   D(5,6,8,63)           132.5281         estimate D2E/DX2                !
 ! D63   D(5,6,8,71)          -110.896          estimate D2E/DX2                !
 ! D64   D(9,6,8,2)           -151.4565         estimate D2E/DX2                !
 ! D65   D(9,6,8,63)           -21.9223         estimate D2E/DX2                !
 ! D66   D(9,6,8,71)            94.6536         estimate D2E/DX2                !
 ! D67   D(5,6,9,11)             4.4385         estimate D2E/DX2                !
 ! D68   D(5,6,9,61)          -132.1415         estimate D2E/DX2                !
 ! D69   D(8,6,9,11)           157.0626         estimate D2E/DX2                !
 ! D70   D(8,6,9,61)            20.4826         estimate D2E/DX2                !
 ! D71   D(23,7,10,21)           4.7201         estimate D2E/DX2                !
 ! D72   D(23,7,10,30)         116.4364         estimate D2E/DX2                !
 ! D73   D(23,7,10,68)        -119.4357         estimate D2E/DX2                !
 ! D74   D(28,7,10,21)        -115.8956         estimate D2E/DX2                !
 ! D75   D(28,7,10,30)          -4.1793         estimate D2E/DX2                !
 ! D76   D(28,7,10,68)         119.9487         estimate D2E/DX2                !
 ! D77   D(67,7,10,21)         124.4434         estimate D2E/DX2                !
 ! D78   D(67,7,10,30)        -123.8402         estimate D2E/DX2                !
 ! D79   D(67,7,10,68)           0.2877         estimate D2E/DX2                !
 ! D80   D(10,7,23,22)           5.3694         estimate D2E/DX2                !
 ! D81   D(10,7,23,24)        -154.7288         estimate D2E/DX2                !
 ! D82   D(28,7,23,22)         119.1337         estimate D2E/DX2                !
 ! D83   D(28,7,23,24)         -40.9645         estimate D2E/DX2                !
 ! D84   D(67,7,23,22)        -115.7758         estimate D2E/DX2                !
 ! D85   D(67,7,23,24)          84.126          estimate D2E/DX2                !
 ! D86   D(10,7,28,27)         154.1579         estimate D2E/DX2                !
 ! D87   D(10,7,28,29)          -6.1148         estimate D2E/DX2                !
 ! D88   D(23,7,28,27)          40.4539         estimate D2E/DX2                !
 ! D89   D(23,7,28,29)        -119.8188         estimate D2E/DX2                !
 ! D90   D(67,7,28,27)         -84.6916         estimate D2E/DX2                !
 ! D91   D(67,7,28,29)         115.0356         estimate D2E/DX2                !
 ! D92   D(2,8,63,62)          126.2489         estimate D2E/DX2                !
 ! D93   D(2,8,63,64)           10.5098         estimate D2E/DX2                !
 ! D94   D(2,8,63,72)         -111.4949         estimate D2E/DX2                !
 ! D95   D(6,8,63,62)            5.0258         estimate D2E/DX2                !
 ! D96   D(6,8,63,64)         -110.7133         estimate D2E/DX2                !
 ! D97   D(6,8,63,72)          127.282          estimate D2E/DX2                !
 ! D98   D(71,8,63,62)        -112.9149         estimate D2E/DX2                !
 ! D99   D(71,8,63,64)         131.3461         estimate D2E/DX2                !
 ! D100  D(71,8,63,72)           9.3413         estimate D2E/DX2                !
 ! D101  D(6,9,11,12)           -2.7549         estimate D2E/DX2                !
 ! D102  D(6,9,11,59)         -144.4504         estimate D2E/DX2                !
 ! D103  D(61,9,11,12)         138.3378         estimate D2E/DX2                !
 ! D104  D(61,9,11,59)          -3.3577         estimate D2E/DX2                !
 ! D105  D(6,9,61,60)          140.8885         estimate D2E/DX2                !
 ! D106  D(6,9,61,62)           -0.2032         estimate D2E/DX2                !
 ! D107  D(11,9,61,60)          -0.6253         estimate D2E/DX2                !
 ! D108  D(11,9,61,62)        -141.7171         estimate D2E/DX2                !
 ! D109  D(7,10,21,22)         -13.4282         estimate D2E/DX2                !
 ! D110  D(7,10,21,50)         136.4234         estimate D2E/DX2                !
 ! D111  D(30,10,21,22)       -123.9846         estimate D2E/DX2                !
 ! D112  D(30,10,21,50)         25.867          estimate D2E/DX2                !
 ! D113  D(68,10,21,22)        110.4301         estimate D2E/DX2                !
 ! D114  D(68,10,21,50)        -99.7183         estimate D2E/DX2                !
 ! D115  D(7,10,30,29)          13.2804         estimate D2E/DX2                !
 ! D116  D(7,10,30,31)        -136.5294         estimate D2E/DX2                !
 ! D117  D(21,10,30,29)        123.8558         estimate D2E/DX2                !
 ! D118  D(21,10,30,31)        -25.954          estimate D2E/DX2                !
 ! D119  D(68,10,30,29)       -110.5544         estimate D2E/DX2                !
 ! D120  D(68,10,30,31)         99.6358         estimate D2E/DX2                !
 ! D121  D(9,11,12,13)          -2.5464         estimate D2E/DX2                !
 ! D122  D(9,11,12,15)        -141.2743         estimate D2E/DX2                !
 ! D123  D(59,11,12,13)        135.3279         estimate D2E/DX2                !
 ! D124  D(59,11,12,15)         -3.4            estimate D2E/DX2                !
 ! D125  D(9,11,59,58)         148.8124         estimate D2E/DX2                !
 ! D126  D(9,11,59,60)           6.0561         estimate D2E/DX2                !
 ! D127  D(12,11,59,58)          6.4463         estimate D2E/DX2                !
 ! D128  D(12,11,59,60)       -136.31           estimate D2E/DX2                !
 ! D129  D(11,12,13,5)           5.9213         estimate D2E/DX2                !
 ! D130  D(11,12,13,25)       -140.9808         estimate D2E/DX2                !
 ! D131  D(15,12,13,5)         149.6999         estimate D2E/DX2                !
 ! D132  D(15,12,13,25)          2.7978         estimate D2E/DX2                !
 ! D133  D(11,12,15,24)        141.6133         estimate D2E/DX2                !
 ! D134  D(11,12,15,57)         -5.2622         estimate D2E/DX2                !
 ! D135  D(13,12,15,24)         -1.4493         estimate D2E/DX2                !
 ! D136  D(13,12,15,57)       -148.3248         estimate D2E/DX2                !
 ! D137  D(5,13,25,24)        -148.4092         estimate D2E/DX2                !
 ! D138  D(5,13,25,26)           3.8062         estimate D2E/DX2                !
 ! D139  D(12,13,25,24)         -3.0279         estimate D2E/DX2                !
 ! D140  D(12,13,25,26)        149.1874         estimate D2E/DX2                !
 ! D141  D(45,14,16,17)         -3.4761         estimate D2E/DX2                !
 ! D142  D(45,14,16,58)        131.9556         estimate D2E/DX2                !
 ! D143  D(55,14,16,17)       -146.6105         estimate D2E/DX2                !
 ! D144  D(55,14,16,58)        -11.1788         estimate D2E/DX2                !
 ! D145  D(16,14,45,20)       -145.9421         estimate D2E/DX2                !
 ! D146  D(16,14,45,46)          9.9369         estimate D2E/DX2                !
 ! D147  D(55,14,45,20)          0.306          estimate D2E/DX2                !
 ! D148  D(55,14,45,46)        156.1849         estimate D2E/DX2                !
 ! D149  D(16,14,55,54)        149.009          estimate D2E/DX2                !
 ! D150  D(16,14,55,60)          5.5461         estimate D2E/DX2                !
 ! D151  D(45,14,55,54)          1.6602         estimate D2E/DX2                !
 ! D152  D(45,14,55,60)       -141.8026         estimate D2E/DX2                !
 ! D153  D(12,15,24,23)       -155.7935         estimate D2E/DX2                !
 ! D154  D(12,15,24,25)         -0.3908         estimate D2E/DX2                !
 ! D155  D(57,15,24,23)        -10.1065         estimate D2E/DX2                !
 ! D156  D(57,15,24,25)        145.2962         estimate D2E/DX2                !
 ! D157  D(12,15,57,56)        146.1067         estimate D2E/DX2                !
 ! D158  D(12,15,57,58)         10.8038         estimate D2E/DX2                !
 ! D159  D(24,15,57,56)          3.5866         estimate D2E/DX2                !
 ! D160  D(24,15,57,58)       -131.7163         estimate D2E/DX2                !
 ! D161  D(14,16,17,48)         -4.6696         estimate D2E/DX2                !
 ! D162  D(14,16,17,56)        136.2463         estimate D2E/DX2                !
 ! D163  D(58,16,17,48)       -144.7116         estimate D2E/DX2                !
 ! D164  D(58,16,17,56)         -3.7957         estimate D2E/DX2                !
 ! D165  D(14,16,58,57)       -133.1394         estimate D2E/DX2                !
 ! D166  D(14,16,58,59)          7.7792         estimate D2E/DX2                !
 ! D167  D(17,16,58,57)          6.0389         estimate D2E/DX2                !
 ! D168  D(17,16,58,59)        146.9574         estimate D2E/DX2                !
 ! D169  D(16,17,48,46)          6.6428         estimate D2E/DX2                !
 ! D170  D(16,17,48,50)        152.1951         estimate D2E/DX2                !
 ! D171  D(56,17,48,46)       -130.1419         estimate D2E/DX2                !
 ! D172  D(56,17,48,50)         15.4104         estimate D2E/DX2                !
 ! D173  D(16,17,56,22)       -141.2611         estimate D2E/DX2                !
 ! D174  D(16,17,56,57)          0.0025         estimate D2E/DX2                !
 ! D175  D(48,17,56,22)          0.0784         estimate D2E/DX2                !
 ! D176  D(48,17,56,57)        141.342          estimate D2E/DX2                !
 ! D177  D(40,18,19,20)          5.6422         estimate D2E/DX2                !
 ! D178  D(40,18,19,51)        154.2462         estimate D2E/DX2                !
 ! D179  D(47,18,19,20)       -146.8766         estimate D2E/DX2                !
 ! D180  D(47,18,19,51)          1.7275         estimate D2E/DX2                !
 ! D181  D(19,18,40,32)       -141.9146         estimate D2E/DX2                !
 ! D182  D(19,18,40,37)         16.6128         estimate D2E/DX2                !
 ! D183  D(47,18,40,32)          7.816          estimate D2E/DX2                !
 ! D184  D(47,18,40,37)        166.3434         estimate D2E/DX2                !
 ! D185  D(19,18,47,44)        146.2782         estimate D2E/DX2                !
 ! D186  D(19,18,47,49)          0.4177         estimate D2E/DX2                !
 ! D187  D(40,18,47,44)         -9.5909         estimate D2E/DX2                !
 ! D188  D(40,18,47,49)       -155.4514         estimate D2E/DX2                !
 ! D189  D(18,19,20,45)          0.059          estimate D2E/DX2                !
 ! D190  D(18,19,20,54)        146.1438         estimate D2E/DX2                !
 ! D191  D(51,19,20,45)       -145.5153         estimate D2E/DX2                !
 ! D192  D(51,19,20,54)          0.5695         estimate D2E/DX2                !
 ! D193  D(18,19,51,49)         -3.292          estimate D2E/DX2                !
 ! D194  D(18,19,51,52)       -148.3402         estimate D2E/DX2                !
 ! D195  D(20,19,51,49)        148.9577         estimate D2E/DX2                !
 ! D196  D(20,19,51,52)          3.9095         estimate D2E/DX2                !
 ! D197  D(19,20,45,14)        147.0557         estimate D2E/DX2                !
 ! D198  D(19,20,45,46)         -5.5484         estimate D2E/DX2                !
 ! D199  D(54,20,45,14)         -2.1111         estimate D2E/DX2                !
 ! D200  D(54,20,45,46)       -154.7152         estimate D2E/DX2                !
 ! D201  D(19,20,54,53)         -4.2289         estimate D2E/DX2                !
 ! D202  D(19,20,54,55)       -149.1821         estimate D2E/DX2                !
 ! D203  D(45,20,54,53)        148.1517         estimate D2E/DX2                !
 ! D204  D(45,20,54,55)          3.1985         estimate D2E/DX2                !
 ! D205  D(10,21,22,23)         17.6525         estimate D2E/DX2                !
 ! D206  D(10,21,22,56)        166.8272         estimate D2E/DX2                !
 ! D207  D(50,21,22,23)       -133.7142         estimate D2E/DX2                !
 ! D208  D(50,21,22,56)         15.4606         estimate D2E/DX2                !
 ! D209  D(10,21,50,33)          0.1727         estimate D2E/DX2                !
 ! D210  D(10,21,50,48)       -146.772          estimate D2E/DX2                !
 ! D211  D(22,21,50,33)        147.0895         estimate D2E/DX2                !
 ! D212  D(22,21,50,48)          0.1448         estimate D2E/DX2                !
 ! D213  D(21,22,23,7)         -14.3198         estimate D2E/DX2                !
 ! D214  D(21,22,23,24)        148.4436         estimate D2E/DX2                !
 ! D215  D(56,22,23,7)        -162.6122         estimate D2E/DX2                !
 ! D216  D(56,22,23,24)          0.1512         estimate D2E/DX2                !
 ! D217  D(21,22,56,17)        -15.4652         estimate D2E/DX2                !
 ! D218  D(21,22,56,57)       -152.1391         estimate D2E/DX2                !
 ! D219  D(23,22,56,17)        129.9442         estimate D2E/DX2                !
 ! D220  D(23,22,56,57)         -6.7298         estimate D2E/DX2                !
 ! D221  D(7,23,24,15)         166.4736         estimate D2E/DX2                !
 ! D222  D(7,23,24,25)          17.3111         estimate D2E/DX2                !
 ! D223  D(22,23,24,15)          7.9532         estimate D2E/DX2                !
 ! D224  D(22,23,24,25)       -141.2094         estimate D2E/DX2                !
 ! D225  D(15,24,25,13)          2.0594         estimate D2E/DX2                !
 ! D226  D(15,24,25,26)       -146.275          estimate D2E/DX2                !
 ! D227  D(23,24,25,13)        154.1778         estimate D2E/DX2                !
 ! D228  D(23,24,25,26)          5.8435         estimate D2E/DX2                !
 ! D229  D(13,25,26,4)           1.2288         estimate D2E/DX2                !
 ! D230  D(13,25,26,27)       -146.7411         estimate D2E/DX2                !
 ! D231  D(24,25,26,4)         146.757          estimate D2E/DX2                !
 ! D232  D(24,25,26,27)         -1.2129         estimate D2E/DX2                !
 ! D233  D(4,26,27,28)        -155.4097         estimate D2E/DX2                !
 ! D234  D(4,26,27,38)          -2.1876         estimate D2E/DX2                !
 ! D235  D(25,26,27,28)         -4.5756         estimate D2E/DX2                !
 ! D236  D(25,26,27,38)        148.6465         estimate D2E/DX2                !
 ! D237  D(26,27,28,7)         -16.7452         estimate D2E/DX2                !
 ! D238  D(26,27,28,29)        141.9508         estimate D2E/DX2                !
 ! D239  D(38,27,28,7)        -167.0864         estimate D2E/DX2                !
 ! D240  D(38,27,28,29)         -8.3904         estimate D2E/DX2                !
 ! D241  D(26,27,38,36)       -146.3388         estimate D2E/DX2                !
 ! D242  D(26,27,38,39)          0.6651         estimate D2E/DX2                !
 ! D243  D(28,27,38,36)         10.0098         estimate D2E/DX2                !
 ! D244  D(28,27,38,39)        157.0138         estimate D2E/DX2                !
 ! D245  D(7,28,29,30)          15.0108         estimate D2E/DX2                !
 ! D246  D(7,28,29,35)         163.3457         estimate D2E/DX2                !
 ! D247  D(27,28,29,30)       -148.0081         estimate D2E/DX2                !
 ! D248  D(27,28,29,35)          0.3268         estimate D2E/DX2                !
 ! D249  D(28,29,30,10)        -18.0069         estimate D2E/DX2                !
 ! D250  D(28,29,30,31)        133.3226         estimate D2E/DX2                !
 ! D251  D(35,29,30,10)       -167.2112         estimate D2E/DX2                !
 ! D252  D(35,29,30,31)        -15.8816         estimate D2E/DX2                !
 ! D253  D(28,29,35,34)       -129.6165         estimate D2E/DX2                !
 ! D254  D(28,29,35,36)          6.6677         estimate D2E/DX2                !
 ! D255  D(30,29,35,34)         15.8356         estimate D2E/DX2                !
 ! D256  D(30,29,35,36)        152.1199         estimate D2E/DX2                !
 ! D257  D(10,30,31,32)        146.9488         estimate D2E/DX2                !
 ! D258  D(10,30,31,33)          0.0241         estimate D2E/DX2                !
 ! D259  D(29,30,31,32)          0.0653         estimate D2E/DX2                !
 ! D260  D(29,30,31,33)       -146.8594         estimate D2E/DX2                !
 ! D261  D(30,31,32,34)         15.6423         estimate D2E/DX2                !
 ! D262  D(30,31,32,40)       -133.6187         estimate D2E/DX2                !
 ! D263  D(33,31,32,34)        167.0015         estimate D2E/DX2                !
 ! D264  D(33,31,32,40)         17.7405         estimate D2E/DX2                !
 ! D265  D(30,31,33,37)        136.5516         estimate D2E/DX2                !
 ! D266  D(30,31,33,50)         25.9877         estimate D2E/DX2                !
 ! D267  D(30,31,33,69)        -99.5721         estimate D2E/DX2                !
 ! D268  D(32,31,33,37)        -13.2903         estimate D2E/DX2                !
 ! D269  D(32,31,33,50)       -123.8542         estimate D2E/DX2                !
 ! D270  D(32,31,33,69)        110.586          estimate D2E/DX2                !
 ! D271  D(31,32,34,35)        -15.4672         estimate D2E/DX2                !
 ! D272  D(31,32,34,44)       -151.8101         estimate D2E/DX2                !
 ! D273  D(40,32,34,35)        129.958          estimate D2E/DX2                !
 ! D274  D(40,32,34,44)         -6.3849         estimate D2E/DX2                !
 ! D275  D(31,32,40,18)        148.152          estimate D2E/DX2                !
 ! D276  D(31,32,40,37)        -14.6244         estimate D2E/DX2                !
 ! D277  D(34,32,40,18)         -0.1591         estimate D2E/DX2                !
 ! D278  D(34,32,40,37)       -162.9355         estimate D2E/DX2                !
 ! D279  D(31,33,37,40)          4.4017         estimate D2E/DX2                !
 ! D280  D(31,33,37,46)       -116.0244         estimate D2E/DX2                !
 ! D281  D(31,33,37,70)        124.198          estimate D2E/DX2                !
 ! D282  D(50,33,37,40)        116.1036         estimate D2E/DX2                !
 ! D283  D(50,33,37,46)         -4.3225         estimate D2E/DX2                !
 ! D284  D(50,33,37,70)       -124.1            estimate D2E/DX2                !
 ! D285  D(69,33,37,40)       -119.7479         estimate D2E/DX2                !
 ! D286  D(69,33,37,46)        119.826          estimate D2E/DX2                !
 ! D287  D(69,33,37,70)          0.0485         estimate D2E/DX2                !
 ! D288  D(31,33,50,21)        -26.0843         estimate D2E/DX2                !
 ! D289  D(31,33,50,48)        123.7929         estimate D2E/DX2                !
 ! D290  D(37,33,50,21)       -136.6772         estimate D2E/DX2                !
 ! D291  D(37,33,50,48)         13.2            estimate D2E/DX2                !
 ! D292  D(69,33,50,21)         99.462          estimate D2E/DX2                !
 ! D293  D(69,33,50,48)       -110.6608         estimate D2E/DX2                !
 ! D294  D(32,34,35,29)         -0.2167         estimate D2E/DX2                !
 ! D295  D(32,34,35,36)       -141.1214         estimate D2E/DX2                !
 ! D296  D(44,34,35,29)        140.7601         estimate D2E/DX2                !
 ! D297  D(44,34,35,36)         -0.1445         estimate D2E/DX2                !
 ! D298  D(32,34,44,43)        144.616          estimate D2E/DX2                !
 ! D299  D(32,34,44,47)          4.7351         estimate D2E/DX2                !
 ! D300  D(35,34,44,43)          4.0328         estimate D2E/DX2                !
 ! D301  D(35,34,44,47)       -135.8481         estimate D2E/DX2                !
 ! D302  D(29,35,36,38)         -5.1309         estimate D2E/DX2                !
 ! D303  D(29,35,36,43)       -144.2889         estimate D2E/DX2                !
 ! D304  D(34,35,36,38)        135.3293         estimate D2E/DX2                !
 ! D305  D(34,35,36,43)         -3.8287         estimate D2E/DX2                !
 ! D306  D(35,36,38,27)         -3.0451         estimate D2E/DX2                !
 ! D307  D(35,36,38,39)       -147.0583         estimate D2E/DX2                !
 ! D308  D(43,36,38,27)        131.8879         estimate D2E/DX2                !
 ! D309  D(43,36,38,39)        -12.1253         estimate D2E/DX2                !
 ! D310  D(35,36,43,42)        146.7565         estimate D2E/DX2                !
 ! D311  D(35,36,43,44)          6.224          estimate D2E/DX2                !
 ! D312  D(38,36,43,42)          7.9726         estimate D2E/DX2                !
 ! D313  D(38,36,43,44)       -132.5599         estimate D2E/DX2                !
 ! D314  D(33,37,40,18)       -154.3456         estimate D2E/DX2                !
 ! D315  D(33,37,40,32)          5.7525         estimate D2E/DX2                !
 ! D316  D(46,37,40,18)        -40.6839         estimate D2E/DX2                !
 ! D317  D(46,37,40,32)        119.4142         estimate D2E/DX2                !
 ! D318  D(70,37,40,18)         84.4286         estimate D2E/DX2                !
 ! D319  D(70,37,40,32)       -115.4733         estimate D2E/DX2                !
 ! D320  D(33,37,46,45)        154.6532         estimate D2E/DX2                !
 ! D321  D(33,37,46,48)         -5.8098         estimate D2E/DX2                !
 ! D322  D(40,37,46,45)         41.0532         estimate D2E/DX2                !
 ! D323  D(40,37,46,48)       -119.4097         estimate D2E/DX2                !
 ! D324  D(70,37,46,45)        -84.0961         estimate D2E/DX2                !
 ! D325  D(70,37,46,48)        115.4409         estimate D2E/DX2                !
 ! D326  D(27,38,39,4)           1.1141         estimate D2E/DX2                !
 ! D327  D(27,38,39,41)       -142.5517         estimate D2E/DX2                !
 ! D328  D(36,38,39,4)         148.9735         estimate D2E/DX2                !
 ! D329  D(36,38,39,41)          5.3078         estimate D2E/DX2                !
 ! D330  D(4,39,41,1)           12.322          estimate D2E/DX2                !
 ! D331  D(4,39,41,42)        -133.5045         estimate D2E/DX2                !
 ! D332  D(38,39,41,1)         151.5229         estimate D2E/DX2                !
 ! D333  D(38,39,41,42)          5.6964         estimate D2E/DX2                !
 ! D334  D(1,41,42,43)        -160.5708         estimate D2E/DX2                !
 ! D335  D(1,41,42,66)         -17.3275         estimate D2E/DX2                !
 ! D336  D(39,41,42,43)         -9.9666         estimate D2E/DX2                !
 ! D337  D(39,41,42,66)        133.2767         estimate D2E/DX2                !
 ! D338  D(41,42,43,36)          3.2087         estimate D2E/DX2                !
 ! D339  D(41,42,43,44)        138.3544         estimate D2E/DX2                !
 ! D340  D(66,42,43,36)       -135.7494         estimate D2E/DX2                !
 ! D341  D(66,42,43,44)         -0.6036         estimate D2E/DX2                !
 ! D342  D(41,42,66,49)       -138.8164         estimate D2E/DX2                !
 ! D343  D(41,42,66,65)          5.3134         estimate D2E/DX2                !
 ! D344  D(43,42,66,49)          5.2313         estimate D2E/DX2                !
 ! D345  D(43,42,66,65)        149.3612         estimate D2E/DX2                !
 ! D346  D(36,43,44,34)         -6.3102         estimate D2E/DX2                !
 ! D347  D(36,43,44,47)        132.5993         estimate D2E/DX2                !
 ! D348  D(42,43,44,34)       -146.3812         estimate D2E/DX2                !
 ! D349  D(42,43,44,47)         -7.4718         estimate D2E/DX2                !
 ! D350  D(34,44,47,18)          3.118          estimate D2E/DX2                !
 ! D351  D(34,44,47,49)        145.8564         estimate D2E/DX2                !
 ! D352  D(43,44,47,18)       -132.106          estimate D2E/DX2                !
 ! D353  D(43,44,47,49)         10.6324         estimate D2E/DX2                !
 ! D354  D(14,45,46,37)       -166.7606         estimate D2E/DX2                !
 ! D355  D(14,45,46,48)         -7.8615         estimate D2E/DX2                !
 ! D356  D(20,45,46,37)        -17.0358         estimate D2E/DX2                !
 ! D357  D(20,45,46,48)        141.8633         estimate D2E/DX2                !
 ! D358  D(37,46,48,17)        163.0361         estimate D2E/DX2                !
 ! D359  D(37,46,48,50)         14.6439         estimate D2E/DX2                !
 ! D360  D(45,46,48,17)         -0.1233         estimate D2E/DX2                !
 ! D361  D(45,46,48,50)       -148.5155         estimate D2E/DX2                !
 ! D362  D(18,47,49,51)         -2.4523         estimate D2E/DX2                !
 ! D363  D(18,47,49,66)        141.216          estimate D2E/DX2                !
 ! D364  D(44,47,49,51)       -149.6985         estimate D2E/DX2                !
 ! D365  D(44,47,49,66)         -6.0302         estimate D2E/DX2                !
 ! D366  D(17,48,50,21)        -15.6327         estimate D2E/DX2                !
 ! D367  D(17,48,50,33)       -167.0204         estimate D2E/DX2                !
 ! D368  D(46,48,50,21)        133.6584         estimate D2E/DX2                !
 ! D369  D(46,48,50,33)        -17.7293         estimate D2E/DX2                !
 ! D370  D(47,49,51,19)          3.5832         estimate D2E/DX2                !
 ! D371  D(47,49,51,52)        150.7503         estimate D2E/DX2                !
 ! D372  D(66,49,51,19)       -140.7789         estimate D2E/DX2                !
 ! D373  D(66,49,51,52)          6.3882         estimate D2E/DX2                !
 ! D374  D(47,49,66,42)         -1.9727         estimate D2E/DX2                !
 ! D375  D(47,49,66,65)       -141.4446         estimate D2E/DX2                !
 ! D376  D(51,49,66,42)        137.5583         estimate D2E/DX2                !
 ! D377  D(51,49,66,65)         -1.9137         estimate D2E/DX2                !
 ! D378  D(19,51,52,53)         -4.766          estimate D2E/DX2                !
 ! D379  D(19,51,52,64)        136.3877         estimate D2E/DX2                !
 ! D380  D(49,51,52,53)       -147.1858         estimate D2E/DX2                !
 ! D381  D(49,51,52,64)         -6.0322         estimate D2E/DX2                !
 ! D382  D(51,52,53,54)          1.0503         estimate D2E/DX2                !
 ! D383  D(51,52,53,62)        146.8534         estimate D2E/DX2                !
 ! D384  D(64,52,53,54)       -144.9038         estimate D2E/DX2                !
 ! D385  D(64,52,53,62)          0.8992         estimate D2E/DX2                !
 ! D386  D(51,52,64,63)       -154.6412         estimate D2E/DX2                !
 ! D387  D(51,52,64,65)          0.9557         estimate D2E/DX2                !
 ! D388  D(53,52,64,63)        -10.0482         estimate D2E/DX2                !
 ! D389  D(53,52,64,65)        145.5487         estimate D2E/DX2                !
 ! D390  D(52,53,54,20)          3.4107         estimate D2E/DX2                !
 ! D391  D(52,53,54,55)        145.5538         estimate D2E/DX2                !
 ! D392  D(62,53,54,20)       -137.3107         estimate D2E/DX2                !
 ! D393  D(62,53,54,55)          4.8324         estimate D2E/DX2                !
 ! D394  D(52,53,62,61)       -143.7351         estimate D2E/DX2                !
 ! D395  D(52,53,62,63)          8.5117         estimate D2E/DX2                !
 ! D396  D(54,53,62,61)          0.3641         estimate D2E/DX2                !
 ! D397  D(54,53,62,63)        152.6109         estimate D2E/DX2                !
 ! D398  D(20,54,55,14)         -3.0248         estimate D2E/DX2                !
 ! D399  D(20,54,55,60)        140.9724         estimate D2E/DX2                !
 ! D400  D(53,54,55,14)       -149.8671         estimate D2E/DX2                !
 ! D401  D(53,54,55,60)         -5.8699         estimate D2E/DX2                !
 ! D402  D(14,55,60,59)          3.5904         estimate D2E/DX2                !
 ! D403  D(14,55,60,61)        141.0638         estimate D2E/DX2                !
 ! D404  D(54,55,60,59)       -135.5519         estimate D2E/DX2                !
 ! D405  D(54,55,60,61)          1.9215         estimate D2E/DX2                !
 ! D406  D(17,56,57,15)       -136.1188         estimate D2E/DX2                !
 ! D407  D(17,56,57,58)          3.7915         estimate D2E/DX2                !
 ! D408  D(22,56,57,15)          4.6814         estimate D2E/DX2                !
 ! D409  D(22,56,57,58)        144.5917         estimate D2E/DX2                !
 ! D410  D(15,57,58,16)        132.9883         estimate D2E/DX2                !
 ! D411  D(15,57,58,59)         -7.8399         estimate D2E/DX2                !
 ! D412  D(56,57,58,16)         -6.0384         estimate D2E/DX2                !
 ! D413  D(56,57,58,59)       -146.8666         estimate D2E/DX2                !
 ! D414  D(16,58,59,11)       -136.6114         estimate D2E/DX2                !
 ! D415  D(16,58,59,60)          1.4818         estimate D2E/DX2                !
 ! D416  D(57,58,59,11)         -0.9282         estimate D2E/DX2                !
 ! D417  D(57,58,59,60)        137.1649         estimate D2E/DX2                !
 ! D418  D(11,59,60,55)        135.5944         estimate D2E/DX2                !
 ! D419  D(11,59,60,61)         -6.4453         estimate D2E/DX2                !
 ! D420  D(58,59,60,55)         -7.0641         estimate D2E/DX2                !
 ! D421  D(58,59,60,61)       -149.1038         estimate D2E/DX2                !
 ! D422  D(55,60,61,9)        -136.9535         estimate D2E/DX2                !
 ! D423  D(55,60,61,62)          3.4184         estimate D2E/DX2                !
 ! D424  D(59,60,61,9)           4.37           estimate D2E/DX2                !
 ! D425  D(59,60,61,62)        144.7418         estimate D2E/DX2                !
 ! D426  D(9,61,62,53)         131.5603         estimate D2E/DX2                !
 ! D427  D(9,61,62,63)         -16.4726         estimate D2E/DX2                !
 ! D428  D(60,61,62,53)         -4.5058         estimate D2E/DX2                !
[...]
 Alpha virt. eigenvalues --    1.05135   1.05413   1.05733   1.06253   1.06503
 Alpha virt. eigenvalues --    1.06725   1.06964   1.07115   1.07590   1.08089
 Alpha virt. eigenvalues --    1.08645   1.09022   1.09430   1.09766   1.10259
 Alpha virt. eigenvalues --    1.10693   1.11040   1.11564   1.11742   1.12274
 Alpha virt. eigenvalues --    1.12936   1.13828   1.13889   1.14558   1.14802
 Alpha virt. eigenvalues --    1.15304   1.15928   1.16358   1.16815   1.17479
 Alpha virt. eigenvalues --    1.18089   1.18899   1.19478   1.19843   1.20213
 Alpha virt. eigenvalues --    1.20569   1.21034   1.21421   1.22096   1.22333
 Alpha virt. eigenvalues --    1.22766   1.23301   1.23500   1.23675   1.23982
 Alpha virt. eigenvalues --    1.24894   1.25410   1.25564   1.26788   1.27338
 Alpha virt. eigenvalues --    1.27783   1.28022   1.28532   1.28943   1.29415
 Alpha virt. eigenvalues --    1.30135   1.30600   1.30984   1.31255   1.31729
 Alpha virt. eigenvalues --    1.32201   1.32712   1.33400   1.33713   1.33847
 Alpha virt. eigenvalues --    1.34121   1.34364   1.34617   1.34760   1.35497
 Alpha virt. eigenvalues --    1.35758   1.36538   1.37213   1.37338   1.37649
 Alpha virt. eigenvalues --    1.38094   1.38251   1.38831   1.39008   1.39239
 Alpha virt. eigenvalues --    1.39723   1.40044   1.40520   1.40993   1.41149
 Alpha virt. eigenvalues --    1.41303   1.41509   1.41916   1.41933   1.42732
 Alpha virt. eigenvalues --    1.43243   1.43559   1.43822   1.44118   1.44370
 Alpha virt. eigenvalues --    1.44683   1.45353   1.45558   1.45646   1.45943
 Alpha virt. eigenvalues --    1.46123   1.46418   1.46617   1.46837   1.47116
 Alpha virt. eigenvalues --    1.47163   1.47525   1.47846   1.48109   1.48235
 Alpha virt. eigenvalues --    1.48607   1.48814   1.49390   1.49454   1.49579
 Alpha virt. eigenvalues --    1.49972   1.50269   1.50433   1.50783   1.50855
 Alpha virt. eigenvalues --    1.51257   1.51490   1.51616   1.51846   1.52416
 Alpha virt. eigenvalues --    1.52639   1.52771   1.52973   1.53257   1.53577
 Alpha virt. eigenvalues --    1.53754   1.54041   1.54167   1.54768   1.55004
 Alpha virt. eigenvalues --    1.55088   1.55471   1.55623   1.56063   1.56410
 Alpha virt. eigenvalues --    1.56624   1.57203   1.57630   1.57766   1.57986
 Alpha virt. eigenvalues --    1.58421   1.58713   1.59201   1.59518   1.59677
 Alpha virt. eigenvalues --    1.60029   1.60169   1.60604   1.60931   1.61549
 Alpha virt. eigenvalues --    1.61949   1.61993   1.62730   1.63328   1.63450
 Alpha virt. eigenvalues --    1.63644   1.63997   1.64284   1.64957   1.65256
 Alpha virt. eigenvalues --    1.65842   1.66308   1.66640   1.67256   1.67638
 Alpha virt. eigenvalues --    1.67962   1.68595   1.68855   1.69534   1.69844
 Alpha virt. eigenvalues --    1.70147   1.70520   1.70657   1.70860   1.71466
 Alpha virt. eigenvalues --    1.71709   1.71779   1.72115   1.72227   1.72558
 Alpha virt. eigenvalues --    1.73541   1.74006   1.74360   1.75008   1.75204
 Alpha virt. eigenvalues --    1.75589   1.76162   1.76427   1.77215   1.77552
 Alpha virt. eigenvalues --    1.77768   1.78229   1.78620   1.79284   1.79482
 Alpha virt. eigenvalues --    1.79670   1.79987   1.80078   1.80502   1.81076
 Alpha virt. eigenvalues --    1.81345   1.81670   1.81875   1.82645   1.82928
 Alpha virt. eigenvalues --    1.83208   1.83874   1.84029   1.84497   1.84876
 Alpha virt. eigenvalues --    1.85213   1.85553   1.86221   1.86805   1.87167
 Alpha virt. eigenvalues --    1.87716   1.88483   1.88623   1.89151   1.89747
 Alpha virt. eigenvalues --    1.89993   1.90219   1.90649   1.91058   1.91142
 Alpha virt. eigenvalues --    1.91465   1.91904   1.92224   1.92386   1.92713
 Alpha virt. eigenvalues --    1.93379   1.94049   1.94096   1.94543   1.95420
 Alpha virt. eigenvalues --    1.96032   1.96425   1.96990   1.97234   1.98195
 Alpha virt. eigenvalues --    1.98290   1.98734   1.99473   2.00185   2.00439
 Alpha virt. eigenvalues --    2.00877   2.01805   2.02152   2.02634   2.03050
 Alpha virt. eigenvalues --    2.03151   2.03250   2.03359   2.03728   2.04682
 Alpha virt. eigenvalues --    2.04894   2.05812   2.06246   2.06476   2.07193
 Alpha virt. eigenvalues --    2.07499   2.08032   2.08425   2.09171   2.09582
 Alpha virt. eigenvalues --    2.09952   2.10126   2.10320   2.10641   2.10810
 Alpha virt. eigenvalues --    2.11201   2.11223   2.11463   2.11720   2.12313
 Alpha virt. eigenvalues --    2.12883   2.13311   2.13825   2.14560   2.14893
 Alpha virt. eigenvalues --    2.15593   2.15667   2.16308   2.16516   2.17401
 Alpha virt. eigenvalues --    2.17621   2.17841   2.18264   2.18606   2.19767
 Alpha virt. eigenvalues --    2.20502   2.20943   2.21808   2.21906   2.23028
 Alpha virt. eigenvalues --    2.23165   2.23471   2.23773   2.23958   2.24101
 Alpha virt. eigenvalues --    2.24498   2.25959   2.26240   2.26473   2.27747
 Alpha virt. eigenvalues --    2.27994   2.28602   2.29483   2.29996   2.30790
 Alpha virt. eigenvalues --    2.31323   2.31557   2.32013   2.32315   2.32904
 Alpha virt. eigenvalues --    2.33799   2.34702   2.35117   2.35571   2.36551
 Alpha virt. eigenvalues --    2.37388   2.38013   2.38457   2.38765   2.39053
 Alpha virt. eigenvalues --    2.39346   2.39818   2.40346   2.40549   2.40862
 Alpha virt. eigenvalues --    2.41489   2.41879   2.42327   2.42764   2.42857
 Alpha virt. eigenvalues --    2.43170   2.43447   2.43697   2.44191   2.44507
 Alpha virt. eigenvalues --    2.45401   2.45723   2.46011   2.46458   2.47108
 Alpha virt. eigenvalues --    2.47561   2.47914   2.49012   2.49465   2.50384
 Alpha virt. eigenvalues --    2.50406   2.50671   2.51231   2.52199   2.53309
 Alpha virt. eigenvalues --    2.53970   2.54118   2.54591   2.54883   2.55353
 Alpha virt. eigenvalues --    2.55842   2.56657   2.57229   2.57345   2.58135
 Alpha virt. eigenvalues --    2.58683   2.58900   2.59120   2.59413   2.59810
 Alpha virt. eigenvalues --    2.60091   2.60696   2.60973   2.61357   2.61762
 Alpha virt. eigenvalues --    2.62941   2.64045   2.64239   2.64384   2.65630
 Alpha virt. eigenvalues --    2.66067   2.66525   2.66828   2.67546   2.67927
 Alpha virt. eigenvalues --    2.68717   2.69085   2.70288   2.70695   2.71567
 Alpha virt. eigenvalues --    2.72187   2.72235   2.72919   2.73406   2.73693
 Alpha virt. eigenvalues --    2.74738   2.75623   2.76065   2.76666   2.76874
 Alpha virt. eigenvalues --    2.78121   2.79136   2.80105   2.80673   2.80861
 Alpha virt. eigenvalues --    2.81837   2.82444   2.82786   2.83432   2.84481
 Alpha virt. eigenvalues --    2.85232   2.85819   2.86321   2.87129   2.87690
 Alpha virt. eigenvalues --    2.88187   2.88578   2.89112   2.89426   2.90019
 Alpha virt. eigenvalues --    2.90426   2.91373   2.92143   2.93273   2.93878
 Alpha virt. eigenvalues --    2.94067   2.94377   2.95459   2.95678   2.96233
 Alpha virt. eigenvalues --    2.96545   2.97350   2.98184   2.98326   2.98617
 Alpha virt. eigenvalues --    2.99931   3.00100   3.00399   3.00570   3.01240
 Alpha virt. eigenvalues --    3.01305   3.01850   3.02145   3.02784   3.03587
 Alpha virt. eigenvalues --    3.03820   3.04272   3.04527   3.04981   3.05203
 Alpha virt. eigenvalues --    3.05476   3.05760   3.06300   3.06874   3.07095
 Alpha virt. eigenvalues --    3.07149   3.07568   3.07700   3.08382   3.08731
 Alpha virt. eigenvalues --    3.08951   3.09390   3.09592   3.10759   3.10882
 Alpha virt. eigenvalues --    3.11198   3.11426   3.12065   3.12252   3.12730
 Alpha virt. eigenvalues --    3.13051   3.13220   3.13556   3.13974   3.14179
 Alpha virt. eigenvalues --    3.14620   3.15023   3.15081   3.15373   3.15611
 Alpha virt. eigenvalues --    3.15922   3.16258   3.17003   3.17102   3.17572
 Alpha virt. eigenvalues --    3.17655   3.18213   3.18633   3.18952   3.19720
 Alpha virt. eigenvalues --    3.20423   3.20994   3.21219   3.21806   3.21963
 Alpha virt. eigenvalues --    3.22726   3.22833   3.24231   3.24675   3.27451
 Alpha virt. eigenvalues --    3.27910   3.29230   3.29940   3.33644   3.33687
 Alpha virt. eigenvalues --    3.33885   3.35197   3.35984   3.37132   3.40597
 Alpha virt. eigenvalues --    3.40819   3.41577   3.42246   3.44822   3.45543
 Alpha virt. eigenvalues --    3.47853   3.47958   3.50283   3.51223   3.52493
 Alpha virt. eigenvalues --    3.53248   3.54655   3.56146   3.56728   3.57354
 Alpha virt. eigenvalues --    3.57634   3.59144   3.61172   3.61306   3.63088
 Alpha virt. eigenvalues --    3.63852   3.64579   3.64758   3.65594   3.67433
 Alpha virt. eigenvalues --    3.67789   3.68661   3.70051   3.70857   3.71826
 Alpha virt. eigenvalues --    3.72505   3.74503   3.75297   3.76366   3.77217
 Alpha virt. eigenvalues --    3.78236   3.79482   3.79755   3.81114   3.82754
 Alpha virt. eigenvalues --    3.84040   3.84920   3.86547   3.87527   3.87664
 Alpha virt. eigenvalues --    3.87940   3.88863   3.89559   3.90406   3.91032
 Alpha virt. eigenvalues --    3.92117   3.92614   3.92985   3.93593   3.95116
 Alpha virt. eigenvalues --    3.95776   3.97813   4.00721   4.02164   4.03769
 Alpha virt. eigenvalues --    4.08989   4.09405   4.11512   4.17160   4.21749
 Alpha virt. eigenvalues --    4.24470   4.26296   4.29147   4.32839   4.35085
 Alpha virt. eigenvalues --    4.37549   4.39408   4.40061   4.40516   4.40703
 Alpha virt. eigenvalues --    4.43029   4.46030   4.51778   4.53172   4.55626
 Alpha virt. eigenvalues --    4.57779   4.60773   4.62921   4.64290   4.68615
 Alpha virt. eigenvalues --    4.70082   4.71657   4.72832   4.77011   4.84481
 Alpha virt. eigenvalues --    4.86616   4.89883   4.92271   4.97970   5.01533
 Alpha virt. eigenvalues --    5.02038   5.02894   5.06524  23.06878  23.21216
 Alpha virt. eigenvalues --   23.26128  23.32473  23.45038  23.48058  23.51474
 Alpha virt. eigenvalues --   23.53313  23.58131  23.63482  23.67937  23.69513
 Alpha virt. eigenvalues --   23.73171  23.74493  23.77765  23.79623  23.80557
 Alpha virt. eigenvalues --   23.81216  23.83389  23.84514  23.85087  23.85410
 Alpha virt. eigenvalues --   23.86264  23.87767  23.88137  23.89882  23.90720
 Alpha virt. eigenvalues --   23.92969  23.93397  23.95422  23.96764  23.97388
 Alpha virt. eigenvalues --   23.98096  23.98196  23.99116  23.99570  24.00114
 Alpha virt. eigenvalues --   24.00601  24.01327  24.01748  24.02337  24.02691
 Alpha virt. eigenvalues --   24.03653  24.04299  24.04344  24.04748  24.05779
 Alpha virt. eigenvalues --   24.06609  24.07484  24.08673  24.09804  24.10099
 Alpha virt. eigenvalues --   24.11016  24.11716  24.11958  24.12287  24.12348
 Alpha virt. eigenvalues --   24.13446  24.14213  24.14659  24.15342  24.15726
 Alpha virt. eigenvalues --   24.16259  24.16747  24.17970  24.19242
          Condensed to atoms (all electrons):
 Mulliken charges:
               1
     1  C   -0.146880
     2  C   -0.128161
     3  C   -0.036835
     4  C    0.013088
     5  C    0.035819
     6  C   -0.024820
     7  C   -0.123823
     8  C   -0.131660
     9  C    0.002292
    10  C   -0.171167
    11  C   -0.000837
    12  C   -0.002073
    13  C   -0.016259
    14  C   -0.006683
    15  C   -0.006425
    16  C   -0.006349
    17  C   -0.011530
    18  C    0.015507
    19  C   -0.004210
    20  C   -0.003264
    21  C   -0.005150
    22  C    0.032512
    23  C   -0.025430
    24  C    0.010684
    25  C    0.003605
    26  C   -0.011736
    27  C    0.018096
    28  C   -0.025692
    29  C    0.033169
    30  C   -0.004872
    31  C   -0.004834
    32  C    0.032580
    33  C   -0.170797
    34  C   -0.011894
    35  C   -0.015202
    36  C   -0.002082
    37  C   -0.124557
    38  C   -0.007528
    39  C    0.000107
    40  C   -0.024727
    41  C   -0.023430
    42  C    0.016090
    43  C   -0.018028
    44  C   -0.006363
    45  C    0.016466
    46  C   -0.024856
    47  C   -0.004841
    48  C    0.032514
    49  C   -0.007522
    50  C   -0.006201
    51  C   -0.010724
    52  C    0.011096
    53  C    0.017101
    54  C   -0.009221
    55  C   -0.001880
    56  C   -0.011482
    57  C   -0.007466
    58  C   -0.012860
    59  C   -0.003037
    60  C   -0.001031
    61  C    0.000287
    62  C   -0.028757
    63  C   -0.140487
    64  C   -0.012885
    65  C   -0.012705
    66  C    0.024480
    67  H    0.164564
    68  H    0.159209
    69  H    0.159453
    70  H    0.164415
    71  H    0.152703
    72  H    0.166051
    73  H    0.154485
    74  H    0.162884
 Sum of Mulliken charges =  -0.00000
 Mulliken charges with hydrogens summed into heavy atoms:
               1
     1  C    0.016003
     2  C    0.026324
     3  C   -0.036835
     4  C    0.013088
     5  C    0.035819
     6  C   -0.024820
     7  C    0.040741
     8  C    0.021043
     9  C    0.002292
    10  C   -0.011959
    11  C   -0.000837
    12  C   -0.002073
    13  C   -0.016259
    14  C   -0.006683
    15  C   -0.006425
    16  C   -0.006349
    17  C   -0.011530
    18  C    0.015507
    19  C   -0.004210
    20  C   -0.003264
    21  C   -0.005150
    22  C    0.032512
    23  C   -0.025430
    24  C    0.010684
    25  C    0.003605
    26  C   -0.011736
    27  C    0.018096
    28  C   -0.025692
    29  C    0.033169
    30  C   -0.004872
    31  C   -0.004834
    32  C    0.032580
    33  C   -0.011344
    34  C   -0.011894
    35  C   -0.015202
    36  C   -0.002082
    37  C    0.039858
    38  C   -0.007528
    39  C    0.000107
    40  C   -0.024727
    41  C   -0.023430
    42  C    0.016090
    43  C   -0.018028
    44  C   -0.006363
    45  C    0.016466
    46  C   -0.024856
    47  C   -0.004841
    48  C    0.032514
    49  C   -0.007522
    50  C   -0.006201
    51  C   -0.010724
    52  C    0.011096
    53  C    0.017101
    54  C   -0.009221
    55  C   -0.001880
    56  C   -0.011482
    57  C   -0.007466
    58  C   -0.012860
    59  C   -0.003037
    60  C   -0.001031
    61  C    0.000287
    62  C   -0.028757
    63  C    0.025564
    64  C   -0.012885
    65  C   -0.012705
    66  C    0.024480
 Electronic spatial extent (au):  <R**2>=          21610.0461
 Charge=             -0.0000 electrons
 Dipole moment (field-independent basis, Debye):
    X=             -0.1210    Y=             -1.3279    Z=             -0.5530  Tot=              1.4435
 Quadrupole moment (field-independent basis, Debye-Ang):
   XX=           -330.0602   YY=           -385.8247   ZZ=           -369.8662
   XY=              3.5495   XZ=              2.8565   YZ=              2.4237
 Traceless Quadrupole moment (field-independent basis, Debye-Ang):
   XX=             31.8569   YY=            -23.9077   ZZ=             -7.9492
   XY=              3.5495   XZ=              2.8565   YZ=              2.4237
 Octapole moment (field-independent basis, Debye-Ang**2):
  XXX=            -37.9736  YYY=            -10.8233  ZZZ=             -6.5553  XYY=            -23.1444
  XXY=            -35.7961  XXZ=            -16.5573  XZZ=             48.4223  YZZ=             -7.1641
  YYZ=             -3.5954  XYZ=             -6.5000
 Hexadecapole moment (field-independent basis, Debye-Ang**3):
 XXXX=         -12001.1020 YYYY=         -11317.1187 ZZZZ=          -8760.5728 XXXY=             70.5219
 XXXZ=             91.3396 YYYX=             69.6599 YYYZ=              9.0139 ZZZX=              0.9916
 ZZZY=             18.5471 XXYY=          -4085.7810 XXZZ=          -3457.9262 YYZZ=          -3382.8090
 XXYZ=             54.2615 YYXZ=             20.1524 ZZXY=             -5.0413
 N-N= 9.944890625466D+03 E-N=-2.573625770921D+04  KE= 2.509872692989D+03
 No NMR shielding tensors so no spin-rotation constants.
 Leave Link  601 at Wed Jul 20 02:43:18 2022, MaxMem=  1342177280 cpu:              56.6 elap:               1.4
 (Enter /home/mkliu/g16/l9999.exe)
 1\1\GINC-NODE01\FOpt\RB3LYP\6-311G(d,p)\C66H8\MKLIU\20-Jul-2022\0\\#P 
 opt b3lyp/6-311G(d, p) empiricaldispersion=GD3\\force\\0,1\C,12.545185
 8686,11.9190637417,21.9191033807\C,12.4969093622,12.9972734996,23.0640
 298457\C,12.733944641,14.4162605802,22.565360426\C,12.6543073155,14.83
 29466991,21.2594172672\C,13.5525482239,15.1400210672,23.453820282\C,14
 .1423865521,14.2436996089,24.3942642299\C,15.6421328537,17.3677673022,
 18.7350249149\C,13.5259036595,12.8566090564,24.2830379092\C,15.4092101
 501,14.499264109,24.8608435799\C,16.9438327932,17.0020283117,17.893094
 1755\C,16.0875393424,15.7150596542,24.4816345905\C,15.4844823783,16.61
 56785264,23.5926070722\C,14.2163860868,16.2966043218,23.01528732\C,19.
 2655877339,14.0571688786,22.5958025127\C,16.258923016,17.3057399831,22
 .6029925256\C,19.2283233323,15.4508262134,22.5867697792\C,19.294427556
 9,16.1218890119,21.332105151\C,17.4868649129,11.6080668998,19.28351109
 91\C,17.7469157557,11.3120247597,20.7226888426\C,18.5316238324,12.0337
 785851,21.6204056066\C,18.0456103045,16.891271247,18.9226533576\C,17.5
 973264197,17.4306948303,20.1649618967\C,16.1599455864,17.5391114288,20
 .1672973498\C,15.4844824266,17.3975617284,21.3675701004\C,14.186893408
 ,16.7161279328,21.6328698517\C,13.4112054738,15.9639036326,20.74552495
 69\C,13.6787793538,15.691075738,19.3079784429\C,14.7022078015,16.17624
 46071,18.5093016643\C,15.2937232384,15.2929287312,17.5330615749\C,16.6
 707729882,15.6181538197,17.3503130962\C,17.6096065183,14.6096841289,17
 .3469464193\C,17.1889138265,13.2584601659,17.5223007361\C,19.011989130
 9,14.7810843885,17.8854651458\C,15.8421879907,12.9224632549,17.3725291
 884\C,14.8604786596,13.9771675896,17.3758876661\C,13.7172282083,13.515
 7500863,18.0931699085\C,19.2880754604,13.4527980491,18.7197385529\C,13
 .1209376644,14.3736412175,19.0205294633\C,12.5103055986,13.8365166711,
 20.1992863428\C,18.0351981638,12.601071509,18.488061386\C,12.579094161
 9,12.4915037305,20.4941092109\C,13.4036371198,11.6645721606,19.6606502
 726\C,13.9341480695,12.1385637423,18.4650357954\C,15.3023910387,11.817
 251386,18.0909089574\C,19.2999310395,13.2813617923,21.3582235428\C,19.
 4897255252,13.9484699415,20.1577603406\C,16.1252268074,11.1619644994,1
 9.0046936007\C,19.4885414061,15.3899107748,20.1601792474\C,15.55616307
 06,10.615949644,20.2021213628\C,18.9827607826,15.882495748,18.92000047
 59\C,16.5464341301,10.655643425,21.2298899629\C,16.1170593694,10.79231
 03114,22.5469639302\C,16.9251203826,11.5140830728,23.4731433994\C,18.1
 178414494,12.0874609272,23.0221178542\C,18.5272798183,13.3336236956,23
 .5908214763\C,18.3165540362,17.1796102654,21.3349172092\C,17.646189998
 9,17.1626996608,22.5914383935\C,18.2623454993,16.1427342178,23.4238110
 478\C,17.4994725168,15.4322020783,24.3376097059\C,17.6791094002,14.003
 8281531,24.4867320924\C,16.415963771,13.4188248506,24.8705014782\C,16.
 0689084922,12.170942756,24.4180998259\C,14.6212230535,11.7046320883,24
 .2208093791\C,14.7312895046,10.9968118194,22.8794658719\C,13.804707790
 3,11.0581149279,21.8860875394\C,14.2126139883,10.8400094476,20.5264528
 885\H,15.1755128571,18.2921661456,18.3832629718\H,17.1505674631,17.740
 4273156,17.1139567785\H,19.7597959427,14.9394245107,17.10394583\H,20.1
 799089416,12.9264494611,18.3681716828\H,12.9410739842,12.6610860746,25
 .1836082571\H,14.3630468802,10.9813962687,25.0016886733\H,11.493013296
 4,12.9452202033,23.4912022094\H,11.6597965474,11.2831066745,22.0273146
 179\\Version=ES64L-G16RevA.03\State=1-A\HF=-2520.2707977\RMSD=1.575e-0
 9\RMSF=7.007e-05\Dipole=-0.4528989,-0.1002152,-0.3276573\Quadrupole=3.
 0609406,-4.2762321,1.2152915,4.7646172,-16.0779358,-13.2239862\PG=C01 
 [X(C66H8)]\\@


 THE RARE EARTHS PERPLEX US IN OUR RESEARCHES,
 BAFFLE US IN OUR SPECULATIONS, AND HAUNT US IN OUR
 VERY DREAMS.  THEY STRETCH LIKE AN UNKNOWN BEFORE US,
 MOCKING, MYSTIFYING, AND MURMURING STRANGE REVELATIONS
 AND POSSIBILITIES.  -- SIR WILLIAM CROOKE, 1832-1919
 Job cpu time:       1 days  2 hours 40 minutes 13.8 seconds.
 Elapsed time:       0 days  0 hours 33 minutes 25.0 seconds.
 File lengths (MBytes):  RWF=    939 Int=      0 D2E=      0 Chk=    116 Scr=      1
 Normal termination of Gaussian 16 at Wed Jul 20 02:43:18 2022.
