 Entering Gaussian System, Link 0=g16
 Input=dihept_8_addons_5.gjf
 Output=dihept_8_addons_5.log
 Initial command:
 /home/mkliu/g16/l1.exe "/data/scratch/Gau-53257.inp" -scrdir="/data/scratch/"
 Entering Link 1 = /home/mkliu/g16/l1.exe PID=     53258.
  
 Copyright (c) 1988,1990,1992,1993,1995,1998,2003,2009,2016,
            Gaussian, Inc.  All Rights Reserved.
  
 This is part of the Gaussian(R) 16 program.  It is based on
 the Gaussian(R) 09 system (copyright 2009, Gaussian, Inc.),
 the Gaussian(R) 03 system (copyright 2003, Gaussian, Inc.),
 the Gaussian(R) 98 system (copyright 1998, Gaussian, Inc.),
 the Gaussian(R) 94 system (copyright 1995, Gaussian, Inc.),
 the Gaussian 92(TM) system (copyright 1992, Gaussian, Inc.),
 the Gaussian 90(TM) system (copyright 1990, Gaussian, Inc.),
 the Gaussian 88(TM) system (copyright 1988, Gaussian, Inc.),
 the Gaussian 86(TM) system (copyright 1986, Carnegie Mellon
 University), and the Gaussian 82(TM) system (copyright 1983,
 Carnegie Mellon University). Gaussian is a federally registered
 trademark of Gaussian, Inc.
  
 This software contains proprietary and confidential information,
 including trade secrets, belonging to Gaussian, Inc.
  
 This software is provided under written license and may be
 used, copied, transmitted, or stored only in accord with that
 written license.
  
 The following legend is applicable only to US Government
 contracts under FAR:
  
                    RESTRICTED RIGHTS LEGEND
  
 Use, reproduction and disclosure by the US Government is
 subject to restrictions as set forth in subparagraphs (a)
 and (c) of the Commercial Computer Software - Restricted
 Rights clause in FAR 52.227-19.
  
 Gaussian, Inc.
 340 Quinnipiac St., Bldg. 40, Wallingford CT 06492
  
  
 ---------------------------------------------------------------
 Warning -- This program may not be used in any manner that
 competes with the business of Gaussian, Inc. or will provide
 assistance to any competitor of Gaussian, Inc.  The licensee
 of this program is prohibited from giving any competitor of
 Gaussian, Inc. access to this program.  By using this program,
 the user acknowledges that Gaussian, Inc. is engaged in the
 business of creating and licensing software in the field of
 computational chemistry and represents and warrants to the
 licensee that it is not a competitor of Gaussian, Inc. and that
 it will not use this program in any manner prohibited above.
 ---------------------------------------------------------------
  

 Cite this work as:
 Gaussian 16, Revision A.03,
 M. J. Frisch, G. W. Trucks, H. B. Schlegel, G. E. Scuseria, 
 M. A. Robb, J. R. Cheeseman, G. Scalmani, V. Barone, 
 G. A. Petersson, H. Nakatsuji, X. Li, M. Caricato, A. V. Marenich, 
 J. Bloino, B. G. Janesko, R. Gomperts, B. Mennucci, H. P. Hratchian, 
 J. V. Ortiz, A. F. Izmaylov, J. L. Sonnenberg, D. Williams-Young, 
 F. Ding, F. Lipparini, F. Egidi, J. Goings, B. Peng, A. Petrone, 
 T. Henderson, D. Ranasinghe, V. G. Zakrzewski, J. Gao, N. Rega, 
 G. Zheng, W. Liang, M. Hada, M. Ehara, K. Toyota, R. Fukuda, 
 J. Hasegawa, M. Ishida, T. Nakajima, Y. Honda, O. Kitao, H. Nakai, 
 T. Vreven, K. Throssell, J. A. Montgomery, Jr., J. E. Peralta, 
 F. Ogliaro, M. J. Bearpark, J. J. Heyd, E. N. Brothers, K. N. Kudin, 
 V. N. Staroverov, T. A. Keith, R. Kobayashi, J. Normand, 
 K. Raghavachari, A. P. Rendell, J. C. Burant, S. S. Iyengar, 
 J. Tomasi, M. Cossi, J. M. Millam, M. Klene, C. Adamo, R. Cammi, 
 J. W. Ochterski, R. L. Martin, K. Morokuma, O. Farkas, 
 J. B. Foresman, and D. J. Fox, Gaussian, Inc., Wallingford CT, 2016.
 
 ******************************************
 Gaussian 16:  ES64L-G16RevA.03 25-Dec-2016
                20-Jul-2022 
 ******************************************
 %mem=10GB
 %chk=dihept_8_addons_5.chk
 %nprocshared=48
 Will use up to   48 processors via shared memory.
 -------------------------------------------------
 #P opt b3lyp/6-311G(d, p) empiricaldispersion=GD3
 -------------------------------------------------
 1/18=20,19=15,26=3,38=1/1,3;
 2/9=110,12=2,17=6,18=5,40=1/2;
 3/5=4,6=6,7=101,11=2,25=1,30=1,71=1,74=-5,124=31/1,2,3;
 4//1;
 5/5=2,38=5/2;
 6/7=2,8=2,9=2,10=2,28=1/1;
 7//1,2,3,16;
 1/18=20,19=15,26=3/3(2);
 2/9=110/2;
 99//99;
 2/9=110/2;
 3/5=4,6=6,7=101,11=2,25=1,30=1,71=1,74=-5,124=31/1,2,3;
 4/5=5,16=3,69=1/1;
 5/5=2,38=5/2;
 7//1,2,3,16;
 1/18=20,19=15,26=3/3(-5);
 2/9=110/2;
 6/7=2,8=2,9=2,10=2,19=2,28=1/1;
 99/9=1/99;
 Leave Link    1 at Wed Jul 20 11:33:35 2022, MaxMem=  1342177280 cpu:               3.0 elap:               0.1
 (Enter /home/mkliu/g16/l101.exe)
 -----
 force
 -----
 Symbolic Z-matrix:
 Charge =  0 Multiplicity = 1
 C                     12.80008   12.08521   21.89441 
 C                     12.82266   13.03498   22.9026 
 C                     12.70566   14.43278   22.57743 
 C                     12.6214   14.84128   21.24997 
 C                     13.4976   15.18319   23.48898 
 C                     14.13475   14.24233   24.41109 
 C                     15.6329   17.32055   18.75288 
 C                     13.7493   12.91953   23.99935 
 C                     15.40352   14.48954   24.86512 
 C                     16.90938   16.99117   17.89255 
 C                     16.08357   15.8355   24.75739 
 C                     15.38239   16.83089   23.75399 
 C                     14.18206   16.28129   23.03177 
 C                     19.19076   14.00418   22.57217 
 C                     16.22073   17.25478   22.58168 
 C                     19.14232   15.39433   22.5565 
 C                     19.2324   16.05386   21.30881 
 C                     17.44051   11.57751   19.33119 
 C                     17.69098   11.2691   20.74935 
 C                     18.47049   11.9948   21.63385 
 C                     18.15976   17.12134   18.79535 
 C                     17.55291   17.35813   20.14494 
 C                     16.15771   17.41362   20.16068 
 C                     15.47813   17.28222   21.37419 
 C                     14.18776   16.64483   21.64558 
 C                     13.38282   15.95055   20.74699 
 C                     13.65925   15.68344   19.3258 
 C                     14.68536   16.15768   18.53819 
 C                     15.28677   15.2669   17.60015 
 C                     16.66725   15.58553   17.45893 
 C                     17.58867   14.58502   17.4615 
 C                     17.15817   13.23577   17.60692 
 C                     19.0088   14.71297   17.89572 
 C                     15.82135   12.90995   17.44142 
 C                     14.8518   13.96072   17.43649 
 C                     13.70124   13.50493   18.13713 
 C                     19.23842   13.4129   18.75184 
 C                     13.10594   14.37598   19.04103 
 C                     12.49753   13.84885   20.22303 
 C                     17.99746   12.56412   18.54564 
 C                     12.59154   12.49444   20.52994 
 C                     13.377    11.63546   19.68306 
 C                     13.91284   12.12647   18.5061 
 C                     15.27093   11.80271   18.14381 
 C                     19.20911   13.23921   21.35922 
 C                     19.38203   13.9194   20.16229 
 C                     16.08906   11.13964   19.04912 
 C                     19.41624   15.32862   20.15397 
 C                     15.51116   10.57552   20.22913 
 C                     19.23522   15.94744   18.80144 
 C                     16.50597   10.6034   21.2573 
 C                     16.09849   10.70513   22.58132 
 C                     16.90465   11.4494   23.49227 
 C                     18.06793   12.04382   23.02638 
 C                     18.4653   13.30331   23.5766 
 C                     18.25609   17.12512   21.31041 
 C                     17.59209   17.1114   22.55526 
 C                     18.21258   16.09655   23.40295 
 C                     17.47096   15.41726   24.32539 
 C                     17.62955   14.00348   24.4455 
 C                     16.368    13.43772   24.82439 
 C                     16.02855   12.16072   24.39055 
 C                     14.67838   11.88039   24.00227 
 C                     14.71301   10.94305   22.90794 
 C                     13.77193   11.01816   21.89383 
 C                     14.16582   10.78055   20.53192 
 H                     15.16395   18.26375   18.45204 
 H                     16.9859   17.6582   17.03018 
 H                     18.7097   18.02005   18.49883 
 H                     20.18059   16.41759   18.51205 
 H                     19.67983   14.74026   17.03348 
 H                     20.13698   12.86763   18.4435 
 H                     16.11754   16.32237   25.73708 
 H                     15.0894   17.71583   24.32992 
 
 ITRead=  0  0  0  0  0  0  0  0  0  0  0  0  0  0  0  0  0  0  0  0
 ITRead=  0  0  0  0  0  0  0  0  0  0  0  0  0  0  0  0  0  0  0  0
 ITRead=  0  0  0  0  0  0  0  0  0  0  0  0  0  0  0  0  0  0  0  0
 ITRead=  0  0  0  0  0  0  0  0  0  0  0  0  0  0
 MicOpt= -1 -1 -1 -1 -1 -1 -1 -1 -1 -1 -1 -1 -1 -1 -1 -1 -1 -1 -1 -1
 MicOpt= -1 -1 -1 -1 -1 -1 -1 -1 -1 -1 -1 -1 -1 -1 -1 -1 -1 -1 -1 -1
 MicOpt= -1 -1 -1 -1 -1 -1 -1 -1 -1 -1 -1 -1 -1 -1 -1 -1 -1 -1 -1 -1
 MicOpt= -1 -1 -1 -1 -1 -1 -1 -1 -1 -1 -1 -1 -1 -1
 NAtoms=     74 NQM=       74 NQMF=       0 NMMI=      0 NMMIF=      0
                NMic=       0 NMicF=      0.
                    Isotopes and Nuclear Properties:
 (Nuclear quadrupole moments (NQMom) in fm**2, nuclear magnetic moments (NMagM)
  in nuclear magnetons)

  Atom         1           2           3           4           5           6           7           8           9          10
 IAtWgt=          12          12          12          12          12          12          12          12          12          12
 AtmWgt=  12.0000000  12.0000000  12.0000000  12.0000000  12.0000000  12.0000000  12.0000000  12.0000000  12.0000000  12.0000000
 NucSpn=           0           0           0           0           0           0           0           0           0           0
 AtZEff=  -0.0000000  -0.0000000  -0.0000000  -0.0000000  -0.0000000  -0.0000000  -0.0000000  -0.0000000  -0.0000000  -0.0000000
 NQMom=    0.0000000   0.0000000   0.0000000   0.0000000   0.0000000   0.0000000   0.0000000   0.0000000   0.0000000   0.0000000
 NMagM=    0.0000000   0.0000000   0.0000000   0.0000000   0.0000000   0.0000000   0.0000000   0.0000000   0.0000000   0.0000000
 AtZNuc=   6.0000000   6.0000000   6.0000000   6.0000000   6.0000000   6.0000000   6.0000000   6.0000000   6.0000000   6.0000000

  Atom        11          12          13          14          15          16          17          18          19          20
 IAtWgt=          12          12          12          12          12          12          12          12          12          12
 AtmWgt=  12.0000000  12.0000000  12.0000000  12.0000000  12.0000000  12.0000000  12.0000000  12.0000000  12.0000000  12.0000000
 NucSpn=           0           0           0           0           0           0           0           0           0           0
 AtZEff=  -0.0000000  -0.0000000  -0.0000000  -0.0000000  -0.0000000  -0.0000000  -0.0000000  -0.0000000  -0.0000000  -0.0000000
 NQMom=    0.0000000   0.0000000   0.0000000   0.0000000   0.0000000   0.0000000   0.0000000   0.0000000   0.0000000   0.0000000
 NMagM=    0.0000000   0.0000000   0.0000000   0.0000000   0.0000000   0.0000000   0.0000000   0.0000000   0.0000000   0.0000000
 AtZNuc=   6.0000000   6.0000000   6.0000000   6.0000000   6.0000000   6.0000000   6.0000000   6.0000000   6.0000000   6.0000000

  Atom        21          22          23          24          25          26          27          28          29          30
 IAtWgt=          12          12          12          12          12          12          12          12          12          12
 AtmWgt=  12.0000000  12.0000000  12.0000000  12.0000000  12.0000000  12.0000000  12.0000000  12.0000000  12.0000000  12.0000000
 NucSpn=           0           0           0           0           0           0           0           0           0           0
 AtZEff=  -0.0000000  -0.0000000  -0.0000000  -0.0000000  -0.0000000  -0.0000000  -0.0000000  -0.0000000  -0.0000000  -0.0000000
 NQMom=    0.0000000   0.0000000   0.0000000   0.0000000   0.0000000   0.0000000   0.0000000   0.0000000   0.0000000   0.0000000
 NMagM=    0.0000000   0.0000000   0.0000000   0.0000000   0.0000000   0.0000000   0.0000000   0.0000000   0.0000000   0.0000000
 AtZNuc=   6.0000000   6.0000000   6.0000000   6.0000000   6.0000000   6.0000000   6.0000000   6.0000000   6.0000000   6.0000000

  Atom        31          32          33          34          35          36          37          38          39          40
 IAtWgt=          12          12          12          12          12          12          12          12          12          12
 AtmWgt=  12.0000000  12.0000000  12.0000000  12.0000000  12.0000000  12.0000000  12.0000000  12.0000000  12.0000000  12.0000000
 NucSpn=           0           0           0           0           0           0           0           0           0           0
 AtZEff=  -0.0000000  -0.0000000  -0.0000000  -0.0000000  -0.0000000  -0.0000000  -0.0000000  -0.0000000  -0.0000000  -0.0000000
 NQMom=    0.0000000   0.0000000   0.0000000   0.0000000   0.0000000   0.0000000   0.0000000   0.0000000   0.0000000   0.0000000
 NMagM=    0.0000000   0.0000000   0.0000000   0.0000000   0.0000000   0.0000000   0.0000000   0.0000000   0.0000000   0.0000000
 AtZNuc=   6.0000000   6.0000000   6.0000000   6.0000000   6.0000000   6.0000000   6.0000000   6.0000000   6.0000000   6.0000000

  Atom        41          42          43          44          45          46          47          48          49          50
 IAtWgt=          12          12          12          12          12          12          12          12          12          12
 AtmWgt=  12.0000000  12.0000000  12.0000000  12.0000000  12.0000000  12.0000000  12.0000000  12.0000000  12.0000000  12.0000000
 NucSpn=           0           0           0           0           0           0           0           0           0           0
 AtZEff=  -0.0000000  -0.0000000  -0.0000000  -0.0000000  -0.0000000  -0.0000000  -0.0000000  -0.0000000  -0.0000000  -0.0000000
 NQMom=    0.0000000   0.0000000   0.0000000   0.0000000   0.0000000   0.0000000   0.0000000   0.0000000   0.0000000   0.0000000
 NMagM=    0.0000000   0.0000000   0.0000000   0.0000000   0.0000000   0.0000000   0.0000000   0.0000000   0.0000000   0.0000000
 AtZNuc=   6.0000000   6.0000000   6.0000000   6.0000000   6.0000000   6.0000000   6.0000000   6.0000000   6.0000000   6.0000000

  Atom        51          52          53          54          55          56          57          58          59          60
 IAtWgt=          12          12          12          12          12          12          12          12          12          12
 AtmWgt=  12.0000000  12.0000000  12.0000000  12.0000000  12.0000000  12.0000000  12.0000000  12.0000000  12.0000000  12.0000000
 NucSpn=           0           0           0           0           0           0           0           0           0           0
 AtZEff=  -0.0000000  -0.0000000  -0.0000000  -0.0000000  -0.0000000  -0.0000000  -0.0000000  -0.0000000  -0.0000000  -0.0000000
 NQMom=    0.0000000   0.0000000   0.0000000   0.0000000   0.0000000   0.0000000   0.0000000   0.0000000   0.0000000   0.0000000
 NMagM=    0.0000000   0.0000000   0.0000000   0.0000000   0.0000000   0.0000000   0.0000000   0.0000000   0.0000000   0.0000000
 AtZNuc=   6.0000000   6.0000000   6.0000000   6.0000000   6.0000000   6.0000000   6.0000000   6.0000000   6.0000000   6.0000000

  Atom        61          62          63          64          65          66          67          68          69          70
 IAtWgt=          12          12          12          12          12          12           1           1           1           1
 AtmWgt=  12.0000000  12.0000000  12.0000000  12.0000000  12.0000000  12.0000000   1.0078250   1.0078250   1.0078250   1.0078250
 NucSpn=           0           0           0           0           0           0           1           1           1           1
 AtZEff=  -0.0000000  -0.0000000  -0.0000000  -0.0000000  -0.0000000  -0.0000000  -0.0000000  -0.0000000  -0.0000000  -0.0000000
 NQMom=    0.0000000   0.0000000   0.0000000   0.0000000   0.0000000   0.0000000   0.0000000   0.0000000   0.0000000   0.0000000
 NMagM=    0.0000000   0.0000000   0.0000000   0.0000000   0.0000000   0.0000000   2.7928460   2.7928460   2.7928460   2.7928460
 AtZNuc=   6.0000000   6.0000000   6.0000000   6.0000000   6.0000000   6.0000000   1.0000000   1.0000000   1.0000000   1.0000000

  Atom        71          72          73          74
 IAtWgt=           1           1           1           1
 AtmWgt=   1.0078250   1.0078250   1.0078250   1.0078250
 NucSpn=           1           1           1           1
 AtZEff=  -0.0000000  -0.0000000  -0.0000000  -0.0000000
 NQMom=    0.0000000   0.0000000   0.0000000   0.0000000
 NMagM=    2.7928460   2.7928460   2.7928460   2.7928460
 AtZNuc=   1.0000000   1.0000000   1.0000000   1.0000000
 Leave Link  101 at Wed Jul 20 11:33:36 2022, MaxMem=  1342177280 cpu:              28.4 elap:               0.6
 (Enter /home/mkliu/g16/l103.exe)

 GradGradGradGradGradGradGradGradGradGradGradGradGradGradGradGradGradGrad
 Berny optimization.
 Initialization pass.
                           ----------------------------
                           !    Initial Parameters    !
                           ! (Angstroms and Degrees)  !
 --------------------------                            --------------------------
 ! Name  Definition              Value          Derivative Info.                !
 --------------------------------------------------------------------------------
 ! R1    R(1,2)                  1.3853         estimate D2E/DX2                !
 ! R2    R(1,41)                 1.4397         estimate D2E/DX2                !
 ! R3    R(1,65)                 1.4433         estimate D2E/DX2                !
 ! R4    R(2,3)                  1.4399         estimate D2E/DX2                !
 ! R5    R(2,8)                  1.4404         estimate D2E/DX2                !
 ! R6    R(3,4)                  1.3914         estimate D2E/DX2                !
 ! R7    R(3,5)                  1.4217         estimate D2E/DX2                !
 ! R8    R(4,26)                 1.4364         estimate D2E/DX2                !
 ! R9    R(4,39)                 1.4335         estimate D2E/DX2                !
 ! R10   R(5,6)                  1.4634         estimate D2E/DX2                !
 ! R11   R(5,13)                 1.3724         estimate D2E/DX2                !
 ! R12   R(6,8)                  1.438          estimate D2E/DX2                !
 ! R13   R(6,9)                  1.37           estimate D2E/DX2                !
 ! R14   R(7,10)                 1.5742         estimate D2E/DX2                !
 ! R15   R(7,23)                 1.5053         estimate D2E/DX2                !
 ! R16   R(7,28)                 1.5153         estimate D2E/DX2                !
 ! R17   R(7,67)                 1.0955         estimate D2E/DX2                !
 ! R18   R(8,63)                 1.3939         estimate D2E/DX2                !
 ! R19   R(9,11)                 1.5118         estimate D2E/DX2                !
 ! R20   R(9,61)                 1.4277         estimate D2E/DX2                !
 ! R21   R(10,21)                1.5477         estimate D2E/DX2                !
 ! R22   R(10,30)                1.4908         estimate D2E/DX2                !
 ! R23   R(10,68)                1.0929         estimate D2E/DX2                !
 ! R24   R(11,12)                1.5777         estimate D2E/DX2                !
 ! R25   R(11,59)                1.5121         estimate D2E/DX2                !
 ! R26   R(11,73)                1.0945         estimate D2E/DX2                !
 ! R27   R(12,13)                1.5048         estimate D2E/DX2                !
 ! R28   R(12,15)                1.5023         estimate D2E/DX2                !
 ! R29   R(12,74)                1.0957         estimate D2E/DX2                !
 ! R30   R(13,25)                1.4331         estimate D2E/DX2                !
 ! R31   R(14,16)                1.3911         estimate D2E/DX2                !
 ! R32   R(14,45)                1.4341         estimate D2E/DX2                !
 ! R33   R(14,55)                1.4235         estimate D2E/DX2                !
 ! R34   R(15,24)                1.4178         estimate D2E/DX2                !
 ! R35   R(15,57)                1.3791         estimate D2E/DX2                !
 ! R36   R(16,17)                1.4142         estimate D2E/DX2                !
 ! R37   R(16,58)                1.4401         estimate D2E/DX2                !
 ! R38   R(17,48)                1.376          estimate D2E/DX2                !
 ! R39   R(17,56)                1.4494         estimate D2E/DX2                !
 ! R40   R(18,19)                1.4728         estimate D2E/DX2                !
 ! R41   R(18,40)                1.3787         estimate D2E/DX2                !
 ! R42   R(18,47)                1.4483         estimate D2E/DX2                !
 ! R43   R(19,20)                1.3844         estimate D2E/DX2                !
 ! R44   R(19,51)                1.451          estimate D2E/DX2                !
 ! R45   R(20,45)                1.4729         estimate D2E/DX2                !
 ! R46   R(20,54)                1.4504         estimate D2E/DX2                !
 ! R47   R(21,22)                1.4986         estimate D2E/DX2                !
 ! R48   R(21,50)                1.5921         estimate D2E/DX2                !
 ! R49   R(21,69)                1.0945         estimate D2E/DX2                !
 ! R50   R(22,23)                1.3964         estimate D2E/DX2                !
 ! R51   R(22,56)                1.381          estimate D2E/DX2                !
 ! R52   R(23,24)                1.397          estimate D2E/DX2                !
 ! R53   R(24,25)                1.4646         estimate D2E/DX2                !
 ! R54   R(25,26)                1.3919         estimate D2E/DX2                !
 ! R55   R(26,27)                1.4723         estimate D2E/DX2                !
 ! R56   R(27,28)                1.3777         estimate D2E/DX2                !
 ! R57   R(27,38)                1.448          estimate D2E/DX2                !
 ! R58   R(28,29)                1.4266         estimate D2E/DX2                !
 ! R59   R(29,30)                1.4238         estimate D2E/DX2                !
 ! R60   R(29,35)                1.3864         estimate D2E/DX2                !
 ! R61   R(30,31)                1.3602         estimate D2E/DX2                !
 ! R62   R(31,32)                1.4237         estimate D2E/DX2                !
 ! R63   R(31,33)                1.4905         estimate D2E/DX2                !
 ! R64   R(32,34)                1.3859         estimate D2E/DX2                !
 ! R65   R(32,40)                1.4271         estimate D2E/DX2                !
 ! R66   R(33,37)                1.5735         estimate D2E/DX2                !
 ! R67   R(33,50)                1.5477         estimate D2E/DX2                !
 ! R68   R(33,71)                1.0929         estimate D2E/DX2                !
 ! R69   R(34,35)                1.4297         estimate D2E/DX2                !
 ! R70   R(34,44)                1.4221         estimate D2E/DX2                !
 ! R71   R(35,36)                1.4221         estimate D2E/DX2                !
 ! R72   R(36,38)                1.3893         estimate D2E/DX2                !
 ! R73   R(36,43)                1.4426         estimate D2E/DX2                !
 ! R74   R(37,40)                1.5175         estimate D2E/DX2                !
 ! R75   R(37,46)                1.5055         estimate D2E/DX2                !
 ! R76   R(37,72)                1.0954         estimate D2E/DX2                !
 ! R77   R(38,39)                1.4301         estimate D2E/DX2                !
 ! R78   R(39,41)                1.3919         estimate D2E/DX2                !
 ! R79   R(41,42)                1.4394         estimate D2E/DX2                !
 ! R80   R(42,43)                1.3833         estimate D2E/DX2                !
 ! R81   R(42,66)                1.44           estimate D2E/DX2                !
 ! R82   R(43,44)                1.4424         estimate D2E/DX2                !
 ! R83   R(44,47)                1.3887         estimate D2E/DX2                !
 ! R84   R(45,46)                1.3875         estimate D2E/DX2                !
 ! R85   R(46,48)                1.4097         estimate D2E/DX2                !
 ! R86   R(47,49)                1.4299         estimate D2E/DX2                !
 ! R87   R(48,50)                1.4983         estimate D2E/DX2                !
 ! R88   R(49,51)                1.4309         estimate D2E/DX2                !
 ! R89   R(49,66)                1.3941         estimate D2E/DX2                !
 ! R90   R(50,70)                1.0948         estimate D2E/DX2                !
 ! R91   R(51,52)                1.389          estimate D2E/DX2                !
 ! R92   R(52,53)                1.4261         estimate D2E/DX2                !
 ! R93   R(52,64)                1.4432         estimate D2E/DX2                !
 ! R94   R(53,54)                1.3869         estimate D2E/DX2                !
 ! R95   R(53,62)                1.4424         estimate D2E/DX2                !
 ! R96   R(54,55)                1.4307         estimate D2E/DX2                !
 ! R97   R(55,60)                1.3942         estimate D2E/DX2                !
 ! R98   R(56,57)                1.4109         estimate D2E/DX2                !
 ! R99   R(57,58)                1.4606         estimate D2E/DX2                !
 ! R100  R(58,59)                1.3647         estimate D2E/DX2                !
 ! R101  R(59,60)                1.4277         estimate D2E/DX2                !
 ! R102  R(60,61)                1.4336         estimate D2E/DX2                !
 ! R103  R(61,62)                1.3907         estimate D2E/DX2                !
 ! R104  R(62,63)                1.4326         estimate D2E/DX2                !
 ! R105  R(63,64)                1.4413         estimate D2E/DX2                !
 ! R106  R(64,65)                1.3855         estimate D2E/DX2                !
 ! R107  R(65,66)                1.4375         estimate D2E/DX2                !
 ! A1    A(2,1,41)             119.817          estimate D2E/DX2                !
 ! A2    A(2,1,65)             119.7495         estimate D2E/DX2                !
 ! A3    A(41,1,65)            107.8965         estimate D2E/DX2                !
 ! A4    A(1,2,3)              119.9929         estimate D2E/DX2                !
 ! A5    A(1,2,8)              120.6416         estimate D2E/DX2                !
 ! A6    A(3,2,8)              107.5797         estimate D2E/DX2                !
 ! A7    A(2,3,4)              120.356          estimate D2E/DX2                !
 ! A8    A(2,3,5)              108.8044         estimate D2E/DX2                !
 ! A9    A(4,3,5)              119.3705         estimate D2E/DX2                !
 ! A10   A(3,4,26)             121.9168         estimate D2E/DX2                !
 ! A11   A(3,4,39)             119.0403         estimate D2E/DX2                !
 ! A12   A(26,4,39)            109.2449         estimate D2E/DX2                !
 ! A13   A(3,5,6)              107.8902         estimate D2E/DX2                !
 ! A14   A(3,5,13)             119.1148         estimate D2E/DX2                !
 ! A15   A(6,5,13)             120.4794         estimate D2E/DX2                !
 ! A16   A(5,6,8)              107.1158         estimate D2E/DX2                !
 ! A17   A(5,6,9)              119.7374         estimate D2E/DX2                !
 ! A18   A(8,6,9)              120.6036         estimate D2E/DX2                !
 ! A19   A(10,7,23)            103.9664         estimate D2E/DX2                !
 ! A20   A(10,7,28)            105.6076         estimate D2E/DX2                !
 ! A21   A(10,7,67)            112.1598         estimate D2E/DX2                !
 ! A22   A(23,7,28)            113.4503         estimate D2E/DX2                !
 ! A23   A(23,7,67)            110.6611         estimate D2E/DX2                !
 ! A24   A(28,7,67)            110.7415         estimate D2E/DX2                !
 ! A25   A(2,8,6)              108.4639         estimate D2E/DX2                !
 ! A26   A(2,8,63)             119.3485         estimate D2E/DX2                !
 ! A27   A(6,8,63)             120.4309         estimate D2E/DX2                !
 ! A28   A(6,9,11)             123.6135         estimate D2E/DX2                !
 ! A29   A(6,9,61)             118.8969         estimate D2E/DX2                !
 ! A30   A(11,9,61)            110.487          estimate D2E/DX2                !
 ! A31   A(7,10,21)            108.5849         estimate D2E/DX2                !
 ! A32   A(7,10,30)            102.9765         estimate D2E/DX2                !
 ! A33   A(7,10,68)            111.1192         estimate D2E/DX2                !
 ! A34   A(21,10,30)           112.3443         estimate D2E/DX2                !
 ! A35   A(21,10,68)           110.6322         estimate D2E/DX2                !
 ! A36   A(30,10,68)           110.9361         estimate D2E/DX2                !
 ! A37   A(9,11,12)            114.0215         estimate D2E/DX2                !
 ! A38   A(9,11,59)            100.7678         estimate D2E/DX2                !
 ! A39   A(9,11,73)            110.2549         estimate D2E/DX2                !
 ! A40   A(12,11,59)           113.614          estimate D2E/DX2                !
 ! A41   A(12,11,73)           107.6019         estimate D2E/DX2                !
 ! A42   A(59,11,73)           110.5052         estimate D2E/DX2                !
 ! A43   A(11,12,13)           115.4236         estimate D2E/DX2                !
 ! A44   A(11,12,15)           115.2331         estimate D2E/DX2                !
 ! A45   A(11,12,74)           107.1024         estimate D2E/DX2                !
 ! A46   A(13,12,15)           100.0008         estimate D2E/DX2                !
 ! A47   A(13,12,74)           109.5074         estimate D2E/DX2                !
 ! A48   A(15,12,74)           109.3599         estimate D2E/DX2                !
 ! A49   A(5,13,12)            122.0175         estimate D2E/DX2                !
 ! A50   A(5,13,25)            121.8178         estimate D2E/DX2                !
 ! A51   A(12,13,25)           111.618          estimate D2E/DX2                !
 ! A52   A(16,14,45)           121.5983         estimate D2E/DX2                !
 ! A53   A(16,14,55)           118.831          estimate D2E/DX2                !
 ! A54   A(45,14,55)           109.9178         estimate D2E/DX2                !
 ! A55   A(12,15,24)           112.1955         estimate D2E/DX2                !
 ! A56   A(12,15,57)           122.7196         estimate D2E/DX2                !
 ! A57   A(24,15,57)           120.4327         estimate D2E/DX2                !
 ! A58   A(14,16,17)           118.2801         estimate D2E/DX2                !
 ! A59   A(14,16,58)           120.2075         estimate D2E/DX2                !
 ! A60   A(17,16,58)           109.4076         estimate D2E/DX2                !
 ! A61   A(16,17,48)           120.2104         estimate D2E/DX2                !
 ! A62   A(16,17,56)           107.5065         estimate D2E/DX2                !
 ! A63   A(48,17,56)           118.7166         estimate D2E/DX2                !
 ! A64   A(19,18,40)           129.0369         estimate D2E/DX2                !
 ! A65   A(19,18,47)           106.4343         estimate D2E/DX2                !
 ! A66   A(40,18,47)           118.8385         estimate D2E/DX2                !
 ! A67   A(18,19,20)           126.956          estimate D2E/DX2                !
 ! A68   A(18,19,51)           107.1133         estimate D2E/DX2                !
 ! A69   A(20,19,51)           118.4688         estimate D2E/DX2                !
 ! A70   A(19,20,45)           127.3073         estimate D2E/DX2                !
 ! A71   A(19,20,54)           118.3493         estimate D2E/DX2                !
 ! A72   A(45,20,54)           106.837          estimate D2E/DX2                !
 ! A73   A(10,21,22)           102.2073         estimate D2E/DX2                !
 ! A74   A(10,21,50)           119.0749         estimate D2E/DX2                !
 ! A75   A(10,21,69)           108.478          estimate D2E/DX2                !
 ! A76   A(22,21,50)           112.7436         estimate D2E/DX2                !
 ! A77   A(22,21,69)           108.5238         estimate D2E/DX2                !
 ! A78   A(50,21,69)           105.4892         estimate D2E/DX2                !
 ! A79   A(21,22,23)           114.9            estimate D2E/DX2                !
 ! A80   A(21,22,56)           121.8153         estimate D2E/DX2                !
 ! A81   A(23,22,56)           120.3948         estimate D2E/DX2                !
 ! A82   A(7,23,22)            109.5934         estimate D2E/DX2                !
 ! A83   A(7,23,24)            129.5652         estimate D2E/DX2                !
 ! A84   A(22,23,24)           119.4772         estimate D2E/DX2                !
 ! A85   A(15,24,23)           119.1312         estimate D2E/DX2                !
 ! A86   A(15,24,25)           107.1712         estimate D2E/DX2                !
 ! A87   A(23,24,25)           129.0853         estimate D2E/DX2                !
 ! A88   A(13,25,24)           107.0463         estimate D2E/DX2                !
 ! A89   A(13,25,26)           119.7111         estimate D2E/DX2                !
 ! A90   A(24,25,26)           127.3703         estimate D2E/DX2                !
 ! A91   A(4,26,25)            117.7549         estimate D2E/DX2                !
 ! A92   A(4,26,27)            107.3038         estimate D2E/DX2                !
 ! A93   A(25,26,27)           127.2363         estimate D2E/DX2                !
 ! A94   A(26,27,28)           128.9938         estimate D2E/DX2                !
 ! A95   A(26,27,38)           106.375          estimate D2E/DX2                !
 ! A96   A(28,27,38)           118.8796         estimate D2E/DX2                !
 ! A97   A(7,28,27)            130.4569         estimate D2E/DX2                !
 ! A98   A(7,28,29)            107.9826         estimate D2E/DX2                !
 ! A99   A(27,28,29)           118.3566         estimate D2E/DX2                !
 ! A100  A(28,29,30)           109.5262         estimate D2E/DX2                !
 ! A101  A(28,29,35)           122.252          estimate D2E/DX2                !
 ! A102  A(30,29,35)           120.2207         estimate D2E/DX2                !
 ! A103  A(10,30,29)           109.8542         estimate D2E/DX2                !
 ! A104  A(10,30,31)           125.6616         estimate D2E/DX2                !
 ! A105  A(29,30,31)           119.4732         estimate D2E/DX2                !
 ! A106  A(30,31,32)           119.5028         estimate D2E/DX2                !
 ! A107  A(30,31,33)           125.6503         estimate D2E/DX2                !
 ! A108  A(32,31,33)           109.8582         estimate D2E/DX2                !
 ! A109  A(31,32,34)           120.151          estimate D2E/DX2                !
 ! A110  A(31,32,40)           109.5953         estimate D2E/DX2                !
 ! A111  A(34,32,40)           122.3563         estimate D2E/DX2                !
 ! A112  A(31,33,37)           103.0978         estimate D2E/DX2                !
 ! A113  A(31,33,50)           112.2302         estimate D2E/DX2                !
 ! A114  A(31,33,71)           110.9336         estimate D2E/DX2                !
 ! A115  A(37,33,50)           108.6179         estimate D2E/DX2                !
 ! A116  A(37,33,71)           111.1175         estimate D2E/DX2                !
 ! A117  A(50,33,71)           110.6061         estimate D2E/DX2                !
 ! A118  A(32,34,35)           118.8004         estimate D2E/DX2                !
 ! A119  A(32,34,44)           119.8296         estimate D2E/DX2                !
 ! A120  A(35,34,44)           108.147          estimate D2E/DX2                !
 ! A121  A(29,35,34)           118.6361         estimate D2E/DX2                !
 ! A122  A(29,35,36)           119.8435         estimate D2E/DX2                !
 ! A123  A(34,35,36)           108.1434         estimate D2E/DX2                !
 ! A124  A(35,36,38)           117.7918         estimate D2E/DX2                !
 ! A125  A(35,36,43)           108.2758         estimate D2E/DX2                !
 ! A126  A(38,36,43)           119.7055         estimate D2E/DX2                !
 ! A127  A(33,37,40)           105.5967         estimate D2E/DX2                !
 ! A128  A(33,37,46)           104.2226         estimate D2E/DX2                !
 ! A129  A(33,37,72)           112.2008         estimate D2E/DX2                !
 ! A130  A(40,37,46)           113.1711         estimate D2E/DX2                !
 ! A131  A(40,37,72)           110.7411         estimate D2E/DX2                !
 ! A132  A(46,37,72)           110.6676         estimate D2E/DX2                !
 ! A133  A(27,38,36)           122.0288         estimate D2E/DX2                !
 ! A134  A(27,38,39)           109.441          estimate D2E/DX2                !
 ! A135  A(36,38,39)           119.2711         estimate D2E/DX2                !
 ! A136  A(4,39,38)            107.4674         estimate D2E/DX2                !
 ! A137  A(4,39,41)            120.6555         estimate D2E/DX2                !
 ! A138  A(38,39,41)           120.8085         estimate D2E/DX2                !
 ! A139  A(18,40,32)           118.2948         estimate D2E/DX2                !
 ! A140  A(18,40,37)           130.7832         estimate D2E/DX2                !
 ! A141  A(32,40,37)           107.8817         estimate D2E/DX2                !
 ! A142  A(1,41,39)            119.6918         estimate D2E/DX2                !
 ! A143  A(1,41,42)            107.9951         estimate D2E/DX2                !
 ! A144  A(39,41,42)           119.1954         estimate D2E/DX2                !
 ! A145  A(41,42,43)           120.0098         estimate D2E/DX2                !
 ! A146  A(41,42,66)           107.8405         estimate D2E/DX2                !
 ! A147  A(43,42,66)           120.006          estimate D2E/DX2                !
 ! A148  A(36,43,42)           119.9988         estimate D2E/DX2                !
 ! A149  A(36,43,44)           106.759          estimate D2E/DX2                !
 ! A150  A(42,43,44)           119.9188         estimate D2E/DX2                !
 ! A151  A(34,44,43)           108.284          estimate D2E/DX2                !
 ! A152  A(34,44,47)           117.7565         estimate D2E/DX2                !
 ! A153  A(43,44,47)           119.8757         estimate D2E/DX2                !
 ! A154  A(14,45,20)           106.6505         estimate D2E/DX2                !
 ! A155  A(14,45,46)           118.0152         estimate D2E/DX2                !
 ! A156  A(20,45,46)           129.6058         estimate D2E/DX2                !
 ! A157  A(37,46,45)           129.1509         estimate D2E/DX2                !
 ! A158  A(37,46,48)           109.4578         estimate D2E/DX2                !
 ! A159  A(45,46,48)           119.8798         estimate D2E/DX2                !
 ! A160  A(18,47,44)           122.1622         estimate D2E/DX2                !
 ! A161  A(18,47,49)           109.6137         estimate D2E/DX2                !
 ! A162  A(44,47,49)           119.2247         estimate D2E/DX2                !
 ! A163  A(17,48,46)           121.245          estimate D2E/DX2                !
 ! A164  A(17,48,50)           121.5853         estimate D2E/DX2                !
 ! A165  A(46,48,50)           114.5362         estimate D2E/DX2                !
 ! A166  A(47,49,51)           107.7155         estimate D2E/DX2                !
 ! A167  A(47,49,66)           120.7451         estimate D2E/DX2                !
 ! A168  A(51,49,66)           120.7942         estimate D2E/DX2                !
 ! A169  A(21,50,33)           119.146          estimate D2E/DX2                !
 ! A170  A(21,50,48)           112.9289         estimate D2E/DX2                !
 ! A171  A(21,50,70)           105.4062         estimate D2E/DX2                !
 ! A172  A(33,50,48)           102.5038         estimate D2E/DX2                !
 ! A173  A(33,50,70)           108.3105         estimate D2E/DX2                !
 ! A174  A(48,50,70)           108.159          estimate D2E/DX2                !
 ! A175  A(19,51,49)           108.9767         estimate D2E/DX2                !
 ! A176  A(19,51,52)           122.6602         estimate D2E/DX2                !
 ! A177  A(49,51,52)           118.8413         estimate D2E/DX2                !
 ! A178  A(51,52,53)           118.7684         estimate D2E/DX2                !
 ! A179  A(51,52,64)           120.6247         estimate D2E/DX2                !
 ! A180  A(53,52,64)           108.1852         estimate D2E/DX2                !
 ! A181  A(52,53,54)           118.8979         estimate D2E/DX2                !
 ! A182  A(52,53,62)           108.1701         estimate D2E/DX2                !
 ! A183  A(54,53,62)           120.4836         estimate D2E/DX2                !
 ! A184  A(20,54,53)           122.7399         estimate D2E/DX2                !
 ! A185  A(20,54,55)           108.7776         estimate D2E/DX2                !
 ! A186  A(53,54,55)           118.7547         estimate D2E/DX2                !
 ! A187  A(14,55,54)           107.675          estimate D2E/DX2                !
 ! A188  A(14,55,60)           119.867          estimate D2E/DX2                !
 ! A189  A(54,55,60)           121.0171         estimate D2E/DX2                !
 ! A190  A(17,56,22)           117.8244         estimate D2E/DX2                !
 ! A191  A(17,56,57)           108.1071         estimate D2E/DX2                !
 ! A192  A(22,56,57)           120.4385         estimate D2E/DX2                !
 ! A193  A(15,57,56)           118.9379         estimate D2E/DX2                !
 ! A194  A(15,57,58)           118.9171         estimate D2E/DX2                !
 ! A195  A(56,57,58)           108.5948         estimate D2E/DX2                !
 ! A196  A(16,58,57)           105.7791         estimate D2E/DX2                !
 ! A197  A(16,58,59)           120.3592         estimate D2E/DX2                !
 ! A198  A(57,58,59)           120.4824         estimate D2E/DX2                !
 ! A199  A(11,59,58)           123.6463         estimate D2E/DX2                !
 ! A200  A(11,59,60)           110.5962         estimate D2E/DX2                !
 ! A201  A(58,59,60)           119.302          estimate D2E/DX2                !
 ! A202  A(55,60,59)           120.7618         estimate D2E/DX2                !
 ! A203  A(55,60,61)           119.6067         estimate D2E/DX2                !
 ! A204  A(59,60,61)           108.3783         estimate D2E/DX2                !
 ! A205  A(9,61,60)            108.1364         estimate D2E/DX2                !
 ! A206  A(9,61,62)            121.3654         estimate D2E/DX2                !
 ! A207  A(60,61,62)           119.6512         estimate D2E/DX2                !
 ! A208  A(53,62,61)           119.9236         estimate D2E/DX2                !
 ! A209  A(53,62,63)           107.8883         estimate D2E/DX2                !
 ! A210  A(61,62,63)           119.6214         estimate D2E/DX2                !
 ! A211  A(8,63,62)            118.8726         estimate D2E/DX2                !
 ! A212  A(8,63,64)            119.9501         estimate D2E/DX2                !
 ! A213  A(62,63,64)           108.0833         estimate D2E/DX2                !
 ! A214  A(52,64,63)           107.5843         estimate D2E/DX2                !
 ! A215  A(52,64,65)           119.6926         estimate D2E/DX2                !
 ! A216  A(63,64,65)           120.2748         estimate D2E/DX2                !
 ! A217  A(1,65,64)            119.8111         estimate D2E/DX2                !
 ! A218  A(1,65,66)            107.8847         estimate D2E/DX2                !
 ! A219  A(64,65,66)           119.8916         estimate D2E/DX2                !
 ! A220  A(42,66,49)           119.2017         estimate D2E/DX2                !
 ! A221  A(42,66,65)           108.0738         estimate D2E/DX2                !
 ! A222  A(49,66,65)           119.6367         estimate D2E/DX2                !
 ! D1    D(41,1,2,3)            -3.1437         estimate D2E/DX2                !
 ! D2    D(41,1,2,8)          -141.4954         estimate D2E/DX2                !
 ! D3    D(65,1,2,3)           134.2058         estimate D2E/DX2                !
 ! D4    D(65,1,2,8)            -4.1459         estimate D2E/DX2                !
 ! D5    D(2,1,41,39)            4.0027         estimate D2E/DX2                !
 ! D6    D(2,1,41,42)          144.8632         estimate D2E/DX2                !
 ! D7    D(65,1,41,39)        -137.8169         estimate D2E/DX2                !
 ! D8    D(65,1,41,42)           3.0436         estimate D2E/DX2                !
 ! D9    D(2,1,65,64)            0.6098         estimate D2E/DX2                !
 ! D10   D(2,1,65,66)         -141.4287         estimate D2E/DX2                !
 ! D11   D(41,1,65,64)         142.4598         estimate D2E/DX2                !
 ! D12   D(41,1,65,66)           0.4212         estimate D2E/DX2                !
 ! D13   D(1,2,3,4)             -2.4823         estimate D2E/DX2                !
 ! D14   D(1,2,3,5)           -145.5984         estimate D2E/DX2                !
 ! D15   D(8,2,3,4)            140.6638         estimate D2E/DX2                !
 ! D16   D(8,2,3,5)             -2.4523         estimate D2E/DX2                !
 ! D17   D(1,2,8,6)            146.6902         estimate D2E/DX2                !
 ! D18   D(1,2,8,63)             3.526          estimate D2E/DX2                !
 ! D19   D(3,2,8,6)              3.83           estimate D2E/DX2                !
 ! D20   D(3,2,8,63)          -139.3343         estimate D2E/DX2                !
 ! D21   D(2,3,4,26)          -135.0657         estimate D2E/DX2                !
 ! D22   D(2,3,4,39)             7.1178         estimate D2E/DX2                !
 ! D23   D(5,3,4,26)             4.245          estimate D2E/DX2                !
 ! D24   D(5,3,4,39)           146.4285         estimate D2E/DX2                !
 ! D25   D(2,3,5,6)              0.1602         estimate D2E/DX2                !
 ! D26   D(2,3,5,13)           142.3332         estimate D2E/DX2                !
 ! D27   D(4,3,5,6)           -143.3773         estimate D2E/DX2                !
 ! D28   D(4,3,5,13)            -1.2043         estimate D2E/DX2                !
 ! D29   D(3,4,26,25)           -2.0502         estimate D2E/DX2                !
 ! D30   D(3,4,26,27)          149.6078         estimate D2E/DX2                !
 ! D31   D(39,4,26,25)        -147.4547         estimate D2E/DX2                !
 ! D32   D(39,4,26,27)           4.2033         estimate D2E/DX2                !
 ! D33   D(3,4,39,38)         -150.4189         estimate D2E/DX2                !
 ! D34   D(3,4,39,41)           -6.2578         estimate D2E/DX2                !
 ! D35   D(26,4,39,38)          -3.8712         estimate D2E/DX2                !
 ! D36   D(26,4,39,41)         140.2898         estimate D2E/DX2                !
 ! D37   D(3,5,6,8)              2.1916         estimate D2E/DX2                !
 ! D38   D(3,5,6,9)            144.3201         estimate D2E/DX2                !
 ! D39   D(13,5,6,8)          -139.3679         estimate D2E/DX2                !
 ! D40   D(13,5,6,9)             2.7606         estimate D2E/DX2                !
 ! D41   D(3,5,13,12)         -158.0114         estimate D2E/DX2                !
 ! D42   D(3,5,13,25)           -3.9425         estimate D2E/DX2                !
 ! D43   D(6,5,13,12)          -20.6373         estimate D2E/DX2                !
 ! D44   D(6,5,13,25)          133.4316         estimate D2E/DX2                !
 ! D45   D(5,6,8,2)             -3.7117         estimate D2E/DX2                !
 ! D46   D(5,6,8,63)           138.9825         estimate D2E/DX2                !
 ! D47   D(9,6,8,2)           -145.4459         estimate D2E/DX2                !
 ! D48   D(9,6,8,63)            -2.7516         estimate D2E/DX2                !
 ! D49   D(5,6,9,11)            15.7305         estimate D2E/DX2                !
 ! D50   D(5,6,9,61)          -132.1503         estimate D2E/DX2                !
 ! D51   D(8,6,9,11)           152.7577         estimate D2E/DX2                !
 ! D52   D(8,6,9,61)             4.8769         estimate D2E/DX2                !
 ! D53   D(23,7,10,21)          -8.6789         estimate D2E/DX2                !
 ! D54   D(23,7,10,30)         110.6013         estimate D2E/DX2                !
 ! D55   D(23,7,10,68)        -130.5761         estimate D2E/DX2                !
 ! D56   D(28,7,10,21)        -128.3653         estimate D2E/DX2                !
 ! D57   D(28,7,10,30)          -9.0851         estimate D2E/DX2                !
 ! D58   D(28,7,10,68)         109.7376         estimate D2E/DX2                !
 ! D59   D(67,7,10,21)         110.9168         estimate D2E/DX2                !
 ! D60   D(67,7,10,30)        -129.8029         estimate D2E/DX2                !
 ! D61   D(67,7,10,68)         -10.9803         estimate D2E/DX2                !
 ! D62   D(10,7,23,22)           7.8858         estimate D2E/DX2                !
 ! D63   D(10,7,23,24)        -158.4399         estimate D2E/DX2                !
 ! D64   D(28,7,23,22)         122.0962         estimate D2E/DX2                !
 ! D65   D(28,7,23,24)         -44.2295         estimate D2E/DX2                !
 ! D66   D(67,7,23,22)        -112.7237         estimate D2E/DX2                !
 ! D67   D(67,7,23,24)          80.9506         estimate D2E/DX2                !
 ! D68   D(10,7,28,27)         156.0548         estimate D2E/DX2                !
 ! D69   D(10,7,28,29)          -2.8632         estimate D2E/DX2                !
 ! D70   D(23,7,28,27)          42.8306         estimate D2E/DX2                !
 ! D71   D(23,7,28,29)        -116.0875         estimate D2E/DX2                !
 ! D72   D(67,7,28,27)         -82.3064         estimate D2E/DX2                !
 ! D73   D(67,7,28,29)         118.7756         estimate D2E/DX2                !
 ! D74   D(2,8,63,62)          137.2284         estimate D2E/DX2                !
 ! D75   D(2,8,63,64)            0.6091         estimate D2E/DX2                !
 ! D76   D(6,8,63,62)           -1.5087         estimate D2E/DX2                !
 ! D77   D(6,8,63,64)         -138.128          estimate D2E/DX2                !
 ! D78   D(6,9,11,12)          -15.2602         estimate D2E/DX2                !
 ! D79   D(6,9,11,59)         -137.3449         estimate D2E/DX2                !
 ! D80   D(6,9,11,73)          105.8952         estimate D2E/DX2                !
 ! D81   D(61,9,11,12)         134.9439         estimate D2E/DX2                !
 ! D82   D(61,9,11,59)          12.8591         estimate D2E/DX2                !
 ! D83   D(61,9,11,73)        -103.9007         estimate D2E/DX2                !
 ! D84   D(6,9,61,60)          141.1716         estimate D2E/DX2                !
 ! D85   D(6,9,61,62)           -2.8605         estimate D2E/DX2                !
 ! D86   D(11,9,61,60)         -10.6202         estimate D2E/DX2                !
 ! D87   D(11,9,61,62)        -154.6523         estimate D2E/DX2                !
 ! D88   D(7,10,21,22)           6.1943         estimate D2E/DX2                !
 ! D89   D(7,10,21,50)         131.1451         estimate D2E/DX2                !
 ! D90   D(7,10,21,69)        -108.3257         estimate D2E/DX2                !
 ! D91   D(30,10,21,22)       -107.0309         estimate D2E/DX2                !
 ! D92   D(30,10,21,50)         17.92           estimate D2E/DX2                !
 ! D93   D(30,10,21,69)        138.4491         estimate D2E/DX2                !
 ! D94   D(68,10,21,22)        128.3881         estimate D2E/DX2                !
 ! D95   D(68,10,21,50)       -106.661          estimate D2E/DX2                !
 ! D96   D(68,10,21,69)         13.8681         estimate D2E/DX2                !
 ! D97   D(7,10,30,29)          18.3649         estimate D2E/DX2                !
 ! D98   D(7,10,30,31)        -136.184          estimate D2E/DX2                !
 ! D99   D(21,10,30,29)        135.0015         estimate D2E/DX2                !
 ! D100  D(21,10,30,31)        -19.5474         estimate D2E/DX2                !
 ! D101  D(68,10,30,29)       -100.5853         estimate D2E/DX2                !
 ! D102  D(68,10,30,31)        104.8657         estimate D2E/DX2                !
 ! D103  D(9,11,12,13)          -1.8314         estimate D2E/DX2                !
 ! D104  D(9,11,12,15)        -117.7171         estimate D2E/DX2                !
 ! D105  D(9,11,12,74)         120.3835         estimate D2E/DX2                !
 ! D106  D(59,11,12,13)        112.882          estimate D2E/DX2                !
 ! D107  D(59,11,12,15)         -3.0037         estimate D2E/DX2                !
 ! D108  D(59,11,12,74)       -124.9031         estimate D2E/DX2                !
 ! D109  D(73,11,12,13)       -124.4493         estimate D2E/DX2                !
 ! D110  D(73,11,12,15)        119.6649         estimate D2E/DX2                !
 ! D111  D(73,11,12,74)         -2.2344         estimate D2E/DX2                !
 ! D112  D(9,11,59,58)         140.632          estimate D2E/DX2                !
 ! D113  D(9,11,59,60)         -10.7896         estimate D2E/DX2                !
 ! D114  D(12,11,59,58)         18.2618         estimate D2E/DX2                !
 ! D115  D(12,11,59,60)       -133.1597         estimate D2E/DX2                !
 ! D116  D(73,11,59,58)       -102.7932         estimate D2E/DX2                !
 ! D117  D(73,11,59,60)        105.7852         estimate D2E/DX2                !
 ! D118  D(11,12,13,5)          19.3199         estimate D2E/DX2                !
 ! D119  D(11,12,13,25)       -137.1211         estimate D2E/DX2                !
 ! D120  D(15,12,13,5)         143.5915         estimate D2E/DX2                !
 ! D121  D(15,12,13,25)        -12.8495         estimate D2E/DX2                !
 ! D122  D(74,12,13,5)        -101.6            estimate D2E/DX2                !
 ! D123  D(74,12,13,25)        101.959          estimate D2E/DX2                !
 ! D124  D(11,12,15,24)        138.3217         estimate D2E/DX2                !
 ! D125  D(11,12,15,57)        -17.5132         estimate D2E/DX2                !
 ! D126  D(13,12,15,24)         13.9181         estimate D2E/DX2                !
 ! D127  D(13,12,15,57)       -141.9168         estimate D2E/DX2                !
 ! D128  D(74,12,15,24)       -101.0027         estimate D2E/DX2                !
 ! D129  D(74,12,15,57)        103.1624         estimate D2E/DX2                !
 ! D130  D(5,13,25,24)        -148.7926         estimate D2E/DX2                !
 ! D131  D(5,13,25,26)           6.1545         estimate D2E/DX2                !
 ! D132  D(12,13,25,24)          7.7026         estimate D2E/DX2                !
 ! D133  D(12,13,25,26)        162.6497         estimate D2E/DX2                !
 ! D134  D(45,14,16,17)         -5.5947         estimate D2E/DX2                !
 ! D135  D(45,14,16,58)        132.9807         estimate D2E/DX2                !
 ! D136  D(55,14,16,17)       -148.2676         estimate D2E/DX2                !
 ! D137  D(55,14,16,58)         -9.6921         estimate D2E/DX2                !
 ! D138  D(16,14,45,20)       -146.2867         estimate D2E/DX2                !
 ! D139  D(16,14,45,46)          9.6143         estimate D2E/DX2                !
 ! D140  D(55,14,45,20)         -0.689          estimate D2E/DX2                !
 ! D141  D(55,14,45,46)        155.212          estimate D2E/DX2                !
 ! D142  D(16,14,55,54)        149.5161         estimate D2E/DX2                !
 ! D143  D(16,14,55,60)          5.7464         estimate D2E/DX2                !
 ! D144  D(45,14,55,54)          2.8368         estimate D2E/DX2                !
 ! D145  D(45,14,55,60)       -140.9329         estimate D2E/DX2                !
 ! D146  D(12,15,24,23)       -168.2892         estimate D2E/DX2                !
 ! D147  D(12,15,24,25)        -10.2167         estimate D2E/DX2                !
 ! D148  D(57,15,24,23)        -11.8327         estimate D2E/DX2                !
 ! D149  D(57,15,24,25)        146.2399         estimate D2E/DX2                !
 ! D150  D(12,15,57,56)        160.1027         estimate D2E/DX2                !
 ! D151  D(12,15,57,58)         23.9081         estimate D2E/DX2                !
 ! D152  D(24,15,57,56)          6.181          estimate D2E/DX2                !
 ! D153  D(24,15,57,58)       -130.0136         estimate D2E/DX2                !
 ! D154  D(14,16,17,48)         -2.5214         estimate D2E/DX2                !
 ! D155  D(14,16,17,56)        137.5326         estimate D2E/DX2                !
 ! D156  D(58,16,17,48)       -145.2035         estimate D2E/DX2                !
 ! D157  D(58,16,17,56)         -5.1495         estimate D2E/DX2                !
 ! D158  D(14,16,58,57)       -134.1085         estimate D2E/DX2                !
 ! D159  D(14,16,58,59)          6.826          estimate D2E/DX2                !
 ! D160  D(17,16,58,57)          7.7384         estimate D2E/DX2                !
 ! D161  D(17,16,58,59)        148.6729         estimate D2E/DX2                !
 ! D162  D(16,17,48,46)          6.5767         estimate D2E/DX2                !
 ! D163  D(16,17,48,50)        167.1747         estimate D2E/DX2                !
 ! D164  D(56,17,48,46)       -129.1406         estimate D2E/DX2                !
 ! D165  D(56,17,48,50)         31.4575         estimate D2E/DX2                !
 ! D166  D(16,17,56,22)       -140.4631         estimate D2E/DX2                !
 ! D167  D(16,17,56,57)          0.3664         estimate D2E/DX2                !
 ! D168  D(48,17,56,22)          0.289          estimate D2E/DX2                !
 ! D169  D(48,17,56,57)        141.1185         estimate D2E/DX2                !
 ! D170  D(40,18,19,20)          6.0758         estimate D2E/DX2                !
 ! D171  D(40,18,19,51)        154.9242         estimate D2E/DX2                !
 ! D172  D(47,18,19,20)       -146.3743         estimate D2E/DX2                !
 ! D173  D(47,18,19,51)          2.4741         estimate D2E/DX2                !
 ! D174  D(19,18,40,32)       -141.2523         estimate D2E/DX2                !
 ! D175  D(19,18,40,37)         16.4068         estimate D2E/DX2                !
 ! D176  D(47,18,40,32)          8.3213         estimate D2E/DX2                !
 ! D177  D(47,18,40,37)        165.9805         estimate D2E/DX2                !
 ! D178  D(19,18,47,44)        146.5283         estimate D2E/DX2                !
 ! D179  D(19,18,47,49)         -0.2279         estimate D2E/DX2                !
 ! D180  D(40,18,47,44)         -9.2593         estimate D2E/DX2                !
 ! D181  D(40,18,47,49)       -156.0155         estimate D2E/DX2                !
 ! D182  D(18,19,20,45)          0.6722         estimate D2E/DX2                !
 ! D183  D(18,19,20,54)        146.2528         estimate D2E/DX2                !
 ! D184  D(51,19,20,45)       -145.1053         estimate D2E/DX2                !
 ! D185  D(51,19,20,54)          0.4753         estimate D2E/DX2                !
 ! D186  D(18,19,51,49)         -3.8534         estimate D2E/DX2                !
 ! D187  D(18,19,51,52)       -149.5777         estimate D2E/DX2                !
 ! D188  D(20,19,51,49)        148.0968         estimate D2E/DX2                !
 ! D189  D(20,19,51,52)          2.3724         estimate D2E/DX2                !
 ! D190  D(19,20,45,14)        146.9981         estimate D2E/DX2                !
 ! D191  D(19,20,45,46)         -5.1059         estimate D2E/DX2                !
 ! D192  D(54,20,45,14)         -1.6874         estimate D2E/DX2                !
 ! D193  D(54,20,45,46)       -153.7914         estimate D2E/DX2                !
 ! D194  D(19,20,54,53)         -3.1793         estimate D2E/DX2                !
 ! D195  D(19,20,54,55)       -148.533          estimate D2E/DX2                !
 ! D196  D(45,20,54,53)        148.8038         estimate D2E/DX2                !
 ! D197  D(45,20,54,55)          3.4502         estimate D2E/DX2                !
 ! D198  D(10,21,22,23)         -1.2969         estimate D2E/DX2                !
 ! D199  D(10,21,22,56)        159.5095         estimate D2E/DX2                !
 ! D200  D(50,21,22,23)       -130.3327         estimate D2E/DX2                !
 ! D201  D(50,21,22,56)         30.4738         estimate D2E/DX2                !
 ! D202  D(69,21,22,23)        113.1895         estimate D2E/DX2                !
 ! D203  D(69,21,22,56)        -86.004          estimate D2E/DX2                !
 ! D204  D(10,21,50,33)          0.5299         estimate D2E/DX2                !
 ! D205  D(10,21,50,48)       -119.8048         estimate D2E/DX2                !
 ! D206  D(10,21,50,70)        122.3185         estimate D2E/DX2                !
 ! D207  D(22,21,50,33)        120.2273         estimate D2E/DX2                !
 ! D208  D(22,21,50,48)         -0.1073         estimate D2E/DX2                !
 ! D209  D(22,21,50,70)       -117.9841         estimate D2E/DX2                !
 ! D210  D(69,21,50,33)       -121.502          estimate D2E/DX2                !
 ! D211  D(69,21,50,48)        118.1633         estimate D2E/DX2                !
 ! D212  D(69,21,50,70)          0.2866         estimate D2E/DX2                !
 ! D213  D(21,22,23,7)          -4.3886         estimate D2E/DX2                !
 ! D214  D(21,22,23,24)        163.5276         estimate D2E/DX2                !
 ! D215  D(56,22,23,7)        -165.491          estimate D2E/DX2                !
 ! D216  D(56,22,23,24)          2.4253         estimate D2E/DX2                !
 ! D217  D(21,22,56,17)        -32.0987         estimate D2E/DX2                !
 ! D218  D(21,22,56,57)       -167.9659         estimate D2E/DX2                !
 ! D219  D(23,22,56,17)        127.6759         estimate D2E/DX2                !
 ! D220  D(23,22,56,57)         -8.1914         estimate D2E/DX2                !
 ! D221  D(7,23,24,15)         172.6154         estimate D2E/DX2                !
 ! D222  D(7,23,24,25)          19.9802         estimate D2E/DX2                !
 ! D223  D(22,23,24,15)          7.4382         estimate D2E/DX2                !
 ! D224  D(22,23,24,25)       -145.197          estimate D2E/DX2                !
 ! D225  D(15,24,25,13)          1.4725         estimate D2E/DX2                !
 ! D226  D(15,24,25,26)       -150.9608         estimate D2E/DX2                !
 ! D227  D(23,24,25,13)        156.6226         estimate D2E/DX2                !
 ! D228  D(23,24,25,26)          4.1893         estimate D2E/DX2                !
 ! D229  D(13,25,26,4)          -3.0374         estimate D2E/DX2                !
 ! D230  D(13,25,26,27)       -148.3359         estimate D2E/DX2                !
 ! D231  D(24,25,26,4)         146.3373         estimate D2E/DX2                !
 ! D232  D(24,25,26,27)          1.0389         estimate D2E/DX2                !
 ! D233  D(4,26,27,28)        -155.2083         estimate D2E/DX2                !
 ! D234  D(4,26,27,38)          -2.8853         estimate D2E/DX2                !
 ! D235  D(25,26,27,28)         -7.0574         estimate D2E/DX2                !
 ! D236  D(25,26,27,38)        145.2656         estimate D2E/DX2                !
 ! D237  D(26,27,28,7)         -16.5468         estimate D2E/DX2                !
 ! D238  D(26,27,28,29)        140.5745         estimate D2E/DX2                !
 ! D239  D(38,27,28,7)        -165.9536         estimate D2E/DX2                !
 ! D240  D(38,27,28,29)         -8.8324         estimate D2E/DX2                !
 ! D241  D(26,27,38,36)       -145.7994         estimate D2E/DX2                !
 ! D242  D(26,27,38,39)          0.547          estimate D2E/DX2                !
 ! D243  D(28,27,38,36)          9.8526         estimate D2E/DX2                !
 ! D244  D(28,27,38,39)        156.199          estimate D2E/DX2                !
 ! D245  D(7,28,29,30)          14.6867         estimate D2E/DX2                !
 ! D246  D(7,28,29,35)         163.4742         estimate D2E/DX2                !
 ! D247  D(27,28,29,30)       -147.1929         estimate D2E/DX2                !
 ! D248  D(27,28,29,35)          1.5946         estimate D2E/DX2                !
 ! D249  D(28,29,30,10)        -21.4523         estimate D2E/DX2                !
 ! D250  D(28,29,30,31)        134.9035         estimate D2E/DX2                !
 ! D251  D(35,29,30,10)       -170.9755         estimate D2E/DX2                !
 ! D252  D(35,29,30,31)        -14.6197         estimate D2E/DX2                !
 ! D253  D(28,29,35,34)       -130.9811         estimate D2E/DX2                !
 ! D254  D(28,29,35,36)          5.2639         estimate D2E/DX2                !
 ! D255  D(30,29,35,34)         14.6007         estimate D2E/DX2                !
 ! D256  D(30,29,35,36)        150.8457         estimate D2E/DX2                !
 ! D257  D(10,30,31,32)        152.2616         estimate D2E/DX2                !
 ! D258  D(10,30,31,33)         -0.1346         estimate D2E/DX2                !
 ! D259  D(29,30,31,32)         -0.0747         estimate D2E/DX2                !
 ! D260  D(29,30,31,33)       -152.4709         estimate D2E/DX2                !
 ! D261  D(30,31,32,34)         14.6533         estimate D2E/DX2                !
 ! D262  D(30,31,32,40)       -135.0874         estimate D2E/DX2                !
 ! D263  D(33,31,32,34)        171.0551         estimate D2E/DX2                !
 ! D264  D(33,31,32,40)         21.3143         estimate D2E/DX2                !
 ! D265  D(30,31,33,37)        136.6553         estimate D2E/DX2                !
 ! D266  D(30,31,33,50)         19.9632         estimate D2E/DX2                !
 ! D267  D(30,31,33,71)       -104.329          estimate D2E/DX2                !
 ! D268  D(32,31,33,37)        -17.9553         estimate D2E/DX2                !
 ! D269  D(32,31,33,50)       -134.6474         estimate D2E/DX2                !
 ! D270  D(32,31,33,71)        101.0604         estimate D2E/DX2                !
 ! D271  D(31,32,34,35)        -14.4493         estimate D2E/DX2                !
 ! D272  D(31,32,34,44)       -150.9124         estimate D2E/DX2                !
 ! D273  D(40,32,34,35)        131.3575         estimate D2E/DX2                !
 ! D274  D(40,32,34,44)         -5.1056         estimate D2E/DX2                !
 ! D275  D(31,32,40,18)        147.4968         estimate D2E/DX2                !
 ! D276  D(31,32,40,37)        -14.8997         estimate D2E/DX2                !
 ! D277  D(34,32,40,18)         -1.4506         estimate D2E/DX2                !
 ! D278  D(34,32,40,37)       -163.8471         estimate D2E/DX2                !
 ! D279  D(31,33,37,40)          8.5708         estimate D2E/DX2                !
 ! D280  D(31,33,37,46)       -110.9138         estimate D2E/DX2                !
 ! D281  D(31,33,37,72)        129.3044         estimate D2E/DX2                !
 ! D282  D(50,33,37,40)        127.7975         estimate D2E/DX2                !
 ! D283  D(50,33,37,46)          8.3128         estimate D2E/DX2                !
 ! D284  D(50,33,37,72)       -111.469          estimate D2E/DX2                !
 ! D285  D(71,33,37,40)       -110.317          estimate D2E/DX2                !
 ! D286  D(71,33,37,46)        130.1983         estimate D2E/DX2                !
 ! D287  D(71,33,37,72)         10.4165         estimate D2E/DX2                !
 ! D288  D(31,33,50,21)        -18.7233         estimate D2E/DX2                !
 ! D289  D(31,33,50,48)        106.7676         estimate D2E/DX2                !
 ! D290  D(31,33,50,70)       -139.0503         estimate D2E/DX2                !
 ! D291  D(37,33,50,21)       -132.0527         estimate D2E/DX2                !
 ! D292  D(37,33,50,48)         -6.5618         estimate D2E/DX2                !
 ! D293  D(37,33,50,70)        107.6203         estimate D2E/DX2                !
 ! D294  D(71,33,50,21)        105.7504         estimate D2E/DX2                !
 ! D295  D(71,33,50,48)       -128.7587         estimate D2E/DX2                !
 ! D296  D(71,33,50,70)        -14.5766         estimate D2E/DX2                !
 ! D297  D(32,34,35,29)         -0.1156         estimate D2E/DX2                !
 ! D298  D(32,34,35,36)       -140.9731         estimate D2E/DX2                !
 ! D299  D(44,34,35,29)        140.9201         estimate D2E/DX2                !
 ! D300  D(44,34,35,36)          0.0626         estimate D2E/DX2                !
 ! D301  D(32,34,44,43)        144.3585         estimate D2E/DX2                !
 ! D302  D(32,34,44,47)          4.2998         estimate D2E/DX2                !
 ! D303  D(35,34,44,43)          3.7941         estimate D2E/DX2                !
 ! D304  D(35,34,44,47)       -136.2646         estimate D2E/DX2                !
 ! D305  D(29,35,36,38)         -4.3807         estimate D2E/DX2                !
 ! D306  D(29,35,36,43)       -144.1964         estimate D2E/DX2                !
 ! D307  D(34,35,36,38)        135.9214         estimate D2E/DX2                !
 ! D308  D(34,35,36,43)         -3.8944         estimate D2E/DX2                !
 ! D309  D(35,36,38,27)         -3.0423         estimate D2E/DX2                !
 ! D310  D(35,36,38,39)       -146.2393         estimate D2E/DX2                !
 ! D311  D(43,36,38,27)        132.0958         estimate D2E/DX2                !
 ! D312  D(43,36,38,39)        -11.1012         estimate D2E/DX2                !
 ! D313  D(35,36,43,42)        146.985          estimate D2E/DX2                !
 ! D314  D(35,36,43,44)          6.1504         estimate D2E/DX2                !
 ! D315  D(38,36,43,42)          8.0702         estimate D2E/DX2                !
 ! D316  D(38,36,43,44)       -132.7644         estimate D2E/DX2                !
 ! D317  D(33,37,40,18)       -156.0916         estimate D2E/DX2                !
 ! D318  D(33,37,40,32)          3.3178         estimate D2E/DX2                !
 ! D319  D(46,37,40,18)        -42.7046         estimate D2E/DX2                !
 ! D320  D(46,37,40,32)        116.7047         estimate D2E/DX2                !
 ! D321  D(72,37,40,18)         82.2271         estimate D2E/DX2                !
 ! D322  D(72,37,40,32)       -118.3635         estimate D2E/DX2                !
 ! D323  D(33,37,46,45)        158.8517         estimate D2E/DX2                !
 ! D324  D(33,37,46,48)         -6.8347         estimate D2E/DX2                !
 ! D325  D(40,37,46,45)         44.6352         estimate D2E/DX2                !
 ! D326  D(40,37,46,48)       -121.0512         estimate D2E/DX2                !
 ! D327  D(72,37,46,45)        -80.3363         estimate D2E/DX2                !
 ! D328  D(72,37,46,48)        113.9773         estimate D2E/DX2                !
 ! D329  D(27,38,39,4)           2.0093         estimate D2E/DX2                !
 ! D330  D(27,38,39,41)       -142.086          estimate D2E/DX2                !
 ! D331  D(36,38,39,4)         149.422          estimate D2E/DX2                !
 ! D332  D(36,38,39,41)          5.3267         estimate D2E/DX2                !
 ! D333  D(4,39,41,1)            0.7096         estimate D2E/DX2                !
 ! D334  D(4,39,41,42)        -135.8421         estimate D2E/DX2                !
 ! D335  D(38,39,41,1)         140.1474         estimate D2E/DX2                !
 ! D336  D(38,39,41,42)          3.5956         estimate D2E/DX2                !
 ! D337  D(1,41,42,43)        -147.7678         estimate D2E/DX2                !
 ! D338  D(1,41,42,66)          -5.3408         estimate D2E/DX2                !
 ! D339  D(39,41,42,43)         -6.6802         estimate D2E/DX2                !
 ! D340  D(39,41,42,66)        135.7467         estimate D2E/DX2                !
 ! D341  D(41,42,43,36)          0.9241         estimate D2E/DX2                !
 ! D342  D(41,42,43,44)        136.6797         estimate D2E/DX2                !
 ! D343  D(66,42,43,36)       -136.9868         estimate D2E/DX2                !
 ! D344  D(66,42,43,44)         -1.2311         estimate D2E/DX2                !
 ! D345  D(41,42,66,49)       -135.4969         estimate D2E/DX2                !
 ! D346  D(41,42,66,65)          5.6082         estimate D2E/DX2                !
 ! D347  D(43,42,66,49)          6.9318         estimate D2E/DX2                !
 ! D348  D(43,42,66,65)        148.0368         estimate D2E/DX2                !
 ! D349  D(36,43,44,34)         -6.112          estimate D2E/DX2                !
 ! D350  D(36,43,44,47)        132.9531         estimate D2E/DX2                !
 ! D351  D(42,43,44,34)       -146.9841         estimate D2E/DX2                !
 ! D352  D(42,43,44,47)         -7.919          estimate D2E/DX2                !
 ! D353  D(34,44,47,18)          2.7548         estimate D2E/DX2                !
 ! D354  D(34,44,47,49)        146.4761         estimate D2E/DX2                !
 ! D355  D(43,44,47,18)       -132.5758         estimate D2E/DX2                !
 ! D356  D(43,44,47,49)         11.1455         estimate D2E/DX2                !
 ! D357  D(14,45,46,37)       -169.9175         estimate D2E/DX2                !
 ! D358  D(14,45,46,48)         -5.5132         estimate D2E/DX2                !
 ! D359  D(20,45,46,37)        -20.4314         estimate D2E/DX2                !
 ! D360  D(20,45,46,48)        143.9729         estimate D2E/DX2                !
 ! D361  D(37,46,48,17)        164.8366         estimate D2E/DX2                !
 ! D362  D(37,46,48,50)          2.9604         estimate D2E/DX2                !
 ! D363  D(45,46,48,17)         -2.3889         estimate D2E/DX2                !
 ! D364  D(45,46,48,50)       -164.265          estimate D2E/DX2                !
 ! D365  D(18,47,49,51)         -2.1466         estimate D2E/DX2                !
 ! D366  D(18,47,49,66)        142.4744         estimate D2E/DX2                !
 ! D367  D(44,47,49,51)       -150.0217         estimate D2E/DX2                !
 ! D368  D(44,47,49,66)         -5.4007         estimate D2E/DX2                !
 ! D369  D(17,48,50,21)        -29.9601         estimate D2E/DX2                !
 ! D370  D(17,48,50,33)       -159.4155         estimate D2E/DX2                !
 ! D371  D(17,48,50,70)         86.2915         estimate D2E/DX2                !
 ! D372  D(46,48,50,21)        131.8478         estimate D2E/DX2                !
 ! D373  D(46,48,50,33)          2.3925         estimate D2E/DX2                !
 ! D374  D(46,48,50,70)       -111.9005         estimate D2E/DX2                !
 ! D375  D(47,49,51,19)          3.7264         estimate D2E/DX2                !
 ! D376  D(47,49,51,52)        150.9564         estimate D2E/DX2                !
 ! D377  D(66,49,51,19)       -140.8739         estimate D2E/DX2                !
 ! D378  D(66,49,51,52)          6.3561         estimate D2E/DX2                !
 ! D379  D(47,49,66,42)         -3.6521         estimate D2E/DX2                !
 ! D380  D(47,49,66,65)       -140.2783         estimate D2E/DX2                !
 ! D381  D(51,49,66,42)        136.4033         estimate D2E/DX2                !
 ! D382  D(51,49,66,65)         -0.2229         estimate D2E/DX2                !
 ! D383  D(19,51,52,53)         -2.5779         estimate D2E/DX2                !
 ! D384  D(19,51,52,64)        135.0481         estimate D2E/DX2                !
 ! D385  D(49,51,52,53)       -145.1343         estimate D2E/DX2                !
 ! D386  D(49,51,52,64)         -7.5082         estimate D2E/DX2                !
 ! D387  D(51,52,53,54)         -0.1072         estimate D2E/DX2                !
 ! D388  D(51,52,53,62)        142.1733         estimate D2E/DX2                !
 ! D389  D(64,52,53,54)       -142.4849         estimate D2E/DX2                !
 ! D390  D(64,52,53,62)         -0.2043         estimate D2E/DX2                !
 ! D391  D(51,52,64,63)       -139.5787         estimate D2E/DX2                !
 ! D392  D(51,52,64,65)          2.561          estimate D2E/DX2                !
 ! D393  D(53,52,64,63)          1.9707         estimate D2E/DX2                !
 ! D394  D(53,52,64,65)        144.1104         estimate D2E/DX2                !
 ! D395  D(52,53,54,20)          2.9969         estimate D2E/DX2                !
 ! D396  D(52,53,54,55)        145.1205         estimate D2E/DX2                !
 ! D397  D(62,53,54,20)       -134.5858         estimate D2E/DX2                !
 ! D398  D(62,53,54,55)          7.5378         estimate D2E/DX2                !
 ! D399  D(52,53,62,61)       -143.3781         estimate D2E/DX2                !
 ! D400  D(52,53,62,63)         -1.6542         estimate D2E/DX2                !
 ! D401  D(54,53,62,61)         -1.8059         estimate D2E/DX2                !
 ! D402  D(54,53,62,63)        139.9181         estimate D2E/DX2                !
 ! D403  D(20,54,55,14)         -3.8923         estimate D2E/DX2                !
 ! D404  D(20,54,55,60)        139.3777         estimate D2E/DX2                !
 ! D405  D(53,54,55,14)       -150.8365         estimate D2E/DX2                !
 ! D406  D(53,54,55,60)         -7.5666         estimate D2E/DX2                !
 ! D407  D(14,55,60,59)          1.1898         estimate D2E/DX2                !
 ! D408  D(14,55,60,61)        140.6747         estimate D2E/DX2                !
 ! D409  D(54,55,60,59)       -137.7322         estimate D2E/DX2                !
 ! D410  D(54,55,60,61)          1.7527         estimate D2E/DX2                !
 ! D411  D(17,56,57,15)       -135.7973         estimate D2E/DX2                !
 ! D412  D(17,56,57,58)          4.4647         estimate D2E/DX2                !
 ! D413  D(22,56,57,15)          3.8192         estimate D2E/DX2                !
 ! D414  D(22,56,57,58)        144.0811         estimate D2E/DX2                !
 ! D415  D(15,57,58,16)        132.8112         estimate D2E/DX2                !
 ! D416  D(15,57,58,59)         -8.0645         estimate D2E/DX2                !
 ! D417  D(56,57,58,16)         -7.4603         estimate D2E/DX2                !
 ! D418  D(56,57,58,59)       -148.336          estimate D2E/DX2                !
 ! D419  D(16,58,59,11)       -148.9056         estimate D2E/DX2                !
 ! D420  D(16,58,59,60)          0.1981         estimate D2E/DX2                !
 ! D421  D(57,58,59,11)        -13.6323         estimate D2E/DX2                !
 ! D422  D(57,58,59,60)        135.4714         estimate D2E/DX2                !
 ! D423  D(11,59,60,55)        148.668          estimate D2E/DX2                !
 ! D424  D(11,59,60,61)          5.1939         estimate D2E/DX2                !
 ! D425  D(58,59,60,55)         -4.1608         estimate D2E/DX2                !
 ! D426  D(58,59,60,61)       -147.6349         estimate D2E/DX2                !
 ! D427  D(55,60,61,9)        -140.656          estimate D2E/DX2                !
 ! D428  D(55,60,61,62)          4.0995         estimate D2E/DX2                !
 ! D429  D(59,60,61,9)           3.3113         estimate D2E/DX2                !
[...]
 Alpha virt. eigenvalues --    1.03449   1.03653   1.04054   1.04443   1.04668
 Alpha virt. eigenvalues --    1.05051   1.05654   1.05723   1.06184   1.06488
 Alpha virt. eigenvalues --    1.06796   1.07445   1.08049   1.08390   1.08610
 Alpha virt. eigenvalues --    1.08743   1.09583   1.09783   1.10543   1.10602
 Alpha virt. eigenvalues --    1.10907   1.11311   1.11652   1.12199   1.12717
 Alpha virt. eigenvalues --    1.13182   1.13428   1.14581   1.15535   1.15810
 Alpha virt. eigenvalues --    1.15939   1.16544   1.16742   1.17251   1.17445
 Alpha virt. eigenvalues --    1.18370   1.19150   1.19726   1.20171   1.20423
 Alpha virt. eigenvalues --    1.20945   1.21291   1.21585   1.22252   1.22735
 Alpha virt. eigenvalues --    1.23115   1.23243   1.23567   1.24025   1.24496
 Alpha virt. eigenvalues --    1.24906   1.25158   1.25717   1.25845   1.26255
 Alpha virt. eigenvalues --    1.26405   1.27386   1.28077   1.28659   1.29038
 Alpha virt. eigenvalues --    1.29711   1.30101   1.30831   1.31057   1.31172
 Alpha virt. eigenvalues --    1.32050   1.32208   1.33259   1.33414   1.33902
 Alpha virt. eigenvalues --    1.34201   1.34496   1.34679   1.35174   1.35523
 Alpha virt. eigenvalues --    1.35735   1.35947   1.36331   1.36483   1.36863
 Alpha virt. eigenvalues --    1.37476   1.38009   1.38485   1.38823   1.39201
 Alpha virt. eigenvalues --    1.39706   1.39929   1.40302   1.40571   1.40819
 Alpha virt. eigenvalues --    1.41373   1.41631   1.41718   1.42154   1.42512
 Alpha virt. eigenvalues --    1.42843   1.43022   1.43279   1.43599   1.44238
 Alpha virt. eigenvalues --    1.44510   1.44731   1.45042   1.45378   1.45518
 Alpha virt. eigenvalues --    1.45738   1.45965   1.46128   1.46194   1.46608
 Alpha virt. eigenvalues --    1.46644   1.46944   1.47338   1.47778   1.47850
 Alpha virt. eigenvalues --    1.47920   1.48632   1.48703   1.48894   1.49447
 Alpha virt. eigenvalues --    1.49633   1.49672   1.50090   1.50214   1.50920
 Alpha virt. eigenvalues --    1.51109   1.51249   1.51508   1.51738   1.52209
 Alpha virt. eigenvalues --    1.52284   1.52510   1.52947   1.53104   1.53228
 Alpha virt. eigenvalues --    1.53318   1.53796   1.54091   1.54552   1.54715
 Alpha virt. eigenvalues --    1.55227   1.55259   1.55505   1.55677   1.56364
 Alpha virt. eigenvalues --    1.56965   1.57199   1.57242   1.57936   1.58086
 Alpha virt. eigenvalues --    1.58341   1.58831   1.59202   1.59341   1.59921
 Alpha virt. eigenvalues --    1.60334   1.61124   1.61223   1.61303   1.61830
 Alpha virt. eigenvalues --    1.62119   1.62590   1.63194   1.63474   1.63687
 Alpha virt. eigenvalues --    1.63862   1.64546   1.64831   1.65245   1.65732
 Alpha virt. eigenvalues --    1.66069   1.66270   1.66783   1.66991   1.67291
 Alpha virt. eigenvalues --    1.68021   1.68300   1.69101   1.69244   1.69727
 Alpha virt. eigenvalues --    1.70082   1.70272   1.70659   1.70852   1.71408
 Alpha virt. eigenvalues --    1.71805   1.72150   1.72613   1.73377   1.73704
 Alpha virt. eigenvalues --    1.74111   1.74292   1.74578   1.74878   1.75224
 Alpha virt. eigenvalues --    1.75530   1.76218   1.76364   1.77057   1.77366
 Alpha virt. eigenvalues --    1.77945   1.78590   1.78787   1.79112   1.79306
 Alpha virt. eigenvalues --    1.79548   1.80099   1.80292   1.80920   1.81028
 Alpha virt. eigenvalues --    1.81152   1.81521   1.81714   1.82174   1.82737
 Alpha virt. eigenvalues --    1.83228   1.83817   1.84410   1.84490   1.85037
 Alpha virt. eigenvalues --    1.85203   1.85892   1.86581   1.86930   1.87046
 Alpha virt. eigenvalues --    1.87526   1.88029   1.88711   1.89066   1.89381
 Alpha virt. eigenvalues --    1.89631   1.89945   1.90431   1.90860   1.91103
 Alpha virt. eigenvalues --    1.91448   1.91632   1.92153   1.92461   1.92722
 Alpha virt. eigenvalues --    1.93151   1.93616   1.94192   1.94554   1.94585
 Alpha virt. eigenvalues --    1.95451   1.95516   1.96244   1.96838   1.97373
 Alpha virt. eigenvalues --    1.98415   1.98845   1.99161   1.99566   2.00083
 Alpha virt. eigenvalues --    2.00660   2.01165   2.01680   2.02355   2.02780
 Alpha virt. eigenvalues --    2.03255   2.03552   2.03798   2.04060   2.04420
 Alpha virt. eigenvalues --    2.04786   2.04980   2.05629   2.06308   2.07203
 Alpha virt. eigenvalues --    2.07580   2.07862   2.08002   2.08800   2.08958
 Alpha virt. eigenvalues --    2.09647   2.09810   2.10337   2.10557   2.10882
 Alpha virt. eigenvalues --    2.11079   2.11477   2.12261   2.12457   2.12670
 Alpha virt. eigenvalues --    2.13199   2.13541   2.14209   2.14649   2.15249
 Alpha virt. eigenvalues --    2.15684   2.16146   2.16464   2.16750   2.17287
 Alpha virt. eigenvalues --    2.17693   2.18017   2.18389   2.18852   2.19874
 Alpha virt. eigenvalues --    2.20343   2.21296   2.21711   2.22087   2.23088
 Alpha virt. eigenvalues --    2.23324   2.23702   2.24132   2.24512   2.25069
 Alpha virt. eigenvalues --    2.25456   2.26015   2.26308   2.26837   2.27637
 Alpha virt. eigenvalues --    2.27885   2.28398   2.29794   2.30226   2.30891
 Alpha virt. eigenvalues --    2.31731   2.32022   2.32527   2.32854   2.33122
 Alpha virt. eigenvalues --    2.33478   2.34129   2.34185   2.34528   2.35628
 Alpha virt. eigenvalues --    2.35916   2.37004   2.37777   2.37939   2.38382
 Alpha virt. eigenvalues --    2.38824   2.39197   2.39688   2.40652   2.40798
 Alpha virt. eigenvalues --    2.41297   2.41704   2.42189   2.42844   2.43187
 Alpha virt. eigenvalues --    2.43945   2.44023   2.44142   2.44391   2.45029
 Alpha virt. eigenvalues --    2.45623   2.46149   2.46500   2.46829   2.46971
 Alpha virt. eigenvalues --    2.47420   2.48153   2.48376   2.48631   2.50160
 Alpha virt. eigenvalues --    2.50666   2.51493   2.52340   2.52655   2.53133
 Alpha virt. eigenvalues --    2.53651   2.54298   2.54779   2.55710   2.56112
 Alpha virt. eigenvalues --    2.56260   2.56610   2.57636   2.57916   2.58649
 Alpha virt. eigenvalues --    2.58809   2.58921   2.59299   2.59648   2.59902
 Alpha virt. eigenvalues --    2.60295   2.60462   2.61270   2.62080   2.62215
 Alpha virt. eigenvalues --    2.62742   2.63299   2.63692   2.65043   2.65214
 Alpha virt. eigenvalues --    2.65939   2.66368   2.67073   2.67539   2.67857
 Alpha virt. eigenvalues --    2.68166   2.68986   2.70440   2.70943   2.72443
 Alpha virt. eigenvalues --    2.72477   2.72686   2.72811   2.73542   2.74233
 Alpha virt. eigenvalues --    2.74842   2.75867   2.76329   2.76438   2.77215
 Alpha virt. eigenvalues --    2.78030   2.79747   2.79831   2.80352   2.81816
 Alpha virt. eigenvalues --    2.82005   2.82792   2.83624   2.83963   2.84551
 Alpha virt. eigenvalues --    2.84730   2.85086   2.86408   2.87080   2.87430
 Alpha virt. eigenvalues --    2.88237   2.88872   2.90025   2.90556   2.90622
 Alpha virt. eigenvalues --    2.91019   2.92026   2.92801   2.93415   2.93954
 Alpha virt. eigenvalues --    2.94167   2.94346   2.94921   2.95928   2.96428
 Alpha virt. eigenvalues --    2.97237   2.97787   2.98113   2.98498   2.99121
 Alpha virt. eigenvalues --    2.99419   2.99900   3.00111   3.00705   3.00893
 Alpha virt. eigenvalues --    3.01383   3.01991   3.02793   3.02944   3.03308
 Alpha virt. eigenvalues --    3.03938   3.04411   3.04771   3.05130   3.05448
 Alpha virt. eigenvalues --    3.05693   3.05852   3.06047   3.06830   3.06928
 Alpha virt. eigenvalues --    3.07430   3.07739   3.07972   3.08258   3.08652
 Alpha virt. eigenvalues --    3.09040   3.09506   3.10010   3.10674   3.10877
 Alpha virt. eigenvalues --    3.10978   3.11322   3.11616   3.12097   3.12503
 Alpha virt. eigenvalues --    3.12768   3.13192   3.13500   3.13880   3.13990
 Alpha virt. eigenvalues --    3.14413   3.14845   3.14993   3.15220   3.15430
 Alpha virt. eigenvalues --    3.15870   3.16329   3.16441   3.16825   3.17055
 Alpha virt. eigenvalues --    3.17347   3.17536   3.18293   3.18548   3.19043
 Alpha virt. eigenvalues --    3.20451   3.20597   3.21125   3.21620   3.22112
 Alpha virt. eigenvalues --    3.22436   3.22848   3.24104   3.25325   3.26409
 Alpha virt. eigenvalues --    3.27425   3.29036   3.30461   3.32469   3.32628
 Alpha virt. eigenvalues --    3.33879   3.36017   3.37719   3.38508   3.41301
 Alpha virt. eigenvalues --    3.41953   3.43653   3.44858   3.45864   3.47478
 Alpha virt. eigenvalues --    3.48254   3.49587   3.50819   3.52287   3.52950
 Alpha virt. eigenvalues --    3.53820   3.54422   3.55615   3.56447   3.56744
 Alpha virt. eigenvalues --    3.58079   3.58661   3.59356   3.60355   3.61687
 Alpha virt. eigenvalues --    3.62816   3.63751   3.65125   3.65571   3.67847
 Alpha virt. eigenvalues --    3.68933   3.69215   3.70470   3.71082   3.72400
 Alpha virt. eigenvalues --    3.72575   3.74324   3.75591   3.76014   3.77830
 Alpha virt. eigenvalues --    3.78884   3.80319   3.80849   3.82289   3.83150
 Alpha virt. eigenvalues --    3.84886   3.85243   3.85952   3.86409   3.87212
 Alpha virt. eigenvalues --    3.88633   3.89004   3.89471   3.90523   3.91687
 Alpha virt. eigenvalues --    3.91842   3.92368   3.93579   3.93899   3.95701
 Alpha virt. eigenvalues --    3.96304   3.97952   3.98562   4.02420   4.03629
 Alpha virt. eigenvalues --    4.05032   4.08399   4.12868   4.17566   4.22362
 Alpha virt. eigenvalues --    4.24367   4.25077   4.30462   4.33846   4.35818
 Alpha virt. eigenvalues --    4.36351   4.38386   4.39734   4.40065   4.41730
 Alpha virt. eigenvalues --    4.43359   4.45505   4.52735   4.55300   4.57135
 Alpha virt. eigenvalues --    4.59102   4.61957   4.63619   4.64550   4.67048
 Alpha virt. eigenvalues --    4.68021   4.69831   4.74407   4.77321   4.83445
 Alpha virt. eigenvalues --    4.89584   4.92576   4.95159   4.97078   5.00802
 Alpha virt. eigenvalues --    5.03362   5.04812   5.06329  23.05541  23.22645
 Alpha virt. eigenvalues --   23.27915  23.28436  23.45243  23.49134  23.50798
 Alpha virt. eigenvalues --   23.53251  23.56425  23.64682  23.67319  23.70633
 Alpha virt. eigenvalues --   23.72737  23.78430  23.79251  23.80329  23.80586
 Alpha virt. eigenvalues --   23.83256  23.84473  23.84623  23.85218  23.86282
 Alpha virt. eigenvalues --   23.87031  23.88664  23.89524  23.90835  23.91543
 Alpha virt. eigenvalues --   23.92794  23.94161  23.94840  23.95631  23.96467
 Alpha virt. eigenvalues --   23.97143  23.98059  23.98530  23.99078  23.99633
 Alpha virt. eigenvalues --   24.00080  24.00486  24.00850  24.01065  24.01911
 Alpha virt. eigenvalues --   24.02557  24.03218  24.03771  24.04519  24.05583
 Alpha virt. eigenvalues --   24.06412  24.06504  24.07895  24.10191  24.11081
 Alpha virt. eigenvalues --   24.11248  24.11363  24.11495  24.11798  24.12959
 Alpha virt. eigenvalues --   24.13318  24.13745  24.13831  24.14804  24.15201
 Alpha virt. eigenvalues --   24.15277  24.16132  24.17662  24.18762
          Condensed to atoms (all electrons):
 Mulliken charges:
               1
     1  C   -0.004650
     2  C   -0.003562
     3  C   -0.003475
     4  C   -0.007885
     5  C    0.007905
     6  C    0.000784
     7  C   -0.131801
     8  C   -0.000731
     9  C   -0.018254
    10  C   -0.144819
    11  C   -0.153619
    12  C   -0.124641
    13  C   -0.041992
    14  C    0.002355
    15  C   -0.036463
    16  C   -0.001211
    17  C    0.001313
    18  C    0.018165
    19  C   -0.003927
    20  C   -0.001892
    21  C   -0.132232
    22  C   -0.011177
    23  C   -0.013048
    24  C    0.042315
    25  C    0.016704
    26  C   -0.005396
    27  C    0.013515
    28  C   -0.032512
    29  C    0.022103
    30  C    0.006038
    31  C    0.004413
    32  C    0.021781
    33  C   -0.145939
    34  C   -0.009282
    35  C   -0.008341
    36  C   -0.007817
    37  C   -0.133508
    38  C   -0.001234
    39  C   -0.004862
    40  C   -0.032860
    41  C    0.001165
    42  C   -0.004334
    43  C   -0.012392
    44  C   -0.006035
    45  C    0.017503
    46  C   -0.008926
    47  C   -0.002284
    48  C   -0.003348
    49  C   -0.002433
    50  C   -0.135406
    51  C   -0.005054
    52  C   -0.005254
    53  C   -0.005455
    54  C   -0.003516
    55  C   -0.011017
    56  C    0.002116
    57  C    0.006532
    58  C   -0.008886
    59  C   -0.015583
    60  C    0.022278
    61  C    0.014405
    62  C   -0.009147
    63  C   -0.001360
    64  C   -0.004977
    65  C   -0.004305
    66  C    0.000634
    67  H    0.158203
    68  H    0.145183
    69  H    0.146273
    70  H    0.149288
    71  H    0.146116
    72  H    0.160383
    73  H    0.170042
    74  H    0.169332
 Sum of Mulliken charges =  -0.00000
 Mulliken charges with hydrogens summed into heavy atoms:
               1
     1  C   -0.004650
     2  C   -0.003562
     3  C   -0.003475
     4  C   -0.007885
     5  C    0.007905
     6  C    0.000784
     7  C    0.026402
     8  C   -0.000731
     9  C   -0.018254
    10  C    0.000364
    11  C    0.016423
    12  C    0.044691
    13  C   -0.041992
    14  C    0.002355
    15  C   -0.036463
    16  C   -0.001211
    17  C    0.001313
    18  C    0.018165
    19  C   -0.003927
    20  C   -0.001892
    21  C    0.014041
    22  C   -0.011177
    23  C   -0.013048
    24  C    0.042315
    25  C    0.016704
    26  C   -0.005396
    27  C    0.013515
    28  C   -0.032512
    29  C    0.022103
    30  C    0.006038
    31  C    0.004413
    32  C    0.021781
    33  C    0.000177
    34  C   -0.009282
    35  C   -0.008341
    36  C   -0.007817
    37  C    0.026875
    38  C   -0.001234
    39  C   -0.004862
    40  C   -0.032860
    41  C    0.001165
    42  C   -0.004334
    43  C   -0.012392
    44  C   -0.006035
    45  C    0.017503
    46  C   -0.008926
    47  C   -0.002284
    48  C   -0.003348
    49  C   -0.002433
    50  C    0.013881
    51  C   -0.005054
    52  C   -0.005254
    53  C   -0.005455
    54  C   -0.003516
    55  C   -0.011017
    56  C    0.002116
    57  C    0.006532
    58  C   -0.008886
    59  C   -0.015583
    60  C    0.022278
    61  C    0.014405
    62  C   -0.009147
    63  C   -0.001360
    64  C   -0.004977
    65  C   -0.004305
    66  C    0.000634
 Electronic spatial extent (au):  <R**2>=          21578.3126
 Charge=             -0.0000 electrons
 Dipole moment (field-independent basis, Debye):
    X=              4.6035    Y=              2.8652    Z=             -0.9346  Tot=              5.5022
 Quadrupole moment (field-independent basis, Debye-Ang):
   XX=           -349.0274   YY=           -372.8646   ZZ=           -367.3588
   XY=             -2.6251   XZ=              3.3016   YZ=             -7.5863
 Traceless Quadrupole moment (field-independent basis, Debye-Ang):
   XX=             14.0562   YY=             -9.7810   ZZ=             -4.2752
   XY=             -2.6251   XZ=              3.3016   YZ=             -7.5863
 Octapole moment (field-independent basis, Debye-Ang**2):
  XXX=            184.6640  YYY=             63.5473  ZZZ=            -11.3845  XYY=            -25.5829
  XXY=             38.3917  XXZ=             -2.6913  XZZ=             52.4054  YZZ=             17.1261
  YYZ=            -27.7973  XYZ=              9.3921
 Hexadecapole moment (field-independent basis, Debye-Ang**3):
 XXXX=         -12378.8951 YYYY=         -11157.9076 ZZZZ=          -8881.0340 XXXY=             91.3220
 XXXZ=             33.7635 YYYX=           -128.5171 YYYZ=           -138.6624 ZZZX=             17.6999
 ZZZY=            -80.8281 XXYY=          -3988.9159 XXZZ=          -3500.2749 YYZZ=          -3341.9985
 XXYZ=            -40.6045 YYXZ=             64.7688 ZZXY=            -36.9185
 N-N= 9.947409460046D+03 E-N=-2.574104836648D+04  KE= 2.509870294120D+03
 No NMR shielding tensors so no spin-rotation constants.
 Leave Link  601 at Wed Jul 20 12:08:56 2022, MaxMem=  1342177280 cpu:              60.4 elap:               1.5
 (Enter /home/mkliu/g16/l9999.exe)
 1\1\GINC-NODE02\FOpt\RB3LYP\6-311G(d,p)\C66H8\MKLIU\20-Jul-2022\0\\#P 
 opt b3lyp/6-311G(d, p) empiricaldispersion=GD3\\force\\0,1\C,12.783877
 8189,12.0779579197,21.9017629007\C,12.8099071011,13.0314652466,22.9105
 886315\C,12.6860727194,14.4398955564,22.5862525148\C,12.5967452907,14.
 8471744765,21.2528102754\C,13.4788014331,15.1936378971,23.5007953655\C
 ,14.1270185377,14.2399675287,24.4350828571\C,15.6218802694,17.33843496
 5,18.7445537101\C,13.7404193655,12.9112408479,24.016772491\C,15.397686
 9795,14.4801056206,24.8948113668\C,16.9139525803,17.0025777909,17.8727
 783294\C,16.0864607024,15.8355519248,24.7766591582\C,15.3733397427,16.
 8470739154,23.7629874604\C,14.1565501703,16.3003154676,23.0455049719\C
 ,19.2122771275,14.0016410965,22.5879036971\C,16.2193629364,17.28796055
 33,22.589966059\C,19.1631012552,15.3995560716,22.5653974955\C,19.24918
 57644,16.0617840595,21.3183328099\C,17.4477399671,11.5503592738,19.312
 2392703\C,17.7051215403,11.2447792578,20.7501078074\C,18.4890526277,11
 .9716269801,21.6402932832\C,18.1689397756,17.1496570117,18.7874984368\
 C,17.5623380557,17.3947226596,20.147199051\C,16.1622564003,17.44475458
 23,20.158621055\C,15.4738053856,17.3155233173,21.3824007461\C,14.16554
 44109,16.6673144685,21.6490889243\C,13.3548811606,15.9694510637,20.745
 2566732\C,13.6336658758,15.6924588118,19.3051157737\C,14.6697002586,16
 .163145088,18.5152488645\C,15.2799557568,15.2644120301,17.5739795653\C
 ,16.6669443555,15.5892255761,17.4349562189\C,17.5933429886,14.58298702
 26,17.4387446849\C,17.1564103667,13.2278669531,17.5808837171\C,19.0204
 590186,14.7159193827,17.8792488112\C,15.8165987728,12.8972012647,17.41
 66862324\C,14.8396480517,13.955302485,17.410216914\C,13.6874608726,13.
 5016583923,18.1179023429\C,19.2555789995,13.4001709365,18.7478114896\C
 ,13.0837541521,14.3724150089,19.0259790102\C,12.4786379067,13.84876727
 04,20.2189106723\C,18.0017875907,12.5475387195,18.5252149437\C,12.5748
 14333,12.4882557933,20.5283476383\C,13.3635207465,11.624099028,19.6752
 273126\C,13.9016298515,12.1157655428,18.4961265307\C,15.2671983673,11.
 7880114135,18.1262452679\C,19.2385794387,13.2343774274,21.3707671874\C
 ,19.409967754,13.9208783613,20.165685354\C,16.0833108036,11.1172312028
 ,19.036277666\C,19.4478800273,15.3387685234,20.1588157438\C,15.5077132
 651,10.5551529718,20.2261861389\C,19.26151919,15.9553637109,18.7952562
 575\C,16.5052642005,10.5769318688,21.2617160617\C,16.101436849,10.6811
 744447,22.5908804891\C,16.9111782486,11.427154257,23.5060846926\C,18.0
 78748963,12.0246508338,23.0443968892\C,18.4795434848,13.292900281,23.5
 905339404\C,18.2642163658,17.1496691722,21.3192286417\C,17.5991182458,
 17.1387581711,22.5635085981\C,18.22093446,16.1016835839,23.4158882616\
 C,17.4890022643,15.4197240628,24.3445373248\C,17.6389746141,13.9954880
 383,24.46190407\C,16.3709025404,13.4249363897,24.8472646553\C,16.02903
 68146,12.1440297107,24.4116896572\C,14.6718186207,11.8653869154,24.021
 7910669\C,14.7054977894,10.9237069085,22.9182313725\C,13.7624494584,11
 .0020057378,21.9016465666\C,14.1557085677,10.7639557069,20.5314288184\
 H,15.1569998461,18.2791282562,18.4330862132\H,16.9843756886,17.6738617
 091,17.013868417\H,18.7216640505,18.0407308421,18.4825513534\H,20.2012
 256152,16.4263998831,18.4987903689\H,19.696753453,14.7364646768,17.021
 7775214\H,20.1535527953,12.8602859996,18.4323322399\H,16.1164192646,16
 .330708816,25.7516225588\H,15.0876781349,17.7250395283,24.3518002288\\
 Version=ES64L-G16RevA.03\State=1-A\HF=-2520.2711204\RMSD=5.384e-09\RMS
 F=8.946e-05\Dipole=1.1922968,1.684383,-0.6537607\Quadrupole=-4.1466096
 ,0.0933673,4.0532422,0.3701349,-10.3397765,-1.9699185\PG=C01 [X(C66H8)
 ]\\@


 CHINESE FORTUNE COOKIE OF JAN 1 1967 SAY....
 ALL THINGS ARE DIFFICULT BEFORE THEY ARE EASY.
 WE LEARN SO LITTLE AND FORGET SO MUCH.
 YOU WILL OVERCOME OBSTACLES TO ACHIEVE SUCCESS.
 AH SO.
 Job cpu time:       1 days  4 hours  2 minutes  1.1 seconds.
 Elapsed time:       0 days  0 hours 35 minutes  7.2 seconds.
 File lengths (MBytes):  RWF=    939 Int=      0 D2E=      0 Chk=    117 Scr=      1
 Normal termination of Gaussian 16 at Wed Jul 20 12:08:57 2022.
