156
 energy: -484.471214281215 gnorm: 9.670123777274 xtb: 6.4.1 (a3dbbd7)
C        -1.23626340000000    0.00000000000000    3.32997640000000
C        -0.38202640000000   -1.17575640000000    3.32997640000000
C         1.00015810000000   -0.72665740000000    3.32997640000000
C         1.00015810000000    0.72665740000000    3.32997640000000
C        -0.38202640000000    1.17575640000000    3.32997640000000
C         2.34433560000000   -2.60145750000000    0.59464210000000
C         3.19857260000000   -1.42570110000000    0.59464210000000
C         2.96246730000000   -0.69904370000000    1.83090550000000
C         1.96230920000000   -1.42570110000000    2.59495830000000
C         1.58028280000000   -2.60145750000000    1.83090550000000
C         3.19857260000000    1.42570110000000    0.59464210000000
C         2.34433560000000    2.60145750000000    0.59464210000000
C         1.58028280000000    2.60145750000000    1.83090550000000
C         1.96230920000000    1.42570110000000    2.59495830000000
C         2.96246730000000    0.69904370000000    1.83090550000000
C        -0.36750900000000    3.48258920000000    0.59464210000000
C        -1.74969350000000    3.03349030000000    0.59464210000000
C        -1.98579880000000    2.30683290000000    1.83090550000000
C        -0.74953540000000    2.30683290000000    2.59495830000000
C         0.25062270000000    3.03349030000000    1.83090550000000
C        -3.42570570000000    0.72665740000000    0.59464210000000
C        -3.42570570000000   -0.72665740000000    0.59464210000000
C        -2.80757400000000   -1.17575640000000    1.83090550000000
C        -2.42554760000000    0.00000000000000    2.59495830000000
C        -2.80757400000000    1.17575640000000    1.83090550000000
C        -1.74969350000000   -3.03349030000000    0.59464210000000
C        -0.36750900000000   -3.48258920000000    0.59464210000000
C         0.25062270000000   -3.03349030000000    1.83090550000000
C        -0.74953540000000   -2.30683290000000    2.59495830000000
C        -1.98579880000000   -2.30683290000000    1.83090550000000
C        -0.25062270000000   -3.03349030000000   -1.83090550000000
C         0.74953540000000   -2.30683290000000   -2.59495830000000
C         1.98579880000000   -2.30683290000000   -1.83090550000000
C         1.74969350000000   -3.03349030000000   -0.59464210000000
C         0.36750900000000   -3.48258920000000   -0.59464210000000
C         2.80757400000000   -1.17575640000000   -1.83090550000000
C         2.42554760000000    0.00000000000000   -2.59495830000000
C         2.80757400000000    1.17575640000000   -1.83090550000000
C         3.42570570000000    0.72665740000000   -0.59464210000000
C         3.42570570000000   -0.72665740000000   -0.59464210000000
C         1.98579880000000    2.30683290000000   -1.83090550000000
C         0.74953540000000    2.30683290000000   -2.59495830000000
C        -0.25062270000000    3.03349030000000   -1.83090550000000
C         0.36750900000000    3.48258920000000   -0.59464210000000
C         1.74969350000000    3.03349030000000   -0.59464210000000
C        -1.58028280000000    2.60145750000000   -1.83090550000000
C        -1.96230920000000    1.42570110000000   -2.59495830000000
C        -2.96246730000000    0.69904370000000   -1.83090550000000
C        -3.19857260000000    1.42570110000000   -0.59464210000000
C        -2.34433560000000    2.60145750000000   -0.59464210000000
C        -2.96246730000000   -0.69904370000000   -1.83090550000000
C        -1.96230920000000   -1.42570110000000   -2.59495830000000
C        -1.58028280000000   -2.60145750000000   -1.83090550000000
C        -2.34433560000000   -2.60145750000000   -0.59464210000000
C        -3.19857260000000   -1.42570110000000   -0.59464210000000
C        -1.00015810000000   -0.72665740000000   -3.32997640000000
C        -1.00015810000000    0.72665740000000   -3.32997640000000
C         0.38202640000000    1.17575640000000   -3.32997640000000
C         1.23626340000000    0.00000000000000   -3.32997640000000
C         0.38202640000000   -1.17575640000000   -3.32997640000000
C        -1.76086815247998    0.00000000000000    4.78849957557021
F        -0.76911826531252    0.00000000000000    5.67468926254662
F        -2.50968386795825   -1.06794314680471    5.04863888333743
F        -2.50968386795825    1.06794314680471    5.04863888333743
C        -0.54413818249354   -1.67468516033722    4.78849957845317
F        -0.23767107904745   -0.73147481112462    5.67468925997942
F        -1.79120914301982   -2.05683909935453    5.04863874564184
F         0.24013968171955   -2.71686350152345    5.04863903502921
C         1.42457227037960   -1.03501233722714    4.78849957248258
F         0.62223011468481   -0.45207589682711    5.67468926529602
F         1.40265511061956   -2.33913928186680    5.04863905501621
F         2.65809836182651   -0.61117154425495    5.04863869666890
C         3.37204091334889   -3.72927672645244    0.86730596148276
F         4.06564647311728   -3.51265957144659    1.98125763710228
F         4.25569947457670   -3.84739838595791   -0.11965645964809
F         2.78580317558591   -4.91533944031226    1.00324916143779
C         4.58877084110522    2.05459160147071    0.86730597290559
F         4.59709252483521    2.78118520641283    1.98125951001435
F         4.97417519512416    2.85850196315549   -0.11965482382298
F         5.53562669678859    1.13053295630600    1.00324569798425
C         3.37204091334889    3.72927672645244    0.86730596148276
F         4.06564647311728    3.51265957144659    1.98125763710228
F         4.25569947457670    3.84739838595791   -0.11965645964809
F         2.78580317558591    4.91533944031226    1.00324916143779
C        -2.84103082519036    3.32439911178427    2.62817407941587
F        -2.23127406184888    4.50005340761388    2.75037746012491
F        -4.01248672303644    3.55720929213525    2.04303264409737
F        -3.10404037880940    2.89718378306489    3.85992609894427
C         0.34440953624153    4.35941144868709    2.62817404748705
F        -0.83992598883967    4.95213069234126    2.75037577510431
F         1.15529636597892    5.23632261667420    2.04303359185445
F         0.80829780400759    4.16837989546168    3.85992670963205
C        -3.49548004549360    0.00000000000000    3.71645041414084
F        -4.73163621497510    0.00000000000000    3.22571838476757
F        -3.39327517264965   -1.06794314680471    4.50254938956302
F        -3.39327517264965    1.06794314680471    4.50254938956303
C        -2.50473491433418   -4.35941144902977    0.86730593917895
F        -2.08438487052912   -4.95213043104453    1.98125838386969
F        -2.34400857369757   -5.23632280881804   -0.11965581818547
F        -3.81390519137296   -4.16837996597314    1.00324768478856
C         0.34440953624153   -4.35941144868709    2.62817404748705
F        -0.83992598883967   -4.95213069234126    2.75037577510431
F         1.15529636597892   -5.23632261667420    2.04303359185445
F         0.80829780400759   -4.16837989546168    3.85992670963205
C        -1.08016271022039   -3.32439912180418    3.71645041587937
F        -1.46215754230407   -4.50005299330749    3.22571838851551
F        -0.03290491502764   -3.55721032900471    4.50254840735999
F        -2.06425285383526   -2.89718320022386    4.50255037491024
C         1.08016271022039   -3.32439912180418   -3.71645041587937
F         1.46215754230406   -4.50005299330749   -3.22571838851551
F         0.03290491502765   -3.55721032900471   -4.50254840736000
F         2.06425285383526   -2.89718320022386   -4.50255037491024
C         2.84103082519036   -3.32439911178427   -2.62817407941587
F         2.23127406184888   -4.50005340761388   -2.75037746012495
F         3.10404037880944   -2.89718378306489   -3.85992609894426
F         4.01248672303643   -3.55720929213529   -2.04303264409737
C         4.92005227074660    1.03501232949151   -0.86730592957069
F         5.35386609588658    0.45207588830481   -1.98125865327758
F         5.14292645153878    2.33913927311179   -1.00324714649869
F         5.70437742108406    0.61117153086585    0.11965558739362
C         0.53602450593361    4.99908416128281   -0.86730591619822
F         1.22448605650957    5.23152837615597   -1.98125850960180
F        -0.63540201352706    5.61404743764837   -1.00324736766175
F         1.18149064144157    5.61404773804446    0.11965571789346
C        -2.28376457660886    3.72927671755932   -2.62817408867206
F        -3.59030321655004    3.51265997057978   -2.75037870097715
F        -1.79618325340527    3.84739782561575   -3.85992562899768
F        -2.14318168460923    4.91533956626621   -2.04303190988614
C        -2.82790274436383    2.05459160758554   -3.71645040671519
F        -3.82797483682855    2.78118494419178   -3.22571836876305
F        -2.11749631416700    2.85850222732984   -4.50254863174647
F        -3.37293748548841    1.13053297859378   -4.50255013394648
C        -4.25247495652193    1.01957928511255   -2.62817407757680
F        -4.45020405360863    2.32910962270744   -2.75037677428969
F        -4.21414295278388    0.51936236815955   -3.85992636334025
F        -5.33704498641440    0.51936149478958   -2.04303305824604
C        -4.25247495652193   -1.01957928511255   -2.62817407757680
F        -4.45020405360857   -2.32910962270745   -2.75037677428973
F        -4.21414295278389   -0.51936236815949   -3.85992636334022
F        -5.33704498641440   -0.51936149478962   -2.04303305824599
C        -2.82790274436383   -2.05459160758554   -3.71645040671519
F        -3.82797483682855   -2.78118494419178   -3.22571836876305
F        -3.37293748548841   -1.13053297859378   -4.50255013394648
F        -2.11749631416700   -2.85850222732984   -4.50254863174647
C        -3.37204091334889   -3.72927672645244   -0.86730596148276
F        -4.06564647311728   -3.51265957144659   -1.98125763710228
F        -2.78580317558591   -4.91533944031226   -1.00324916143779
F        -4.25569947457670   -3.84739838595791    0.11965645964809
C        -1.42457227037960   -1.03501233722714   -4.78849957248258
F        -0.62223011468481   -0.45207589682711   -5.67468926529602
F        -2.65809836182651   -0.61117154425495   -5.04863869666891
F        -1.40265511061956   -2.33913928186680   -5.04863905501621
C        -1.42457227037960    1.03501233722714   -4.78849957248258
F        -0.62223011468481    0.45207589682711   -5.67468926529602
F        -2.65809836182651    0.61117154425495   -5.04863869666891
F        -1.40265511061956    2.33913928186680   -5.04863905501621
156
 energy: -491.910883340888 gnorm: 8.189259253743 xtb: 6.4.1 (a3dbbd7)
C        -1.22912611940956   -0.00022045262159    3.31880205943069
C        -0.37937708831393   -1.16932031564076    3.31137655412721
C         1.00197897346815   -0.72460409929205    3.32321423538509
C         1.00113170948532    0.72848888179625    3.33119404875370
C        -0.38127950007296    1.17599351948009    3.33107214448866
C         2.34658138887951   -2.60209239354166    0.59577402544012
C         3.19894839550705   -1.42284880135919    0.59697098977669
C         2.96200255959469   -0.70103419249674    1.82986022456633
C         1.96505717108945   -1.42583455192447    2.59256184351228
C         1.58125953204321   -2.60112373828830    1.83231039621326
C         3.19342227976225    1.42275846710201    0.59657377376527
C         2.33967948590046    2.60088633605251    0.59418500171377
C         1.58303595794988    2.59882324215420    1.83373371351054
C         1.96121423385207    1.42585708135617    2.59251820203785
C         2.96209166174439    0.69951073327667    1.83225775434002
C        -0.37231395693792    3.48241047831691    0.59559422905410
C        -1.74555306668214    3.03274401419739    0.59244642141120
C        -1.98672855471990    2.30886938599131    1.83139099507562
C        -0.74952070075235    2.30599844001636    2.59569927691141
C         0.24944441080294    3.03651824564423    1.83180077143434
C        -3.42473592447940    0.72426463582641    0.59541608825301
C        -3.42545044839655   -0.72410933853178    0.59697388052289
C        -2.81092423374086   -1.17422449335044    1.83022447059340
C        -2.42480002276002    0.00005280452482    2.58567752796155
C        -2.81040389754137    1.17341538615469    1.83017906943765
C        -1.74450027229209   -3.03005341840440    0.59756501245052
C        -0.36738533862904   -3.48273134324892    0.59383235061813
C         0.25303354181245   -3.02981102576425    1.82600042278221
C        -0.74913240521515   -2.30082935452387    2.58484933734161
C        -1.98621563255782   -2.30897861418203    1.83168738225947
C        -0.24810400458014   -3.03698564221585   -1.83043166747783
C         0.74653776366046   -2.30502702899639   -2.59266564245874
C         1.98602893763263   -2.30524112994887   -1.82722932984050
C         1.74688981113148   -3.03539402721770   -0.59640297507632
C         0.36845253892485   -3.48156367621966   -0.59627196868181
C         2.80911285139708   -1.17265368812786   -1.83212251869632
C         2.42495351232625   -0.00038975921609   -2.59401304286042
C         2.80728625169452    1.17541328351399   -1.83264080603478
C         3.41838095486030    0.72188220016550   -0.59813554669544
C         3.42600615741064   -0.72731478043372   -0.59528906491046
C         1.98385775394265    2.30697141870584   -1.83110818325638
C         0.75015137193198    2.30712868654590   -2.59324838588078
C        -0.24831010188230    3.03210889885179   -1.83320340276174
C         0.36829101759834    3.48364756954077   -0.59588388006685
C         1.74992567092461    3.03228096954750   -0.59825374127178
C        -1.57545667860217    2.59891327311718   -1.82490327241285
C        -1.95286936097412    1.42046094087648   -2.58218062405924
C        -2.95317705275805    0.69952592128732   -1.82179278696284
C        -3.19990474732959    1.42660759878598   -0.59367196344287
C        -2.34546369238011    2.60248835622864   -0.59341427598759
C        -2.95429526094546   -0.69949997388514   -1.82136865540343
C        -1.95598385647382   -1.42500576910325   -2.58429030375080
C        -1.58228655136908   -2.60231774833953   -1.83096986050216
C        -2.34205080105529   -2.59522183645390   -0.59750712709024
C        -3.19983448071425   -1.42661454795430   -0.59429660225117
C        -0.99246990414421   -0.72549682378634   -3.31972510153608
C        -0.99244217245700    0.72533673724379   -3.31779022719214
C         0.38422835002673    1.17562962552014   -3.33112846129374
C         1.23696174391488    0.00070813326706   -3.33058248326252
C         0.38336003174897   -1.17439226896558   -3.33148346788696
C        -1.76665140027864    0.00634580330942    4.74454767371443
F        -0.78638776707511    0.05056781986953    5.70862511503965
F        -2.53259247121594   -1.03162187283499    5.09275228431145
F        -2.49251609444523    1.09020233622583    5.07754785437711
C        -0.53712958303029   -1.67708315031139    4.74471498937937
F        -0.24688946084258   -0.76422929321116    5.71492336256880
F        -1.76760343709657   -2.08557432605036    5.09973227009035
F         0.19404066110039   -2.72856773581638    5.08075631940108
C         1.43470599206432   -1.04614433034959    4.76626013712235
F         0.67516758043202   -0.42236632637185    5.70207922465778
F         1.48650090345933   -2.32703893862059    5.05338852475792
F         2.66224948361697   -0.60871098477284    5.05225156145620
C         3.37169528569526   -3.72786507784153    0.86768658089742
F         4.06730129971888   -3.51336991809546    1.98282343215437
F         4.25809335658541   -3.84897027493764   -0.11750423595602
F         2.78860224454728   -4.91735690777708    1.00165495841848
C         4.56131711817695    2.04431893756373    0.83353847146155
F         4.63993551355994    2.75187176266895    2.01663095413872
F         5.02062518386113    2.82881185277427   -0.09600241190567
F         5.55310375133641    1.12983111172745    1.05290237586514
C         3.36172779801095    3.72738900215343    0.85500342339454
F         4.04063871536597    3.56044963647913    1.99892638175828
F         4.21165483365576    3.91901968815719   -0.12662979450887
F         2.79067592611675    4.91740532715324    1.00461814287809
C        -2.84054413300527    3.32454189195900    2.62599291309890
F        -2.26009183673502    4.49345883150064    2.75135794858187
F        -4.01555518140478    3.55766083953951    2.04269127418354
F        -3.10503863247775    2.89963731066060    3.86248883312919
C         0.34478446243933    4.35886830961586    2.62683916160949
F        -0.81315689321704    4.96366283223216    2.75146080383652
F         1.15457653021514    5.23809235016638    2.04783524006466
F         0.80936574708627    4.16871282886706    3.86260312284762
C        -3.48886431935168    0.00273653451728    3.69764763250068
F        -4.73704403217153    0.00042990990113    3.22660643662065
F        -3.44794249929851   -1.08347044915580    4.48459244767006
F        -3.42536785870638    1.08965021722106    4.49686545794027
C        -2.49492007455454   -4.34085764164744    0.86123597787500
F        -2.10818886304180   -4.96799549560089    1.96482754644935
F        -2.31472718421085   -5.27161542067600   -0.09009280302970
F        -3.81590715690578   -4.18171181798468    1.05668096601796
C         0.35652433252634   -4.34947573200804    2.62470507509971
F        -0.80364377709627   -4.99108240851535    2.73425989206512
F         1.15377578210005   -5.24086906257380    2.04337555738732
F         0.87285242024325   -4.21060365612273    3.82448088909836
C        -1.05757852266599   -3.29661784404743    3.70473858361734
F        -1.50401747938166   -4.49773243729696    3.26363809668423
F        -0.08143702882301   -3.56367917144262    4.53548244556862
F        -2.11209448486816   -2.94581838299006    4.48446610073586
C         1.07761509634104   -3.31208065306743   -3.71853117785160
F         1.41588274098777   -4.51400292946511   -3.25284366205907
F         0.03115991443903   -3.56200930533207   -4.50554220198346
F         1.99950179741357   -2.89734824319612   -4.54794886522195
C         2.84741153002938   -3.31213659526503   -2.62462439328607
F         2.27669065128271   -4.51395560502967   -2.72106089715202
F         3.17318713159416   -2.89755831955505   -3.82286037704894
F         4.01470511658678   -3.55810113860488   -2.04534248239480
C         4.90552131009732    1.02359002865729   -0.87206581747991
F         5.35623842118216    0.45209732642958   -1.98307376247761
F         5.15669756724794    2.34074302488792   -1.04513159789992
F         5.72556605492222    0.58069445966031    0.09633215887186
C         0.53591981077342    4.99820925161580   -0.86675406672529
F         1.22534379519438    5.23295832089084   -1.98297867043764
F        -0.63418991137780    5.61696384298174   -1.00203540813976
F         1.17978796779623    5.61743953846439    0.11568740937700
C        -2.25840734477334    3.72766434828377   -2.62351933724480
F        -3.59884604434280    3.57171577241562   -2.72183060739427
F        -1.76901555245586    3.91975722018580   -3.82614624811075
F        -2.14763756197585    4.91853241078332   -2.04353802520884
C        -2.78888095930583    2.03776988696832   -3.69867363623913
F        -3.84195601383892    2.79539351763776   -3.27348257923164
F        -2.15564799327087    2.83674710966325   -4.53919826433767
F        -3.38862536537363    1.18769458183347   -4.54053004435873
C        -4.22028601842530    0.99222134333640   -2.61480659253245
F        -4.51472392623272    2.33230251263126   -2.72012394530169
F        -4.28184158512783    0.54301846024952   -3.84887603161195
F        -5.36224644894389    0.55868528552533   -2.02867137722189
C        -4.22411501691210   -1.00607974741759   -2.61333847590156
F        -4.50294859536448   -2.31849344839041   -2.73435096541039
F        -4.28030525562349   -0.54492076302911   -3.85118865635362
F        -5.36443769696518   -0.55818875829981   -2.02728548759277
C        -2.80646992883632   -2.03296486732497   -3.69527497780776
F        -3.81087022864920   -2.82076892029727   -3.26246373776104
F        -3.38392657237095   -1.18993733719284   -4.53673537257812
F        -2.12992940305848   -2.90527781570510   -4.49849492875887
C        -3.35682781337166   -3.71478660132771   -0.86107207592816
F        -4.07349234000568   -3.54083511912961   -1.96495549917367
F        -2.79809681329609   -4.92078259177466   -1.05595391394974
F        -4.29816847761826   -3.83078359935263    0.08973709267500
C        -1.42349757536421   -1.03180662493212   -4.75203755852767
F        -0.60105064740041   -0.50248928280114   -5.70063851150118
F        -2.64219423999943   -0.65193375045186   -5.10243099958853
F        -1.37058725163146   -2.34679774690165   -5.07997777112439
C        -1.42450899609745    1.02841051449646   -4.75334372027082
F        -0.60014475208122    0.50224940318812   -5.70094666181231
F        -2.63939272048731    0.65345120043262   -5.10124333900682
F        -1.36664092059209    2.34745433640223   -5.08173283578669
156
 energy: -499.422533010920 gnorm: 7.362629993406 xtb: 6.4.1 (a3dbbd7)
C        -1.22479471407476    0.00394258376451    3.31402949032281
C        -0.37557219982037   -1.16641769212606    3.30495363909349
C         1.00567304985126   -0.72228798892107    3.32007250535199
C         1.00195222110867    0.73059756679222    3.33192951697142
C        -0.38034028063200    1.17697705778586    3.32856448665427
C         2.34974864244784   -2.60451737549153    0.59767847626336
C         3.19915162786931   -1.41949547030272    0.59810202593563
C         2.95998805842406   -0.70292955366737    1.82819842960225
C         1.96827512143572   -1.42570633101683    2.58941317894810
C         1.58191510734952   -2.59989112932236    1.83353998577686
C         3.19270153388778    1.42180521246438    0.60021066635859
C         2.33609166593045    2.60161457065294    0.59465052319832
C         1.58594334132517    2.59545980692542    1.83554124198200
C         1.96006148232903    1.42582580839590    2.58948658516518
C         2.96230461195923    0.69987952496260    1.83517606444372
C        -0.37779117402170    3.47896106748397    0.59680004133857
C        -1.74080010819574    3.03170243915864    0.58975163982271
C        -1.98870450240370    2.31283564696947    1.83395641923654
C        -0.74897157151383    2.30321680213513    2.59646254263524
C         0.24831978422583    3.04059427790742    1.83445892999092
C        -3.42310199051549    0.72223711045857    0.59655502077210
C        -3.42432078388091   -0.72169335002097    0.59977358933402
C        -2.81393090395793   -1.17210051576722    1.82765966159761
C        -2.42705998698055    0.00016671912509    2.57876275019888
C        -2.81295373697345    1.17062008002068    1.82719445497805
C        -1.74209931110519   -3.03016070374292    0.60048846409820
C        -0.36708814238160   -3.48504620537318    0.59262831713703
C         0.25583470106695   -3.02790865077043    1.82138197639804
C        -0.75101567511462   -2.30080609781757    2.57815463656356
C        -1.98621288777990   -2.31081956480517    1.83254727523858
C        -0.24533949529620   -3.04039683957322   -1.82848942169320
C         0.74356300823602   -2.30470029481247   -2.59155792087150
C         1.98723905312979   -2.30535050260547   -1.82486061039150
C         1.74311148855184   -3.03740482314787   -0.59840089950413
C         0.36942382603161   -3.47700081030636   -0.59812265429312
C         2.81107367436704   -1.16907715777169   -1.83232715381060
C         2.42392650336479   -0.00061470311290   -2.59293690587983
C         2.80608927452762    1.17525343920195   -1.83536432478340
C         3.41625968507285    0.71764021893934   -0.60286428845661
C         3.42387491886424   -0.72864153359677   -0.59569699999845
C         1.98187804271007    2.30640183094909   -1.82999917473444
C         0.75072277471050    2.30776277627242   -2.59108127135803
C        -0.24528065512942    3.03052279395126   -1.83497140859733
C         0.36937938471745    3.48812883910151   -0.59788575122506
C         1.75051323297648    3.03117283053999   -0.60159799148057
C        -1.57254195570010    2.59969401798098   -1.82105210662857
C        -1.94661200451812    1.41951865877829   -2.57474979786057
C        -2.94869588638294    0.70109866292488   -1.81492476022766
C        -3.20068105885659    1.42710498006115   -0.59270989416167
C        -2.34640572999490    2.60324417685873   -0.59131155027864
C        -2.95131005393986   -0.70183155554538   -1.81481116084537
C        -1.95416200214288   -1.42761769645942   -2.57845722584799
C        -1.58418163061382   -2.60284469755097   -1.83185298726132
C        -2.34290195043840   -2.59310991752050   -0.60046315819433
C        -3.20136135553760   -1.42664985580036   -0.59393274016024
C        -0.98670120530673   -0.72546548458507   -3.31681928879305
C        -0.98476308796132    0.72410813829943   -3.31149362591215
C         0.38668972118755    1.17540282969399   -3.33133582065903
C         1.23798598458235    0.00174316916723   -3.32992147607334
C         0.38385071734713   -1.17272084562281   -3.33314021198911
C        -1.77843008128606   -0.00865032263466    4.70168442774656
F        -0.79956699902819    0.11996541292791    5.74563049736679
F        -2.52313002018576   -0.98119425078010    5.14851994530211
F        -2.45083400222199    1.10018114414299    5.11269987899492
C        -0.53986043250032   -1.68371179684246    4.68913812363861
F        -0.25635494589824   -0.81306807965298    5.76020054687669
F        -1.72376399015695   -2.08616177375700    5.16841640161467
F         0.16237748486914   -2.72070428090741    5.11477859482460
C         1.44409498228629   -1.05769834731877    4.74263833365878
F         0.73074470592524   -0.38396017972494    5.72727345438620
F         1.54010869277235   -2.31789620157784    5.05397384425910
F         2.66398718518134   -0.60694251582162    5.05467921329877
C         3.37165732137433   -3.72666751657007    0.86816199301084
F         4.06866320535374   -3.51403913093834    1.98425885240008
F         4.26021998182357   -3.85050806470995   -0.11505557345973
F         2.79144635163554   -4.91912588459754    0.99989452698643
C         4.53799130194305    2.03452721845863    0.79875333890061
F         4.67189181252286    2.73599731019109    2.05381685570615
F         5.05194904802249    2.81335007641033   -0.05602661537136
F         5.55767403254536    1.15408131883179    1.11795658797736
C         3.35315982412627    3.72632787490546    0.84424436024845
F         4.02465023069132    3.59196220041215    2.01068381559158
F         4.18454365580611    3.96210201781303   -0.13178803162773
F         2.79677308086065    4.91726769564910    1.00544641001446
C        -2.83947213626676    3.32523070355740    2.62400489320222
F        -2.28562595984484    4.48737546145746    2.75215367994906
F        -4.01787135418085    3.55799067910851    2.04235447714554
F        -3.10545057596202    2.90263898037889    3.86421031248073
C         0.34433861760582    4.35876443363832    2.62579661649079
F        -0.78927599134532    4.97368351509918    2.75238490002264
F         1.15359775479918    5.23964881720326    2.05287806846486
F         0.81045998252296    4.16889471273389    3.86511882137729
C        -3.48134516902951    0.00236566707596    3.68368975293435
F        -4.74204416809645    0.00031385613178    3.22754625000432
F        -3.51601606258125   -1.10477819905910    4.44728520651587
F        -3.47657270805600    1.10141318216334    4.47842364860065
C        -2.49117895905296   -4.33346176613090    0.85914605385159
F        -2.13121275832131   -4.97903489270049    1.94419529252064
F        -2.27522201015301   -5.30654573632365   -0.01552382446027
F        -3.78431937546925   -4.21095112105478    1.13628461841198
C         0.36738905415807   -4.33968292752120    2.62278835916939
F        -0.77660858229888   -5.01934194765708    2.72696933965799
F         1.15089513535056   -5.24419802910867    2.04461022631353
F         0.91402028680764   -4.23650365472915    3.80177276348092
C        -1.02856819541513   -3.26575947526988    3.69261223685856
F        -1.53699133164945   -4.50361394336142    3.29471757718499
F        -0.12107806665694   -3.58013227274198    4.55056065238684
F        -2.16656790767918   -3.01423945244853    4.44634717462551
C         1.07601862631015   -3.29926771057166   -3.72128807352130
F         1.38765886007743   -4.52759415308009   -3.26892169807996
F         0.03246172879187   -3.56640304063916   -4.50582518899685
F         1.96241916130024   -2.89810629593493   -4.57480747751891
C         2.85265837541137   -3.29876117101436   -2.62296781727886
F         2.30363712274808   -4.52823570074104   -2.70300611091464
F         3.21349321943660   -2.89833623504177   -3.80226614245058
F         4.01528037325524   -3.55892987639038   -2.04862645067703
C         4.89048180760901    1.01072366327658   -0.86916357150915
F         5.35942432327125    0.45262222257062   -1.98572729649821
F         5.16849272793845    2.34422948808473   -1.09986645205535
F         5.74802928719087    0.53808987832932    0.04824392873031
C         0.53575351750317    4.99778703627338   -0.86618686970948
F         1.22623499391873    5.23413818597009   -1.98455590727866
F        -0.63254709503026    5.61968214512038   -1.00063362554557
F         1.17795769618708    5.62066435410468    0.11136410307691
C        -2.23360162370371    3.72518677884363   -2.62049590235173
F        -3.60957508721434    3.62845340821177   -2.68793266510462
F        -1.75135483900487    3.96435375182206   -3.80377735687003
F        -2.15229914015038    4.91945003858179   -2.04486187776380
C        -2.73898200563527    2.01552812954709   -3.68195681867740
F        -3.85227706634991    2.80989798137527   -3.33674350105627
F        -2.21058890072538    2.82627112596161   -4.54820063020864
F        -3.42183465293775    1.25179919859559   -4.56318646580009