156
 energy: -516.805248085445 gnorm: 0.823497602523 xtb: 6.4.1 (a3dbbd7)
C        -1.25632478708951    0.03380537675276    3.42923510778977
C        -0.41283368262464   -1.20944688886032    3.39304807486889
C         1.00478633289898   -0.71880212867012    3.40944487392569
C         1.01776251772760    0.78793094587080    3.40580845391216
C        -0.38413343839626    1.20324440763879    3.27056361338153
C         2.33043349900812   -2.53516056885056    0.55791244838278
C         3.12095766879834   -1.45160512678881    0.58246346524775
C         3.06127847968375   -0.70382915015605    1.85280272463129
C         2.02751723612737   -1.46680313488459    2.64135106541863
C         1.63709868259295   -2.68572161206267    1.85172760383804
C         3.13596940540279    1.45493753942677    0.63061037479187
C         2.33044269533585    2.60385104309259    0.59668850043403
C         1.56973248488041    2.60239011189066    1.83127139481679
C         1.97773067595407    1.45078681704761    2.53704502584061
C         2.90127959424001    0.75561063260699    1.79280729243919
C        -0.36340224491575    3.58294781374130    0.62926088328069
C        -1.81157154430373    3.10550617483657    0.62509485222985
C        -1.97268339614664    2.27372776429928    1.84349965127830
C        -0.74645879164996    2.29333415422780    2.56812753896318
C         0.26725853866796    2.99694280283691    1.84429139010484
C        -3.39843554209467    0.75023139828956    0.59468144505205
C        -3.52265483996999   -0.73596046218142    0.61150868167475
C        -2.77731152374928   -1.19153800909476    1.79814117266188
C        -2.53306597330703   -0.00003754659639    2.63182922448179
C        -2.77964910022917    1.17851799890020    1.76633810313566
C        -1.74447760276909   -3.03539529392982    0.57880717120070
C        -0.41240325537457   -3.45717461721045    0.56032238278714
C         0.21092032506340   -3.13525098464503    1.86661367397629
C        -0.79429110792242   -2.29928004949282    2.52111669251737
C        -1.96815240289670   -2.28726966883681    1.80074537177931
C        -0.24718771858507   -3.14047372047171   -1.85125973091210
C         0.77601986571094   -2.38674272694007   -2.64805839042901
C         2.05360699258593   -2.38725949850116   -1.85768654261774
C         1.70748238273626   -3.03056023280726   -0.56582546149673
C         0.39321154492171   -3.43375438800219   -0.54621716257507
C         2.74141680051950   -1.11020233289684   -1.81076699314305
C         2.38729752514006   -0.04659516145671   -2.50290221207914
C         2.89223651685967    1.17990778686548   -1.87886338443302
C         3.52872174365712    0.75364166648760   -0.58237092798974
C         3.52742545422556   -0.75738082419194   -0.61887045474292
C         2.02202313169286    2.38812525866215   -1.86043082391711
C         0.74089201508769    2.37609191986900   -2.66131823797344
C        -0.23397525604633    3.00969294484650   -1.75570925628840
C         0.37625328314082    3.41033378878143   -0.62085835766856
C         1.72410302584343    3.02243550004684   -0.55106533957642
C        -1.64141813867333    2.65618046187431   -1.87410344469375
C        -1.98703313200089    1.38240112041868   -2.57760647519961
C        -2.94822376998214    0.70493149803741   -1.84600505700725
C        -3.17220218271986    1.42822905546410   -0.60373147138572
C        -2.35525878765814    2.52328087762022   -0.59591893207862
C        -2.96365227010679   -0.70339499677358   -1.82528463346655
C        -1.95835588136502   -1.36875762939959   -2.57152975686300
C        -1.66548930256485   -2.65685884712917   -1.87798482986266
C        -2.35244846208871   -2.55106158847375   -0.56370063036818
C        -3.14889728012900   -1.42546795589563   -0.63252686804938
C        -1.04323074872284   -0.69873859595868   -3.28540373388045
C        -0.99316478887502    0.72140433006047   -3.30363030335666
C         0.31106967612770    1.14546103852731   -3.29999028797015
C         1.25823512467487    0.02373995887937   -3.41107924073548
C         0.35365631312229   -1.17934077809603   -3.41093346970640
C        -1.77757134315433    0.14814328897638    4.86692770711269
F        -1.01949916844400    0.43338531144323    5.94059868475919
F        -2.44430042929123   -0.74469106844465    5.45809264095423
F        -2.26649090141599    1.32959166077030    5.20664897955446
C        -0.65389382672472   -1.86827624791952    4.76895715234363
F        -0.58243795923895   -1.31768064927520    5.89861798037463
F        -1.85162970556147   -2.43864061194425    4.90401437001485
F        -0.11865851523343   -3.00854688592165    5.03450432209248
C         1.42271875091044   -1.04060282818372    4.86313759908260
F         1.08378388811552   -0.57968370141480    6.08084567183926
F         1.32073250240643   -2.13805971325938    5.46061260386597
F         2.62181606952933   -0.60775113254173    5.55576100831041
C         1.46640730719603    1.24095500884142    4.80035694813561
F         0.64923025737522    1.11737581857700    5.77361642135192
F         2.76291503955662    1.08959145149904    4.97385082145572
F         1.43169053831046    2.55663058236792    4.92953374768904
C         4.40016130328786   -0.94170024922408    2.56306208177390
F         4.90628331569085   -2.16804041238884    2.33509555350406
F         5.40869313438689   -0.36813779206587    2.00801247859285
F         4.50021659417520   -0.18709074889127    3.66515617355618
C         2.86646758885954   -2.10109496178200    3.78570852128644
F         3.95214557273273   -2.82712814663199    3.72798734921814
F         3.65886312086026   -1.44434089745744    4.57446060317360
F         2.57747230453660   -2.99929247849814    4.73632703219225
C         2.39797442293165   -3.84987822342604    2.48533838684923
F         3.76295340772609   -3.88274643960327    2.30944151737665
F         2.47237244188824   -4.97024817588421    1.81894433511550
F         2.17659056089214   -4.31697656311792    3.62746039582746
C        -0.41510534446675    5.08070606403368    0.86529751436173
F        -0.79296739079144    5.42386103151523    2.07002645669963
F        -0.88308630685444    5.75640100067196   -0.15483237053495
F         0.79022211188363    5.61135204544188    0.96988441215885
C        -2.65176298002841    4.35313834878616    0.87796968241714
F        -2.54961981756054    4.85288418365164    2.08331002590891
F        -2.68264980193062    5.21022325929128   -0.09091063520670
F        -3.93984476831649    4.06882948248997    0.97659641412914
C        -4.98567059741774   -1.07891187948254    0.81133864628366
F        -5.56677805302174   -0.51550745506251    1.77867466147731
F        -5.71236960491336   -0.62533549995051   -0.19679538771663
F        -5.14217080185738   -2.37659620535413    0.98493807099826
C        -3.62038327069006    0.00730684748875    3.70843251472424
F        -4.83395949594480    0.07904839979832    3.33338542824091
F        -3.79946274323698   -1.21785062049957    4.25061823263602
F        -3.81438073444976    1.18110251185599    4.29972335997637
C         0.19273214372716   -4.46456122933742    2.62626925855092
F        -1.03529578566962   -4.95542291028586    2.70061399367591
F         0.69685162045626   -5.47334254633374    1.99832044812108
F         0.34703423974046   -4.39796933229509    3.89332429221582
C        -0.31879833936347   -4.52053884890890   -2.50613137278599
F         0.74604976504117   -5.34815433123573   -2.32744151603018
F        -0.74942513119756   -4.73448838418380   -3.67341101863202
F        -0.93136800543972   -5.46671442173410   -1.83862253533076
C         1.10286068411229   -3.36672753817870   -3.81441367793127
F         1.50744387445720   -4.58723592718752   -3.75098899205071
F         0.32598417522294   -3.77829057245223   -4.76196084859771
F         2.14029837096788   -3.29383518821813   -4.68757903049099
C         2.99498318780170   -3.36207776557198   -2.57322238367180
F         2.67401232112529   -4.64796553080254   -2.35491224022726
F         3.51810999611202   -2.77401243950105   -3.65322460981904
F         4.10758128270422   -3.57501155103019   -1.98283748776678
C         4.06988716749062    1.59660789664354   -2.76882440790232
F         4.91133039898313    0.59005911893687   -3.24035019584648
F         3.90237351057379    1.78282846223446   -4.03113052199071
F         4.91613726294602    2.49035951802920   -2.46575201433900
C         4.98453498002888    1.15721932883647   -0.69244704618041
F         5.76958353763879    0.80668392004704   -1.60210975544166
F         5.20733465946742    2.45889819225865   -0.61363191026462
F         5.74038438293867    0.89924505276926    0.33575390197066
C         4.97566124080040   -1.17680919370520   -0.87583930243220
F         5.39284924241079   -0.99217146396307   -2.09837344427403
F         5.16586378203696   -2.45460723648100   -0.88336015535208
F         5.79688698156152   -0.94405904158348    0.08579605504982
C         2.89598170150060    3.43472345074104   -2.52824526345432
F         2.47174765700610    4.81220116242887   -2.45128428326116
F         3.22537963713715    3.47653344106491   -3.74549895221533
F         3.89216434765561    3.92894118989530   -1.83303349335083
C         0.97458027893536    3.33492627665914   -3.82519970409383
F         1.03412437036616    4.57508476585073   -3.48843794490283
F         1.77237550017911    2.90339666952448   -4.75285938962697
F        -0.05450715499323    3.49549367606960   -4.60478697854595
C        -2.33031467980472    3.76721075964546   -2.66090250264650
F        -3.62217792449734    3.51721521091591   -2.74701123870497
F        -1.88620655604603    3.86194425507395   -3.87184204416457
F        -2.13033277954391    4.93405615147394   -2.10833037655992
C        -2.45481751019146   -3.70440659182362   -2.65337270271829
F        -3.73998273374188   -3.40403452831815   -2.71960894445784
F        -2.24962709127084   -3.61524056989533   -3.95966836686962
F        -2.65235716558216   -4.82737291629086   -2.02086071783055
C         1.86849537766418    0.07272269873301   -4.81350070653286
F         1.01253385994631    0.41076083393002   -5.74025486404309
F         2.55641874614542    1.09643600996589   -5.11943245327032
F         2.83496676498971   -0.81338124477725   -5.00627479456685
C         0.40186009454341   -1.68541955270396   -4.82080445410641
F        -0.22397021812964   -0.81662478474221   -5.95160153768169
F        -0.63811528221619   -2.36848651628297   -5.25328089667730
F         1.42539539077903   -1.88175746520166   -5.51111648535922
