156
 energy: -480.098414582368 gnorm: 10.661474947384 xtb: 6.4.1 (a3dbbd7)
C        -1.23626340000000    0.00000000000000    3.32997640000000
C        -0.38202640000000   -1.17575640000000    3.32997640000000
C         1.00015810000000   -0.72665740000000    3.32997640000000
C         1.00015810000000    0.72665740000000    3.32997640000000
C        -0.38202640000000    1.17575640000000    3.32997640000000
C         2.34433560000000   -2.60145750000000    0.59464210000000
C         3.19857260000000   -1.42570110000000    0.59464210000000
C         2.96246730000000   -0.69904370000000    1.83090550000000
C         1.96230920000000   -1.42570110000000    2.59495830000000
C         1.58028280000000   -2.60145750000000    1.83090550000000
C         3.19857260000000    1.42570110000000    0.59464210000000
C         2.34433560000000    2.60145750000000    0.59464210000000
C         1.58028280000000    2.60145750000000    1.83090550000000
C         1.96230920000000    1.42570110000000    2.59495830000000
C         2.96246730000000    0.69904370000000    1.83090550000000
C        -0.36750900000000    3.48258920000000    0.59464210000000
C        -1.74969350000000    3.03349030000000    0.59464210000000
C        -1.98579880000000    2.30683290000000    1.83090550000000
C        -0.74953540000000    2.30683290000000    2.59495830000000
C         0.25062270000000    3.03349030000000    1.83090550000000
C        -3.42570570000000    0.72665740000000    0.59464210000000
C        -3.42570570000000   -0.72665740000000    0.59464210000000
C        -2.80757400000000   -1.17575640000000    1.83090550000000
C        -2.42554760000000    0.00000000000000    2.59495830000000
C        -2.80757400000000    1.17575640000000    1.83090550000000
C        -1.74969350000000   -3.03349030000000    0.59464210000000
C        -0.36750900000000   -3.48258920000000    0.59464210000000
C         0.25062270000000   -3.03349030000000    1.83090550000000
C        -0.74953540000000   -2.30683290000000    2.59495830000000
C        -1.98579880000000   -2.30683290000000    1.83090550000000
C        -0.25062270000000   -3.03349030000000   -1.83090550000000
C         0.74953540000000   -2.30683290000000   -2.59495830000000
C         1.98579880000000   -2.30683290000000   -1.83090550000000
C         1.74969350000000   -3.03349030000000   -0.59464210000000
C         0.36750900000000   -3.48258920000000   -0.59464210000000
C         2.80757400000000   -1.17575640000000   -1.83090550000000
C         2.42554760000000    0.00000000000000   -2.59495830000000
C         2.80757400000000    1.17575640000000   -1.83090550000000
C         3.42570570000000    0.72665740000000   -0.59464210000000
C         3.42570570000000   -0.72665740000000   -0.59464210000000
C         1.98579880000000    2.30683290000000   -1.83090550000000
C         0.74953540000000    2.30683290000000   -2.59495830000000
C        -0.25062270000000    3.03349030000000   -1.83090550000000
C         0.36750900000000    3.48258920000000   -0.59464210000000
C         1.74969350000000    3.03349030000000   -0.59464210000000
C        -1.58028280000000    2.60145750000000   -1.83090550000000
C        -1.96230920000000    1.42570110000000   -2.59495830000000
C        -2.96246730000000    0.69904370000000   -1.83090550000000
C        -3.19857260000000    1.42570110000000   -0.59464210000000
C        -2.34433560000000    2.60145750000000   -0.59464210000000
C        -2.96246730000000   -0.69904370000000   -1.83090550000000
C        -1.96230920000000   -1.42570110000000   -2.59495830000000
C        -1.58028280000000   -2.60145750000000   -1.83090550000000
C        -2.34433560000000   -2.60145750000000   -0.59464210000000
C        -3.19857260000000   -1.42570110000000   -0.59464210000000
C        -1.00015810000000   -0.72665740000000   -3.32997640000000
C        -1.00015810000000    0.72665740000000   -3.32997640000000
C         0.38202640000000    1.17575640000000   -3.32997640000000
C         1.23626340000000    0.00000000000000   -3.32997640000000
C         0.38202640000000   -1.17575640000000   -3.32997640000000
C        -1.76086815247998    0.00000000000000    4.78849957557021
F        -0.76911826531252    0.00000000000000    5.67468926254662
F        -2.50968386795825   -1.06794314680471    5.04863888333743
F        -2.50968386795825    1.06794314680471    5.04863888333743
C        -0.54413818249354   -1.67468516033722    4.78849957845317
F        -0.23767107904745   -0.73147481112462    5.67468925997942
F        -1.79120914301982   -2.05683909935453    5.04863874564184
F         0.24013968171955   -2.71686350152345    5.04863903502921
C         1.42457227037960   -1.03501233722714    4.78849957248258
F         0.62223011468481   -0.45207589682711    5.67468926529602
F         1.40265511061956   -2.33913928186680    5.04863905501621
F         2.65809836182651   -0.61117154425495    5.04863869666890
C         1.42457227037960    1.03501233722714    4.78849957248258
F         0.62223011468481    0.45207589682711    5.67468926529602
F         2.65809836182651    0.61117154425495    5.04863869666891
F         1.40265511061956    2.33913928186680    5.04863905501621
C         4.25247495652193   -1.01957928511255    2.62817407757680
F         4.45020405360863   -2.32910962270744    2.75037677428969
F         5.33704498641440   -0.51936149478958    2.04303305824604
F         4.21414295278388   -0.51936236815955    3.85992636334025
C         2.82790274436383   -2.05459160758554    3.71645040671519
F         3.82797483682855   -2.78118494419178    3.22571836876305
F         3.37293748548841   -1.13053297859378    4.50255013394648
F         2.11749631416700   -2.85850222732984    4.50254863174647
C         2.28376457660886   -3.72927671755932    2.62817408867206
F         3.59030321655004   -3.51265997057976    2.75037870097715
F         2.14318168460923   -4.91533956626619    2.04303190988612
F         1.79618325340524   -3.84739782561575    3.85992562899767
C        -0.53602450593361    4.99908416128281    0.86730591619822
F        -1.22448605650957    5.23152837615597    1.98125850960180
F        -1.18149064144157    5.61404773804446   -0.11965571789346
F         0.63540201352706    5.61404743764837    1.00324736766175
C        -2.50473491433418    4.35941144902977    0.86730593917895
F        -2.08438487052912    4.95213043104453    1.98125838386969
F        -2.34400857369757    5.23632280881804   -0.11965581818547
F        -3.81390519137296    4.16837996597314    1.00324768478856
C        -4.92005227074660   -1.03501232949151    0.86730592957069
F        -5.35386609588658   -0.45207588830481    1.98125865327758
F        -5.70437742108406   -0.61117153086585   -0.11965558739362
F        -5.14292645153878   -2.33913927311179    1.00324714649869
C        -3.49548004549360    0.00000000000000    3.71645041414084
F        -4.73163621497510    0.00000000000000    3.22571838476757
F        -3.39327517264965   -1.06794314680471    4.50254938956302
F        -3.39327517264965    1.06794314680471    4.50254938956303
C         0.34440953624153   -4.35941144868709    2.62817404748705
F        -0.83992598883967   -4.95213069234126    2.75037577510431
F         1.15529636597892   -5.23632261667420    2.04303359185445
F         0.80829780400759   -4.16837989546168    3.85992670963205
C        -0.34440953624153   -4.35941144868709   -2.62817404748705
F         0.83992598883967   -4.95213069234126   -2.75037577510431
F        -0.80829780400759   -4.16837989546168   -3.85992670963205
F        -1.15529636597892   -5.23632261667420   -2.04303359185445
C         1.08016271022039   -3.32439912180418   -3.71645041587937
F         1.46215754230406   -4.50005299330749   -3.22571838851551
F         0.03290491502765   -3.55721032900471   -4.50254840736000
F         2.06425285383526   -2.89718320022386   -4.50255037491024
C         2.84103082519036   -3.32439911178427   -2.62817407941587
F         2.23127406184888   -4.50005340761388   -2.75037746012495
F         3.10404037880944   -2.89718378306489   -3.85992609894426
F         4.01248672303643   -3.55720929213529   -2.04303264409737
C         4.03961820246674    1.67468514775899   -2.62817407948106
F         4.96930660042402    0.73147479244129   -2.75037763231441
F         3.71458666614022    2.05683907990832   -3.85992603200073
F         4.62303373288711    2.71686348978894   -2.04303253910982
C         4.92005227074660    1.03501232949151   -0.86730592957069
F         5.35386609588658    0.45207588830481   -1.98125865327758
F         5.14292645153878    2.33913927311179   -1.00324714649869
F         5.70437742108406    0.61117153086585    0.11965558739362
C         4.92005227074660   -1.03501232949151   -0.86730592957069
F         5.35386609588658   -0.45207588830481   -1.98125865327758
F         5.14292645153878   -2.33913927311179   -1.00324714649869
F         5.70437742108406   -0.61117153086585    0.11965558739362
C         2.84103082519036    3.32439911178427   -2.62817407941587
F         2.23127406184888    4.50005340761388   -2.75037746012491
F         3.10404037880940    2.89718378306489   -3.85992609894427
F         4.01248672303644    3.55720929213525   -2.04303264409737
C         1.08016271022039    3.32439912180418   -3.71645041587937
F         1.46215754230407    4.50005299330749   -3.22571838851551
F         2.06425285383526    2.89718320022386   -4.50255037491024
F         0.03290491502764    3.55721032900471   -4.50254840735999
C        -2.28376457660886    3.72927671755932   -2.62817408867206
F        -3.59030321655004    3.51265997057978   -2.75037870097715
F        -1.79618325340527    3.84739782561575   -3.85992562899768
F        -2.14318168460923    4.91533956626621   -2.04303190988614
C        -2.28376457660886   -3.72927671755932   -2.62817408867206
F        -3.59030321655004   -3.51265997057978   -2.75037870097715
F        -1.79618325340527   -3.84739782561575   -3.85992562899768
F        -2.14318168460923   -4.91533956626621   -2.04303190988614
C         1.76086815247998    0.00000000000000   -4.78849957557021
F         0.76911826531252    0.00000000000000   -5.67468926254662
F         2.50968386795825    1.06794314680471   -5.04863888333743
F         2.50968386795825   -1.06794314680471   -5.04863888333743
C         0.54413818249354   -1.67468516033722   -4.78849957845317
F         0.23767107904745   -0.73147481112462   -5.67468925997942
F        -0.24013968171955   -2.71686350152345   -5.04863903502921
F         1.79120914301982   -2.05683909935453   -5.04863874564184
156
 energy: -488.334613524861 gnorm: 8.878020078179 xtb: 6.4.1 (a3dbbd7)
C        -1.23145440144622    0.00058716719468    3.32145985920104
C        -0.38190663957305   -1.17533773180631    3.32043396917813
C         0.99546494419721   -0.72261846529379    3.31255297240247
C         0.99972499634441    0.72839476844852    3.32419493323745
C        -0.38273684460063    1.17617547245659    3.33225216558871
C         2.34519197337539   -2.60238897084748    0.59606620528185
C         3.19978398638207   -1.42698612032462    0.59609793663254
C         2.95850892755934   -0.69518383258766    1.82526473508424
C         1.95283104776494   -1.41845703527997    2.58211853978407
C         1.57814644062366   -2.59389101931996    1.82297120039470
C         3.19686739096661    1.42747858494669    0.59659314628023
C         2.34427866807119    2.60044190774122    0.59692770868773
C         1.58111183986759    2.60041269834991    1.82980726504113
C         1.96398933180849    1.42767791861339    2.59260835990079
C         2.96256156373871    0.70183540438793    1.83116131765368
C        -0.36493670190712    3.47972334056639    0.59451720582138
C        -1.75055197615483    3.03062689241918    0.59447960758668
C        -1.98467194614037    2.30638341002337    1.83282912889680
C        -0.75044800767546    2.30919647737377    2.59288395597744
C         0.25081801393442    3.03313394416530    1.83241559702164
C        -3.42647666255491    0.72893586587594    0.59490106113058
C        -3.42726694068600   -0.72676273069864    0.59521354465909
C        -2.80667472818264   -1.17683468714811    1.83128265781602
C        -2.42535178263434   -0.00012298799089    2.58702034656436
C        -2.80842122107841    1.17588402878831    1.82918287409654
C        -1.74936011536724   -3.03311900275922    0.59618309867169
C        -0.36965260500839   -3.48302306479813    0.59486617858833
C         0.24545684320252   -3.02987831817506    1.82681699155645
C        -0.75151154350983   -2.30810090135687    2.59335589310731
C        -1.98528803695133   -2.30821415011362    1.82927658885765
C        -0.24813695032216   -3.02551135223262   -1.82270631645789
C         0.74634207237061   -2.29620786818183   -2.58252165686778
C         1.98397582901161   -2.30280910372210   -1.82543166282902
C         1.74977482731559   -3.03604585773154   -0.59578403655959
C         0.36809026961578   -3.48359499570084   -0.59520785506212
C         2.81019945603044   -1.17531435458871   -1.83117576843325
C         2.42798776626737    0.00065247860196   -2.59553771534752
C         2.79973144983517    1.17092953080159   -1.82582831079509
C         3.41861141153690    0.72778526002770   -0.58997395873171
C         3.42046777515811   -0.72767599129266   -0.59334232701512
C         1.97993191126230    2.30413796665226   -1.82467313106062
C         0.74579232763656    2.30465615200930   -2.59213658724700
C        -0.24835242339459    3.03476185051213   -1.83120905665641
C         0.36905612593559    3.48321275705197   -0.59587275425991
C         1.74940210378974    3.03448155776861   -0.59440329975378
C        -1.58237756266005    2.60186226852822   -1.83177881133375
C        -1.96267307642904    1.42248587243266   -2.59508931319454
C        -2.96214807052935    0.69967092631026   -1.83065973468210
C        -3.19733752517495    1.42505581986643   -0.59513011390522
C        -2.34641199362683    2.60019119276321   -0.59458970615550
C        -2.96188717159664   -0.69971235352155   -1.82972406027515
C        -1.96473184391225   -1.42560350653053   -2.59448428143210
C        -1.58200456345066   -2.59369036199478   -1.82737578666295
C        -2.34565469215656   -2.60089205475801   -0.59376347148267
C        -3.19647526005463   -1.42689558004542   -0.59865994275330
C        -1.00013350877065   -0.72519577387039   -3.33148576879766
C        -1.00099738445075    0.72630831309689   -3.33043449313604
C         0.38028428492707    1.17424733824413   -3.33108751502075
C         1.23497859449022    0.00122885084157   -3.32479930045105
C         0.37817698003575   -1.17068636667759   -3.32007252069978
C        -1.77483907832921    0.00009968461490    4.74392168402619
F        -0.79363242340686    0.04000632125984    5.70964586488130
F        -2.53573031531025   -1.03431618518209    5.07613972876693
F        -2.49117253123502    1.09125381179056    5.07804166313906
C        -0.54392092867828   -1.68055365360378    4.75969289509210
F        -0.26552757148876   -0.77605947650223    5.70997771635918
F        -1.76000634364903   -2.12452195278325    5.05454449026281
F         0.17452807906146   -2.75809762876739    5.05697218698810
C         1.42877953053079   -1.03994322175162    4.74424436639459
F         0.66149438729217   -0.46639381178494    5.71521013804893
F         1.43379667313465   -2.31868239718461    5.09100157746548
F         2.65832898602693   -0.65211926288145    5.08263300909490
C         1.43943762364399    1.04237733721879    4.76361728035998
F         0.62220591799763    0.50675945659860    5.70343861912036
F         2.66823602393644    0.68716278168963    5.05263288258424
F         1.40141093054201    2.34393771949524    5.05282119214883
C         4.24061983050839   -0.99665580808873    2.62491784186986
F         4.50507440897451   -2.32242890831231    2.72374549164122
F         5.34223030256638   -0.51953005756374    2.04470018459737
F         4.26955971894925   -0.47311624498089    3.83000636606736
C         2.80563980347504   -2.02983211901718    3.69809281974070
F         3.84115336690219   -2.78872046637774    3.27086613119601
F         3.36897346267465   -1.17275641674419    4.53521709271802
F         2.16583269154074   -2.85261335319949    4.53862214420104
C         2.24944110067031   -3.70771360136871    2.61609320850836
F         3.61210754668531   -3.56874661156267    2.72243014203706
F         2.18432454000234   -4.92762383300173    2.03056289726526
F         1.81787883208215   -3.90202613292354    3.85048405727759
C        -0.52991172861996    4.99580412944621    0.85709080121138
F        -1.17866173985684    5.25260752379912    1.99266889175104
F        -1.11397057734554    5.63940523651580   -0.12110553350863
F         0.63825336493440    5.61657515198540    1.00439584728611
C        -2.50848596119807    4.35302411062528    0.85668383108379
F        -2.13378283602040    4.94234308856426    1.99279652977432
F        -2.41343603349746    5.21747558609434   -0.11790791108406
F        -3.81725353249024    4.16856738489155    1.00461201651173
C        -4.91906803368372   -1.03513595505220    0.86520655284898
F        -5.36779534109826   -0.45972729168460    1.96062676080559
F        -5.70603617335461   -0.61116795838831   -0.12085226104996
F        -5.14406558938983   -2.34098868378763    1.00360327479523
C        -3.49026597259369    0.00086129163433    3.69843970568417
F        -4.72390350179516    0.00860234448992    3.24966764543748
F        -3.42826142049310   -1.08223606730581    4.49536365217938
F        -3.42720026611983    1.09291327195765    4.49555264867025
C         0.33729656859826   -4.34639936824655    2.61726050390510
F        -0.84318314168301   -4.95673905951405    2.75255208289506
F         1.12644493874380   -5.26625099494879    2.03125420562245
F         0.75893880564014   -4.18688326712924    3.88104673847984
C        -0.36128983585863   -4.32248638806330   -2.61593444952547
F         0.82658699997809   -5.01204167924334   -2.72242377154504
F        -0.82253352872902   -4.22550844856119   -3.85034263964226
F        -1.13074754371414   -5.26798137306998   -2.03116270106532
C         1.07402274943278   -3.28838585210798   -3.69847880840155
F         1.46914273798553   -4.51574985403370   -3.27075155683696
F         0.07301585065649   -3.57882682006849   -4.53903706291216
F         2.03599049963077   -2.92932427538562   -4.53645249401055
C         2.84337530354259   -3.29886415207876   -2.62398426636536
F         2.27935779922739   -4.52804966096794   -2.72343176659999
F         3.17664899560962   -2.89162220942850   -3.83203491169154
F         4.01634945515724   -3.56321584070553   -2.04289389423968
C         4.00625599737192    1.69528041196109   -2.60359121237310
F         4.97883061493196    0.72465760135654   -2.81737056217403
F         3.74131236875806    2.02477963044922   -3.88346407055897
F         4.62887946391450    2.71611948341522   -2.09880230813945
C         4.90384142565529    1.04311645045553   -0.84593595800733
F         5.39331444119568    0.47400490333650   -1.96804611413034
F         5.17902275194598    2.32365721261491   -0.93805176449727
F         5.70977925003803    0.68062798025426    0.12419543776437
C         4.90903430190246   -1.04171833998459   -0.84594469239033
F         5.37028639849984   -0.50776599263497   -1.99613921964033
F         5.14689127137424   -2.34140661231053   -1.00344220257826
F         5.71058394260308   -0.68218419333923    0.12196809630702
C         2.83012219614488    3.28885063245461   -2.62712263649650
F         2.26831247479796    4.53340087225988   -2.72330195969610
F         3.14320588190892    2.93072241795482   -3.84198947194821
F         4.00880713058499    3.61102725193497   -2.02796415743474
C         1.07642634671130    3.31142484934111   -3.71586191464282
F         1.41872797293159    4.51713495017238   -3.24931761173173
F         2.00299040092782    2.89777002890166   -4.55050845818094
F         0.03313065005241    3.55911763039458   -4.50642623091071
C        -2.28410294351781    3.72779826521374   -2.62756841290394
F        -3.59199108515601    3.51336855087553   -2.75109965203875
F        -1.79882662471566    3.84878854872074   -3.86094113419819
F        -2.14313570156494    4.91698401699670   -2.04605654613948
C        -2.28407725126144   -3.71355012327273   -2.61945508901058
F        -3.59386026780079   -3.51422147492617   -2.75177642962926
F        -1.84565698875555   -3.83173806246420   -3.88047007477781
F        -2.18220290854388   -4.92413670708479   -2.03194149682851
C         1.76479653873654    0.00145300714272   -4.77447118228756
F         0.78712412067613    0.04316495163672   -5.69281554344728
F         2.51196635162788    1.06912682041023   -5.05510376254276
F         2.56507025336840   -1.01230115225086   -5.05122573461949
C         0.55642084744703   -1.67375987968905   -4.75524798607811
F         0.19387098471547   -0.75625229994888   -5.69785754819021
F        -0.27646802083923   -2.68700827210194   -5.08993944709498
F         1.75695999326559   -2.08557192845308   -5.08145172379251
156
 energy: -496.524858607986 gnorm: 8.238609348215 xtb: 6.4.1 (a3dbbd7)
C        -1.22872261942712    0.00299594704703    3.31953226191169
C        -0.38174639069823   -1.17571718511011    3.31323508060762
C         0.99013375301287   -0.71906456503709    3.29774768104062
C         0.99914298830155    0.73057528679220    3.32111390166713
C        -0.38356586496025    1.17651681400449    3.33405574501875
C         2.34541504942818   -2.60241245538306    0.59551666347930
C         3.20027426751872   -1.42878760217513    0.59737807859335
C         2.95885103685405   -0.69222358574480    1.82151924469623
C         1.94619876773450   -1.41153964246751    2.57153379392914
C         1.57781868145435   -2.59080586887074    1.81854744822579
C         3.19537393723078    1.42919795579603    0.59895760664693
C         2.34369705473253    2.59975502644225    0.59910033262699
C         1.58225595478594    2.59881264917487    1.82813126453501
C         1.96623549541184    1.42970176567829    2.58942365081872
C         2.96136505632220    0.70557282310407    1.83047915835134
C        -0.36246768544707    3.47902145378465    0.59536779074438
C        -1.75201601212578    3.02856716431770    0.59479627569712
C        -1.98334390027251    2.30570630758830    1.83543231332162
C        -0.75112118584271    2.31091564566278    2.59013632838058
C         0.25070341377019    3.03215386805305    1.83462921801770
C        -3.42408591251080    0.73153048262083    0.59441850368138
C        -3.43306342947343   -0.72716405672189    0.59679918496148
C        -2.80491113419239   -1.17878498886351    1.83140636012529
C        -2.42809503831120   -0.00040060947218    2.58103302652303
C        -2.80870153172125    1.17594703000660    1.82634604437479
C        -1.74884217150175   -3.03278737045452    0.59709564235525
C        -0.37203752203043   -3.48257449819789    0.59413009111057
C         0.24042346123019   -3.03026478825359    1.82512915871476
C        -0.75412024246959   -2.31018118176685    2.59165673442706
C        -1.98445889359514   -2.30725295180798    1.82702356441698
C        -0.24663038392522   -3.02571529453486   -1.81825654616682
C         0.74667310505484   -2.29232249455525   -2.57686083349738
C         1.98465512230347   -2.30030451807684   -1.82095235960181
C         1.74851640561964   -3.03710547001020   -0.59508023776723
C         0.36944301878864   -3.48346485644906   -0.59451994620980
C         2.81221328563038   -1.17491603635177   -1.83145881611400
C         2.43010474669906    0.00153250816602   -2.59600519113622
C         2.79761987487543    1.16728993837154   -1.82453879984530
C         3.41470498064307    0.72888692211864   -0.58525837383762
C         3.41787007158547   -0.72948820916838   -0.59295845406727
C         1.97700649284606    2.30571951884879   -1.82130821884333
C         0.74150008440242    2.30334064738662   -2.59044182140947
C        -0.24585515087022    3.03618887592426   -1.82990772554136
C         0.37111025737580    3.48185713319708   -0.59819836703540
C         1.74860883053784    3.03591570000792   -0.59315200838999
C        -1.58523711257188    2.60412100169872   -1.83380742081830
C        -1.96295546396296    1.41866738378161   -2.59485266326342
C        -2.96191626733880    0.70051797944150   -1.83097542027986
C        -3.19574775823518    1.42440576855422   -0.59499843476042
C        -2.34877827706846    2.59720341407672   -0.59503023860508
C        -2.96078461103193   -0.70057955122829   -1.82832809808355
C        -1.96727110689099   -1.42435318285922   -2.59370539518896
C        -1.58679719025933   -2.59029778261020   -1.82611893080824
C        -2.34696704570668   -2.59822254339275   -0.59182535893804
C        -3.19385877949947   -1.42849578940222   -0.60313100221910
C        -1.00032008568233   -0.72365940963177   -3.33239260133930
C        -1.00187770070292    0.72618184745860   -3.32818931041280
C         0.37848424442777    1.17320869073238   -3.33388037924076
C         1.23395690728695    0.00517421895630   -3.32049425690725
C         0.37346950248873   -1.16513604957769   -3.31418978846562
C        -1.79439751403441   -0.01612119415074    4.70131699998511
F        -0.81516028853677    0.10010690779289    5.75046586511632
F        -2.53531312844916   -0.99406981038702    5.10589224254492
F        -2.43488857267305    1.10377587881146    5.12453150036240
C        -0.53924733496199   -1.68271630082442    4.73462935880845
F        -0.34662918645702   -0.84785308965227    5.73130727204958
F        -1.74007159210003   -2.16921629920891    5.05908736230516
F         0.12687718667987   -2.78741196712464    5.06008304240535
C         1.43300248471417   -1.04969642595746    4.69706046799290
F         0.76073808393622   -0.48430188481111    5.75906261020026
F         1.44068580003977   -2.28921774045729    5.13641353855012
F         2.64979505127947   -0.67297408356940    5.12261635204243
C         1.45576580417885    1.04975683574982    4.74012009435752
F         0.61301947154316    0.57811916595006    5.72728681975405
F         2.67624507094306    0.73868081896102    5.05279807384472
F         1.40000428922783    2.34602124677861    5.05483976607484
C         4.22748838420779   -0.97363378902672    2.62311865445981
F         4.56569250405966   -2.31767583967729    2.68690862649215
F         5.34506646838119   -0.52022169389121    2.04733547937631
F         4.30523893909915   -0.44200096287304    3.80964617812362
C         2.77822656265602   -1.99596804880528    3.67330464549083
F         3.84660421471303   -2.78935940724520    3.34063934430229
F         3.37490586850362   -1.21215563373653    4.55295427315231
F         2.21884439798278   -2.86128505406579    4.56962956772801
C         2.20995314593304   -3.68869918946692    2.61786460941800
F         3.63904682695096   -3.63265621844197    2.68243138512107
F         2.25708537307064   -4.91935582203640    2.02665917334337
F         1.87243873243124   -3.94319975734316    3.82413147295414
C        -0.52505719613738    4.99234173049599    0.84551267080864
F        -1.15272876777739    5.26742687522096    2.00461292852822
F        -1.07497854998303    5.65536868702418   -0.12209395425470
F         0.63942477835004    5.61792695192523    1.00556998929268
C        -2.51131861928545    4.34693496834673    0.84427702851954
F        -2.16338596075639    4.93957281292993    2.00546141979848
F        -2.45435071013326    5.20790355167134   -0.11527979560180
F        -3.81864479144707    4.16893443636107    1.00598254737516
C        -4.91854649009196   -1.03509203202659    0.86382874639774
F        -5.38030422014369   -0.46680353674304    1.94151155057631
F        -5.70754615187714   -0.61107159845911   -0.12205335651188
F        -5.14501099028778   -2.34273175812850    1.00390875630176
C        -3.48221789784381    0.00387847623698    3.68257348840638
F        -4.71745717760130    0.01595665168684    3.27275221794448
F        -3.46802927647573   -1.10919258413856    4.48218400482378
F        -3.49156468028330    1.11075604661874    4.46666032183043
C         0.33731079854497   -4.33558723776232    2.60685036514330
F        -0.84762224620589   -4.96199054102929    2.75519596601961
F         1.06226039708746   -5.29864012616249    2.02356367789345
F         0.68382148328502   -4.20767136398853    3.89776157088320
C        -0.38027446721335   -4.28112298192794   -2.61705794732486
F         0.81097042223546   -5.07855300296722   -2.68266802918853
F        -0.80336279225352   -4.29078496596289   -3.82450386816335
F        -1.07676191407888   -5.29951249540165   -2.02753119216237
C         1.05371056041959   -3.24834765632533   -3.67369769497151
F         1.47672077084385   -4.51612127503062   -3.33955026147453
F         0.12864252805104   -3.62590885818232   -4.55580159302943
F         2.02346181603910   -2.96679837478172   -4.56022329903677
C         2.84618006547535   -3.27318423574080   -2.62131869514713
F         2.33148635807164   -4.55989985679784   -2.68677116927192
F         3.22425053568544   -2.88756118019130   -3.81209399402233
F         4.01670725967645   -3.56791580848151   -2.04393823853633
C         3.97814996989821    1.71675856114908   -2.57373352849800
F         4.98364938932220    0.71356034818807   -2.88962633775439
F         3.77910475012409    1.97487620990183   -3.90805513878967
F         4.64627712753426    2.68392240784489   -2.14831293743721
C         4.88845717396601    1.05322792274874   -0.82579105470969
F         5.43679352614101    0.50719562207217   -1.93208745647031
F         5.20052429000282    2.31546520628082   -0.89553369135284
F         5.71328049854159    0.72271301140883    0.12526555479463
C         4.89718183685465   -1.04759718458145   -0.82328731689281
F         5.38300309833355   -0.56750594921803   -2.02240747003198
F         5.15023554789003   -2.34135802686082   -1.00361249820058
F         5.71510710876207   -0.72574742196372    0.12078477733660