72
 energy: -177.484507240253 gnorm: 0.002440064187 xtb: 6.4.1 (a3dbbd7)
C        -1.29371647928391    0.00314717288162    3.52523339657911
C        -0.35600506199937   -1.17845320914930    3.29993129296598
C         0.99428872686232   -0.71414542830768    3.26336727599388
C         0.97952894467946    0.72897232345688    3.25407277589337
C        -0.36101322652904    1.18401419154493    3.28964525216408
C         2.36636509031473   -2.58477447274367    0.57020000795358
C         3.16817197581689   -1.40864169440231    0.57182534534225
C         2.92259858500204   -0.68740936341855    1.79787188914685
C         1.97892869439006   -1.40258330659300    2.57080218586140
C         1.72537748998101   -2.76916049712512    1.94441633882051
C         3.18451789595874    1.43180631567654    0.57260353482799
C         2.34195064485785    2.60436472187842    0.57076228274796
C         1.58281699456220    2.60078359556896    1.79642085976583
C         1.95645848318852    1.43331265322586    2.54333031169651
C         2.93678127690465    0.71494826005588    1.79459277865296
C        -0.35229256064554    3.47315320766089    0.57657917865655
C        -1.72271111344563    3.02421854736865    0.57805288117275
C        -1.96635524846054    2.30904049187356    1.80283111505173
C        -0.73436208018118    2.29026743316389    2.55239462883416
C         0.25848111413592    3.01582643976533    1.79458530649066
C        -3.41432631249224    0.74644103937741    0.56988950883784
C        -3.39339317700091   -0.69619340168010    0.56029529198905
C        -2.76682415982797   -1.12362597155781    1.79828525563451
C        -2.43347688628977    0.01386058947952    2.54550726192366
C        -2.77864792401543    1.17024677732143    1.79000774228179
C        -1.72834300774176   -2.96427253595540    0.60337295090224
C        -0.33978617069839   -3.40845538205508    0.60697327303160
C         0.25109281316612   -3.02168287645790    1.81400173771189
C        -0.71823009285184   -2.27774944017939    2.55718864638460
C        -1.96721609280311   -2.27726624869098    1.80627726502287
C        -0.22812864551763   -2.99515363692993   -1.79936405070697
C         0.75786396304767   -2.27531415347255   -2.56419836831885
C         1.98777308942914   -2.27625157877035   -1.82023184067327
C         1.75919993517864   -2.99551022905780   -0.59474506348006
C         0.37711944480112   -3.44710843146437   -0.60057531428112
C         2.80513100199399   -1.14992420296844   -1.82986797519168
C         2.42346915769890    0.01405196735735   -2.58842013125620
C         2.80255642163810    1.18091652163296   -1.83503713836889
C         3.40879550913817    0.73634197322969   -0.60727547205634
C         3.40899435122819   -0.70700267991552   -0.60923898236662
C         1.97889136900526    2.30388013970078   -1.83483069069814
C         0.75819634802772    2.30642615228866   -2.58965118541197
C        -0.23296558497765    3.03322649481569   -1.83142770860230
C         0.37909147062726    3.47756544874815   -0.60627058161577
C         1.74914280634534    3.03054142114034   -0.60811788515612
C        -1.55080429305211    2.60212394721204   -1.82493111260852
C        -1.93967372706650    1.42276409233617   -2.57032489314731
C        -2.94534817210600    0.74134044164076   -1.83832308913196
C        -3.15733357473048    1.42616175100610   -0.62115305883010
C        -2.30667647468677    2.60235976557149   -0.60705677298660
C        -3.16450930309416   -0.74007127687844   -1.97257683302009
C        -1.94233815568128   -1.41584099915031   -2.59277769962743
C        -1.56205780110732   -2.53632707890569   -1.80657295330512
C        -2.31905089043248   -2.52958434813658   -0.59446914411110
C        -3.19343457952851   -1.40663486529808   -0.59951904306636
C        -0.98822210546316   -0.71278429428565   -3.29585483586272
C        -0.98553750288555    0.73439852559669   -3.31864615135068
C         0.38236565282948    1.17430293152243   -3.30956174280603
C         1.23040020025904    0.01053517889844   -3.30192632065339
C         0.38616992488459   -1.15411245850732   -3.28984742001017
C        -1.81814828107706   -0.00192549496022    4.97093271290281
F        -0.82372228136964    0.00236379380150    5.86480172308640
F        -2.56951994278577   -1.07538386801288    5.22490494553656
F        -2.56923932999670    1.07410359325803    5.22202378171342
C         2.42501320557991   -3.88511888710886    2.73679978765011
F         3.73942501368632   -3.66447313404176    2.85988603212167
F         2.28369528817887   -5.07527450894507    2.14641503382339
F         1.93188560882020   -3.99787121302377    3.97367848905264
C        -4.43782382780798   -1.04095066269164   -2.77758948261319
F        -4.64916105470182   -2.35515971229646   -2.91049982671118
F        -4.37519042003085   -0.53025217520957   -4.01243347356837
F        -5.52674132171675   -0.52745103249961   -2.19697717675860
