72
 energy: -177.372282161156 gnorm: 0.249333711057 xtb: 6.4.1 (a3dbbd7)
C        -1.23626340000000    0.00000000000000    3.32997640000000
C        -0.38202640000000   -1.17575640000000    3.32997640000000
C         1.00015810000000   -0.72665740000000    3.32997640000000
C         1.00015810000000    0.72665740000000    3.32997640000000
C        -0.38202640000000    1.17575640000000    3.32997640000000
C         2.34433560000000   -2.60145750000000    0.59464210000000
C         3.19857260000000   -1.42570110000000    0.59464210000000
C         2.96246730000000   -0.69904370000000    1.83090550000000
C         1.96230920000000   -1.42570110000000    2.59495830000000
C         1.58028280000000   -2.60145750000000    1.83090550000000
C         3.19857260000000    1.42570110000000    0.59464210000000
C         2.34433560000000    2.60145750000000    0.59464210000000
C         1.58028280000000    2.60145750000000    1.83090550000000
C         1.96230920000000    1.42570110000000    2.59495830000000
C         2.96246730000000    0.69904370000000    1.83090550000000
C        -0.36750900000000    3.48258920000000    0.59464210000000
C        -1.74969350000000    3.03349030000000    0.59464210000000
C        -1.98579880000000    2.30683290000000    1.83090550000000
C        -0.74953540000000    2.30683290000000    2.59495830000000
C         0.25062270000000    3.03349030000000    1.83090550000000
C        -3.42570570000000    0.72665740000000    0.59464210000000
C        -3.42570570000000   -0.72665740000000    0.59464210000000
C        -2.80757400000000   -1.17575640000000    1.83090550000000
C        -2.42554760000000    0.00000000000000    2.59495830000000
C        -2.80757400000000    1.17575640000000    1.83090550000000
C        -1.74969350000000   -3.03349030000000    0.59464210000000
C        -0.36750900000000   -3.48258920000000    0.59464210000000
C         0.25062270000000   -3.03349030000000    1.83090550000000
C        -0.74953540000000   -2.30683290000000    2.59495830000000
C        -1.98579880000000   -2.30683290000000    1.83090550000000
C        -0.25062270000000   -3.03349030000000   -1.83090550000000
C         0.74953540000000   -2.30683290000000   -2.59495830000000
C         1.98579880000000   -2.30683290000000   -1.83090550000000
C         1.74969350000000   -3.03349030000000   -0.59464210000000
C         0.36750900000000   -3.48258920000000   -0.59464210000000
C         2.80757400000000   -1.17575640000000   -1.83090550000000
C         2.42554760000000    0.00000000000000   -2.59495830000000
C         2.80757400000000    1.17575640000000   -1.83090550000000
C         3.42570570000000    0.72665740000000   -0.59464210000000
C         3.42570570000000   -0.72665740000000   -0.59464210000000
C         1.98579880000000    2.30683290000000   -1.83090550000000
C         0.74953540000000    2.30683290000000   -2.59495830000000
C        -0.25062270000000    3.03349030000000   -1.83090550000000
C         0.36750900000000    3.48258920000000   -0.59464210000000
C         1.74969350000000    3.03349030000000   -0.59464210000000
C        -1.58028280000000    2.60145750000000   -1.83090550000000
C        -1.96230920000000    1.42570110000000   -2.59495830000000
C        -2.96246730000000    0.69904370000000   -1.83090550000000
C        -3.19857260000000    1.42570110000000   -0.59464210000000
C        -2.34433560000000    2.60145750000000   -0.59464210000000
C        -2.96246730000000   -0.69904370000000   -1.83090550000000
C        -1.96230920000000   -1.42570110000000   -2.59495830000000
C        -1.58028280000000   -2.60145750000000   -1.83090550000000
C        -2.34433560000000   -2.60145750000000   -0.59464210000000
C        -3.19857260000000   -1.42570110000000   -0.59464210000000
C        -1.00015810000000   -0.72665740000000   -3.32997640000000
C        -1.00015810000000    0.72665740000000   -3.32997640000000
C         0.38202640000000    1.17575640000000   -3.32997640000000
C         1.23626340000000    0.00000000000000   -3.32997640000000
C         0.38202640000000   -1.17575640000000   -3.32997640000000
C        -1.76086815247998    0.00000000000000    4.78849957557021
F        -0.76911826531252    0.00000000000000    5.67468926254662
F        -2.50968386795825   -1.06794314680471    5.04863888333743
F        -2.50968386795825    1.06794314680471    5.04863888333743
C         2.28376457660886   -3.72927671755932    2.62817408867206
F         3.59030321655004   -3.51265997057976    2.75037870097715
F         2.14318168460923   -4.91533956626619    2.04303190988612
F         1.79618325340524   -3.84739782561575    3.85992562899767
C        -4.25247495652193   -1.01957928511255   -2.62817407757680
F        -4.45020405360857   -2.32910962270745   -2.75037677428973
F        -4.21414295278389   -0.51936236815949   -3.85992636334022
F        -5.33704498641440   -0.51936149478962   -2.04303305824599
72
 energy: -177.426731239793 gnorm: 0.168380786805 xtb: 6.4.1 (a3dbbd7)
C        -1.24583240870667   -0.00035936866824    3.33449230067312
C        -0.36250440785460   -1.18650442493381    3.33208363427681
C         0.99973359380626   -0.71195048860904    3.31215101534560
C         0.99673289239235    0.73508895792693    3.31527310942396
C        -0.36322180133264    1.19181022506241    3.33791304526571
C         2.35070315021899   -2.60812585157437    0.56175749027902
C         3.18028315134757   -1.42485730930910    0.58094794402207
C         2.95106542369792   -0.69153824592924    1.81398891332112
C         1.96069178989586   -1.38815393341751    2.57238296414570
C         1.61841314537333   -2.63154017890740    1.84739032371577
C         3.18698966987561    1.42291327624993    0.58803824369865
C         2.33685568694164    2.59394785071620    0.59015220027039
C         1.57948996946930    2.59517187595342    1.82238165565660
C         1.96295314489297    1.42960229730548    2.58201677379882
C         2.94888143351058    0.70579863161229    1.81751794912629
C        -0.36154244346452    3.47080188758251    0.59618654910451
C        -1.73788244579205    3.02375562532596    0.59457186739063
C        -1.97329497877213    2.29981533918850    1.82114560406400
C        -0.73989051166982    2.30111895478732    2.58545142828429
C         0.25494317651033    3.02573085332737    1.82475010998851
C        -3.41936916997472    0.73119813153832    0.57627828403378
C        -3.41792939630747   -0.71917026017319    0.58673616493112
C        -2.80788281748466   -1.16674451931355    1.81225562387922
C        -2.44471215214000    0.00126314399281    2.54044603790649
C        -2.80066014971920    1.17073980199412    1.80118311917122
C        -1.75183396418149   -3.02070733063037    0.60856417558125
C        -0.36873948084319   -3.45343365669195    0.60662375794048
C         0.22548793675315   -3.03299336443437    1.84141063937146
C        -0.74778895154513   -2.29714743070534    2.58463307324186
C        -1.98931815814234   -2.29933779356127    1.82487722417864
C        -0.23912829930101   -3.02858020745443   -1.81646623573905
C         0.75077493125677   -2.30033711947175   -2.58071872030451
C         1.98421057942272   -2.30082378478657   -1.83127620001838
C         1.74597239166246   -3.02453553217263   -0.60649754371277
C         0.36334486437600   -3.46748164858274   -0.58978558683561
C         2.80097440343456   -1.16912679243262   -1.82868491581886
C         2.41798170798738    0.00236347359756   -2.58505898723576
C         2.79787747905896    1.17249181128120   -1.82536484633382
C         3.41083025819476    0.72446683173047   -0.59579445640462
C         3.41518913307093   -0.72413258854537   -0.60164402325974
C         1.97688043578568    2.29947028802397   -1.82386992711926
C         0.74809393221029    2.30159150520056   -2.58163182695479
C        -0.24679696183073    3.02776244875227   -1.82013764234661
C         0.36827848532008    3.47108357030243   -0.58958350571364
C         1.74318450585260    3.02259063945492   -0.59189693147459
C        -1.57307338574095    2.60533242438637   -1.82225355225699
C        -1.95710306694837    1.43253207174125   -2.58000951896080
C        -2.99350715930057    0.74485154562584   -1.85286570655684
C        -3.18805341668961    1.43449984255290   -0.60707102601472
C        -2.33219342789693    2.60538457035450   -0.59399119074601
C        -2.99662602798655   -0.70510262954686   -1.85501307656075
C        -1.91757306025281   -1.42098462850345   -2.57422537258743
C        -1.56485516670346   -2.58462089619582   -1.81437067893142
C        -2.32784085838081   -2.58392659922493   -0.58749781556741
C        -3.16630213733250   -1.42112652819194   -0.57147409950208
C        -0.98299966676449   -0.72210159488209   -3.31436566899191
C        -0.99381645990435    0.72912444991826   -3.31100285504715
C         0.37973145188030    1.17238559607906   -3.31301586172305
C         1.23187134254919    0.00211015945132   -3.31504109929783
C         0.38801245348449   -1.17101497200070   -3.31196868261173
C        -1.77029010813684   -0.00703216290753    4.81257280899481
F        -0.77588865952359   -0.00488782972362    5.70134517495723
F        -2.52063363549308   -1.07694629831631    5.06823184329884
F        -2.51701681541338    1.06627882641129    5.06562191006339
C         2.31703562644109   -3.76369388493259    2.65109544328366
F         3.62599989514623   -3.54794293309897    2.77219048809095
F         2.16116386014385   -4.94466290503219    2.05501291276468
F         1.81436903442901   -3.87013146822703    3.88000955870846
C        -4.29151192341932   -1.03444399811169   -2.65324445965209
F        -4.48461070181382   -2.34677001088356   -2.77223408236977
F        -4.24293440229115   -0.52581850097864   -3.88382431202215
F        -5.36963072920268   -0.52637408715511   -2.05733429370501
72
 energy: -177.462337807764 gnorm: 0.103671882228 xtb: 6.4.1 (a3dbbd7)
C        -1.27322311420282   -0.00155054032033    3.41802961712089
C        -0.33672124789267   -1.19449825535479    3.27960356579800
C         0.99404502931614   -0.69722010718170    3.27622265924275
C         0.99128475245995    0.74207664834012    3.28369547151321
C        -0.33428810270172    1.20220338823174    3.29288119332229
C         2.34077805069558   -2.56588279976825    0.52592582998348
C         3.16047550646242   -1.40713608706167    0.56844122213626
C         2.92837842702087   -0.68013109855240    1.79853311566376
C         1.95690579923347   -1.34744826804453    2.54616137961486
C         1.67584869660628   -2.70555370126622    1.89660763852839
C         3.17698350953962    1.42326870182859    0.58325600134700
C         2.32967517767928    2.58784543239878    0.58378658609355
C         1.57908867854122    2.59060933347504    1.81029482361640
C         1.96864973322639    1.43774874816142    2.56503206906551
C         2.94022572848656    0.72034458859920    1.80928043531343
C        -0.35537431144449    3.46296661012835    0.59196261154948
C        -1.72508626619794    3.01625307734899    0.59437134974785
C        -1.96381919700064    2.29857986148477    1.81010650583157
C        -0.73032195503562    2.29454147845830    2.55339352713677
C         0.25950227336410    3.02191071798054    1.80883538935258
C        -3.41677819374994    0.73615461669319    0.56728391018034
C        -3.40314478812613   -0.71208022799025    0.57943974968769
C        -2.80030407099526   -1.15220788607724    1.79946540703793
C        -2.46590031005237    0.00122275643556    2.49622709643980
C        -2.78724337230760    1.15941346874174    1.77592056875693
C        -1.75753998198857   -3.00630661509961    0.61861124545798
C        -0.37052436701809   -3.42376690473019    0.60458585739389
C         0.18749655799956   -3.03550498884187    1.82028614765347
C        -0.74266039532094   -2.28647347994181    2.54137272432039
C        -1.99819819471082   -2.30040195346317    1.80818510291611
C        -0.22497382323562   -3.02497585221957   -1.80535503675747
C         0.75362112676705   -2.29331828800746   -2.56881846930073
C         1.98238097213267   -2.29031245330384   -1.83291297893980
C         1.73845527096296   -2.99233537001609   -0.61455737180297
C         0.36024981648943   -3.45471453777497   -0.59749166633917
C         2.79545994604902   -1.15789412351410   -1.82446075699231
C         2.41189321917096    0.00499433198268   -2.57408539471432
C         2.78889339603616    1.16883544541792   -1.81939520495388
C         3.39695822428749    0.72734401096698   -0.59648847914907
C         3.40630871568660   -0.71388050383462   -0.61029255040075
C         1.96687614754059    2.29036273655314   -1.81798564681008
C         0.74973585778656    2.29497674819862   -2.57055018392721
C        -0.23792901190852    3.02285852872849   -1.81309622255186
C         0.37084444803425    3.46000250181420   -0.58938104944191
C         1.73674628509281    3.01092046699896   -0.59114022221392
C        -1.55710967120540    2.60702101708175   -1.80983711860309
C        -1.93509106789401    1.43409468114098   -2.55590267131269
C        -2.96477220640530    0.78934245641979   -1.83772967290584
C        -3.16055440073528    1.43681745452135   -0.60724499587473
C        -2.31201739910697    2.60727112702689   -0.59146791458693
C        -3.07709801703473   -0.73102393435308   -1.90775756481938
C        -1.87068582118661   -1.42250835217963   -2.55291436429530
C        -1.55405144095217   -2.56446605623310   -1.79767553018381
C        -2.31621914171384   -2.56280950408522   -0.58637241649635
C        -3.13401666599493   -1.42015264899166   -0.54488636548451
C        -0.96539226028126   -0.71992316289307   -3.29102580840273
C        -0.98368751112539    0.73029256200295   -3.29790888380767
C         0.37823440577772    1.16540740731048   -3.29741360943589
C         1.22754126766653    0.00184417562038   -3.29757484656476
C         0.39498586448250   -1.16761357305867   -3.29814210512827
C        -1.79083349082450   -0.01166050607773    4.88285308006818
F        -0.78205743275985   -0.00461046597136    5.75722659083338
F        -2.54051824772341   -1.08738283602926    5.11453972072418
F        -2.53283556834538    1.07340286902493    5.10644610581027
C         2.35815863125602   -3.81830243481534    2.69105268238439
F         3.66648062075988   -3.58448026029405    2.80370217201759
F         2.18356774137348   -4.98640720227153    2.07163732347915
F         1.83116537073273   -3.90268314186981    3.91375056638890
C        -4.35317963322439   -1.05308062582112   -2.69321315688418
F        -4.53087391415935   -2.37016906676577   -2.80173487607055
F        -4.27824955282132   -0.53105661134725   -3.91930416061609
F        -5.41440947319747   -0.53109037448462   -2.07442308788844
72
 energy: -177.475157783366 gnorm: 0.060599528694 xtb: 6.4.1 (a3dbbd7)
C        -1.27868899131738    0.00180426102245    3.44499320164284
C        -0.34413415823580   -1.18673366319271    3.29407980064762
C         0.99547036498811   -0.70355797179556    3.27395619407595
C         0.98859945962219    0.73902675650987    3.27687486422702
C        -0.34485024655604    1.19985409606370    3.30513421293593
C         2.35768637543345   -2.58296431958883    0.54535974333242
C         3.16594314615940   -1.41008738321812    0.56763120799616
C         2.93147924645463   -0.68298322282827    1.79499432788991
C         1.96853859032506   -1.36942743307129    2.55339078149368
C         1.69725817983154   -2.72504708707600    1.91103430930613
C         3.18251030961406    1.42863902243331    0.57741667903003
C         2.33682146076424    2.59639063744108    0.57940571870241
C         1.58359113811925    2.59670251630542    1.80686784405450
C         1.96705862876969    1.43736390023217    2.55831578379580
C         2.94104878049341    0.71946177203648    1.80133002436511
C        -0.35070645754609    3.47056229811984    0.58770774039306
C        -1.72089901472970    3.02123663568720    0.58745410935774
C        -1.96064323479157    2.30313128875026    1.80590419396516
C        -0.73143467390735    2.29522944020032    2.55698280767907
C         0.26165836897155    3.02212338764597    1.80598979667688
C        -3.41768108234471    0.74560954705953    0.55915778104954
C        -3.40947260895649   -0.70252351805764    0.56681280483236
C        -2.79402446950861   -1.14033384900336    1.79559116685980
C        -2.45577778125100    0.00913862841673    2.51530251162401
C        -2.78156618161559    1.16596722030862    1.77402961868389
C        -1.74726460137892   -2.99166022792960    0.61352522060793
C        -0.35858190541036   -3.42184308896323    0.60820843920820
C         0.21523136505101   -3.03910540933824    1.82848618122263
C        -0.73553590295581   -2.28152532884415    2.55207167085088
C        -1.98933035543043   -2.28861390331787    1.80939735371399
C        -0.22514709702992   -3.01275946212285   -1.80175018225961
C         0.75582863219206   -2.28653887753156   -2.56796283757480
C         1.98547199136736   -2.28646263564716   -1.82926986066833
C         1.74924354292269   -2.99955062842875   -0.60651681297615
C         0.36780883940910   -3.45285539591959   -0.59491044893341
C         2.80051608208635   -1.15531049870785   -1.82891529091953
C         2.41771897276347    0.00963503180167   -2.57993076163233
C         2.79458029696037    1.17514169066762   -1.82521776210017
C         3.40300864104265    0.73168287812356   -0.60200647444121
C         3.40832287394723   -0.71149169522223   -0.61206702751663
C         1.97250533542435    2.29728812409671   -1.82281619957651
C         0.75363328470103    2.30181491679150   -2.57526185850331
C        -0.23450116061635    3.03003281696654   -1.81836075160167
C         0.37670254482459    3.47047349614875   -0.59422380384241
C         1.74365731807738    3.02103990344871   -0.59642470225225
C        -1.55497031955740    2.61052146206383   -1.81737779337478
C        -1.94122322347773    1.43597813260335   -2.56553518823634
C        -2.98107576835306    0.78070950933279   -1.85689008412060
C        -3.16617703472860    1.44089481007873   -0.62065939625430
C        -2.31096107582616    2.61135000939302   -0.59906372278168
C        -3.10512046863979   -0.72948129498749   -1.93197398763645
C        -1.89868392087565   -1.41567021939449   -2.56694468447563
C        -1.55635983918153   -2.55242406875256   -1.80056963001483
C        -2.31721228472073   -2.54965348710556   -0.59041660343155
C        -3.15699239500853   -1.41073181024559   -0.57157195802277
C        -0.97466339299072   -0.71329372528920   -3.29435738869651
C        -0.98512053849742    0.73535111521878   -3.30204760718376
C         0.37990814494514    1.17061715591134   -3.29732901571852
C         1.23019765283925    0.00733981763449   -3.29882336228468
C         0.39266269942899   -1.15979539441128   -3.29357545760167
C        -1.80179123320279   -0.01247559797986    4.90914471943109
F        -0.80119051360567   -0.00946987057868    5.79390646445334
F        -2.55238812892424   -1.08692432799753    5.15040181445061
F        -2.54725819832353    1.06747917858978    5.15029195993053
C         2.38531651191722   -3.84578019498902    2.70933439243303
F         3.69787400634238   -3.63126589884053    2.83428126259395
F         2.22009743173995   -5.02383368387147    2.10357189565125
F         1.86864743164811   -3.94243734243768    3.93655456045156
C        -4.38681437416904   -1.05909337473263   -2.72043133359961
F        -4.57681292792035   -2.37570297808256   -2.83500355890178
F        -4.33124706682991   -0.54679962927589   -3.95270621087532
F        -5.46008339262670   -0.54546980911736   -2.11351474173494
72
 energy: -177.482574747606 gnorm: 0.027401400561 xtb: 6.4.1 (a3dbbd7)
C        -1.28836161444162    0.00423598914735    3.48990900835366
C        -0.35072954982826   -1.17952672378868    3.29940341161663
C         0.99563917045478   -0.70980908924162    3.26565877663026
C         0.98350908166852    0.73427293118051    3.26232721309873
C        -0.35439261644368    1.19440650016335    3.30465361231039
C         2.36923094841514   -2.59104216921956    0.56365574337565
C         3.16841394233108   -1.41055859276026    0.56787587099935
C         2.92642811331115   -0.68552676210160    1.79240758184068
C         1.97785666530749   -1.39230155597266    2.56184162840491
C         1.72245042045195   -2.75273983669611    1.93264199868606
C         3.18585846093306    1.43299825232113    0.57300043387695
C         2.34356174839017    2.60494525625059    0.57403399007987
C         1.58665206616637    2.60262709041543    1.80132090183926
C         1.96279939546616    1.43635241232167    2.54856705321293
C         2.93822312818416    0.71802246892916    1.79417984413601
C        -0.34761560759757    3.47579346847256    0.58089514913177
C        -1.71774245140459    3.02563875696513    0.57941456174106
C        -1.95918702090708    2.30900018990507    1.80160083218487
C        -0.73159269930562    2.29373976516731    2.55499825153176
C         0.26290927744240    3.02097908432516    1.79985684942368
C        -3.41482590627998    0.75303950880310    0.55724283210590
C        -3.40498676983227   -0.69319416323638    0.55719344441839
C        -2.77880778016433   -1.12602144306596    1.79291428260356
C        -2.44009851056629    0.01672740432481    2.53024247226357
C        -2.77492957413753    1.17234359483527    1.77561151409852
C        -1.73365185438459   -2.97152156703409    0.60770381206795
C        -0.34459743418945   -3.41369207271798    0.61057708874638
C         0.24030071339435   -3.03461201891676    1.82706260138662
C        -0.72479409252527   -2.27777421600077    2.55901495163418
C        -1.97489092601974   -2.27630737977668    1.80748877722699
C        -0.22538059789764   -2.99807579320807   -1.79728007924005
C         0.75811246389310   -2.27702730722142   -2.56446533517359
C         1.98846579835035   -2.27947569408592   -1.82376850405855
C         1.75848001436478   -2.99975119447148   -0.59808401245407
C         0.37522689233849   -3.44819060841327   -0.59562843739888
C         2.80547696670946   -1.15112055408753   -1.83142896467395
C         2.42357965024301    0.01428354299013   -2.58569658586177
C         2.80165209156558    1.18070758601420   -1.83138586424137
C         3.40803934888690    0.73557108955192   -0.60609613959789
C         3.41009790329955   -0.70831768686772   -0.61192647226413
C         1.97906984281765    2.30351265145869   -1.82938663878084
C         0.75864094762667    2.30788271689688   -2.58240246943801
C        -0.23091003537139    3.03543714020540   -1.82572464515859
C         0.38195932949139    3.47892755018956   -0.60158770025464
C         1.75062596966335    3.03054981495750   -0.60352135780176
C        -1.55072467985457    2.60964104054227   -1.82374667938725
C        -1.94441723004266    1.43401190743763   -2.57285486263316
C        -2.97890601301310    0.76775258118597   -1.86273595993647
C        -3.16575137639283    1.43941164080655   -0.62914769702556
C        -2.30730992703917    2.61088663666973   -0.60622114831669
C        -3.14353690461457   -0.73493663260983   -1.96137800755999
C        -1.92794099407221   -1.40991523639500   -2.58209179359451
C        -1.55817374806337   -2.53669496051649   -1.80234095722209
C        -2.31624828944017   -2.53219165172390   -0.59305941475701
C        -3.17908589095406   -1.40154560253102   -0.59473427564449
C        -0.98366995920493   -0.70767438201079   -3.29427249882947
C        -0.98565997512086    0.73957722759868   -3.30908376753866
C         0.38174618120717    1.17557260612861   -3.29996484867872
C         1.23128225460921    0.01236762346280   -3.29844890043684
C         0.38947118990983   -1.15206283759452   -3.28752086524832
C        -1.81628374170400   -0.01326186153676    4.94297228767670
F        -0.82133345102046   -0.01448263130940    5.83541566740018
F        -2.56712649800735   -1.08790665120418    5.18901187440822
F        -2.56542263900099    1.06262361349336    5.19803329217768
C         2.41037358227398   -3.87672721850871    2.72982772404160
F         3.72634816063383   -3.67563246963459    2.86326461528394
F         2.25475340806920   -5.06252029967289    2.13342716673337
F         1.90415840706325   -3.98467854190985    3.96179891577517
C        -4.42467134686428   -1.06322562907412   -2.75004330482549
F        -4.62410364531029   -2.37995703189758   -2.86994892955289
F        -4.38499556542550   -0.55905228768612   -3.98799961410779
F        -5.50832499035565   -0.55687413920736   -2.15260264095797
72
 energy: -177.484154843892 gnorm: 0.012492860558 xtb: 6.4.1 (a3dbbd7)
C        -1.29388514457325    0.00517037091496    3.51829336296562
C        -0.35392589080213   -1.17645957119298    3.30067056933491
C         0.99547116195143   -0.71234145717951    3.26256834499270
C         0.98056398842954    0.73130595765293    3.25437253748436
C        -0.35876998024244    1.19012206436156    3.29841881945025
C         2.37104008664437   -2.58969312812939    0.57139856019089
C         3.16903014098907   -1.40928255941539    0.56990267840829
C         2.92251590319670   -0.68664467429056    1.79426499340594
C         1.98039262709275   -1.40232897863862    2.56809899314955
C         1.73298991786464   -2.76750513085877    1.94518992202568
C         3.18643333520988    1.43367258972585    0.57163966950493
C         2.34558208276683    2.60735208000170    0.57057121078381
C         1.58635292589098    2.60379225837682    1.79692115989880
C         1.95875769184412    1.43489187745116    2.54300673516286
C         2.93622248046886    0.71635470890177    1.79224172140101
C        -0.34783938053720    3.47634913903233    0.57603072814990
C        -1.71785859067638    3.02734483080191    0.57541102207111
C        -1.96074615591103    2.31266687718377    1.80060014264379
C        -0.73157588735912    2.29271951969062    2.55244147083758
C         0.26227049077745    3.01900402846672    1.79497204452346
C        -3.41210115992523    0.75401088320268    0.56181099625950
C        -3.39631571836114   -0.69007769868816    0.55594843476711
C        -2.76791295877330   -1.11933749079561    1.79430290995133
C        -2.43081085455685    0.01954286530566    2.53791918470292
C        -2.77373014656933    1.17533774110134    1.78137330455093
C        -1.72630232284217   -2.96014417858518    0.60405170877391
C        -0.33783556586734   -3.40699802483332    0.61015154555938
C         0.25097333210708   -3.02814498718948    1.82166531729049
C        -0.71852970976541   -2.27686299801694    2.56120730696820
C        -1.96610793383162   -2.27145431972946    1.80609973172033
C        -0.22639956037482   -2.99097165075540   -1.79647960335230
C         0.75905308508721   -2.27189125256256   -2.56247200534312
C         1.98955037017252   -2.27496101484409   -1.82026767128697
C         1.76148730097687   -2.99636941509560   -0.59432523236721
C         0.37825785804649   -3.44450851175202   -0.59821347299905
C         2.80725732258757   -1.14859070530971   -1.83117689578901
C         2.42580952591871    0.01601839574306   -2.58868232018412
C         2.80532987480016    1.18275380754987   -1.83499439382238
C         3.41042887487492    0.73715118049493   -0.60761348951852
C         3.41083430597333   -0.70642622671978   -0.61021258674913
C         1.98236993032878    2.30605556048218   -1.83441813898589
C         0.76119817078595    2.30978869152018   -2.58855262632953
C        -0.22982890325382    3.03659660481945   -1.83124453476044
C         0.38319284643603    3.48094092778118   -0.60673656829081
C         1.75313345904753    3.03357703782817   -0.60827447774642
C        -1.54848701288775    2.60667124909471   -1.82689341765287
C        -1.94348374153461    1.43001346528180   -2.57536809333160
C        -2.96595462256512    0.75677481452885   -1.85630473310502
C        -3.16184199061401    1.43452991781407   -0.62891799659412
C        -2.30466937741741    2.60751350294209   -0.60942369514088
C        -3.16392851165761   -0.74024063872507   -1.97565345406439
C        -1.94166288247101   -1.40889600967911   -2.59116568739258
C        -1.55972840411488   -2.53002810541616   -1.80480483445382
C        -2.31579333553747   -2.52371969335359   -0.59428836542930
C        -3.18920252677889   -1.39864534036547   -0.60260264222975
C        -0.98751724412768   -0.70693846035629   -3.29479540896708
C        -0.98520370396980    0.73989718044302   -3.31630665651913
C         0.38313712598922    1.17747966809498   -3.30576423498680
C         1.23129089149838    0.01378368820146   -3.29953658498745
C         0.38743561652395   -1.14967997318869   -3.28640581144607
C        -1.82361727751413   -0.01233640777535    4.96346042198164
F        -0.83164406984220   -0.01553299401390    5.86031598829095
F        -2.57493914809872   -1.08758949085852    5.20897410638454
F        -2.57546820786919    1.06141939154071    5.22342226015611
C         2.42159098212457   -3.89144511290654    2.73931892103876
F         3.73836419667302   -3.69038711057383    2.87292471786722
F         2.27189714410537   -5.07989367557041    2.14543340186046
F         1.92165686653710   -4.00478471044541    3.97394189053466
C        -4.44343700296475   -1.06041224876217   -2.76643035384881
F        -4.64646087250728   -2.37720322529938   -2.89021323697783
F        -4.40642666346584   -0.55788230775303   -4.00599393992162
F        -5.53171782542485   -0.55608024749715   -2.17433701059790
72
 energy: -177.484396381196 gnorm: 0.007603219692 xtb: 6.4.1 (a3dbbd7)
C        -1.29478269025549    0.00511159767362    3.52533366818622
C        -0.35511559893892   -1.17619580540032    3.30059222258445
C         0.99523734949438   -0.71277613098702    3.26286339438022
C         0.97986934396524    0.73034394713559    3.25294859155996
C        -0.36010395388227    1.18788043692344    3.29397257857147
C         2.36896751433411   -2.58683050624337    0.57219099315349
C         3.16887309889112   -1.40837676245598    0.57118789317177
C         2.92175431081108   -0.68677446229771    1.79635437868878