63
 energy: -142.112954749577 gnorm: 0.000113553448 xtb: 6.4.1 (a3dbbd7)
C        -1.30025418421369    0.01344015788011    3.55409158308244
C        -0.37163168645706   -1.16248413812174    3.31192419795415
C         0.98065290141113   -0.71398559086990    3.28173809990499
C         0.97928884741771    0.72287682630418    3.27181418961257
C        -0.37310549483804    1.18649107130885    3.30578695615017
C         2.32942963617349   -2.57567526165831    0.56751401776282
C         3.17676990153456   -1.41070577733805    0.57070743756882
C         2.94143350378023   -0.69310110087739    1.79502813768556
C         1.94688952238362   -1.41603835445993    2.55185369400642
C         1.58018827251282   -2.57553154383561    1.81049118270676
C         3.18674982863859    1.41740394725451    0.57465346171787
C         2.33745923286818    2.57964904356667    0.57613809296766
C         1.57507876755855    2.56942379938763    1.80067100613394
C         1.95170903468298    1.41377162054802    2.55238051494902
C         2.94713158923905    0.69331353718485    1.79864412153343
C        -0.36622587399106    3.43127936985980    0.58143876691502
C        -1.73020640596730    3.02164629719316    0.58518007471323
C        -2.09663549947214    2.46901319313004    1.95004491429109
C        -0.73208873613212    2.29123321340829    2.58527281134447
C         0.24659183603168    2.98088420475720    1.80436908123487
C        -3.37555803637837    0.70563459297650    0.57772451641220
C        -3.39478842013418   -0.72518959966702    0.57272911647154
C        -2.77264246898897   -1.15399288316855    1.79442008175380
C        -2.39466081267330    0.03372931812274    2.54139546144489
C        -2.75064463822220    1.13659597481807    1.81855447978650
C        -1.71695858141114   -2.99349786352853    0.58038423141835
C        -0.37197741209031   -3.44097453774451    0.59692617414067
C         0.24245401334842   -2.97718657801537    1.78994563410754
C        -0.73477682786653   -2.25734294231533    2.56750348172408
C        -1.97174522162969   -2.27178380436450    1.80461292982228
C        -0.24549111234167   -3.01554001868166   -1.84052397580726
C         0.73750919588389   -2.27883467082101   -2.56472750924552
C         1.96432266781502   -2.27878227193690   -1.80753763423865
C         1.75472215346594   -3.01345922859130   -0.60438710495549
C         0.40035505266790   -3.68654041372073   -0.64817013990529
C         2.79276015251055   -1.15734871627537   -1.82510542058361
C         2.41540621080576    0.00639362360697   -2.58504913942562
C         2.80031252817091    1.17321051303960   -1.83270652845552
C         3.41720544907054    0.72667407061493   -0.60840981794019
C         3.41163962547052   -0.71426729476283   -0.60918359259399
C         1.98355789503729    2.29707097400763   -1.83049240273227
C         0.75398452588760    2.29722162572181   -2.58691343724840
C        -0.23500166000186    3.01271281709148   -1.82255388655795
C         0.37323395293443    3.44990600955159   -0.60106394143833
C         1.74620825716361    3.01096100554961   -0.60358535281260
C        -1.55531928631464    2.57355975256161   -1.80842136999896
C        -1.93670822208733    1.41362422535653   -2.57100434669244
C        -2.93180316191583    0.68917866923150   -1.81904761353328
C        -3.16922257191497    1.40357703609744   -0.59457845178232
C        -2.30505981751349    2.57629122039976   -0.58206243755559
C        -2.93225571614178   -0.70197063294504   -1.83020750702498
C        -1.93410319359224   -1.41438956901277   -2.58536041995307
C        -1.55184902557145   -2.58138912988339   -1.83139986764297
C        -2.33549617267563   -2.59019543510638   -0.60913737168134
C        -3.17145342437594   -1.43171633927954   -0.61183405544220
C        -0.98321262965220   -0.71416293516045   -3.31583663929258
C        -0.98547935737292    0.72720049042690   -3.31197244132142
C         0.38660579310712    1.17364434066314   -3.31384184205120
C         1.23097447614314    0.00683097869773   -3.31147148787755
C         0.38229064070381   -1.15645862836300   -3.31020710642133
Cl       -1.95495553082072    0.00377892665171    5.24259471450174
Cl       -3.13690019312876    3.62909376821107    2.87532039849377
Cl        0.58349198646966   -5.49027286611668   -0.93937575571796
