63
 energy: -142.082559336064 gnorm: 0.137319438171 xtb: 6.4.1 (a3dbbd7)
C        -1.29585809763920    0.00401118881931    3.54517689231029
C        -0.36796043466059   -1.17243305044266    3.30515820987539
C         0.98298838984909   -0.72191219210780    3.27512267957929
C         0.98156472691728    0.71960753564614    3.26971969840148
C        -0.37066843430553    1.17924059866277    3.30150764324135
C         2.33648296598357   -2.58548060321166    0.57950289371033
C         3.18657767566203   -1.41946403917212    0.57781419536533
C         2.94957050634668   -0.69854930588343    1.80123308089156
C         1.95308396825138   -1.41752165469557    2.55613481597303
C         1.57961582984989   -2.57968580834158    1.80518673258983
C         3.18767024138397    1.40991878537575    0.57593180017933
C         2.33807592119235    2.57402574463448    0.57591940987423
C         1.57683795447400    2.56605672116665    1.79975339077111
C         1.95304946478205    1.40835201085528    2.55205927541471
C         2.95072023090319    0.68875745027160    1.80098024590342
C        -0.36516779392141    3.42666371311492    0.57921714402649
C        -1.72924376731069    3.01648005687427    0.58287705229366
C        -2.09463355901587    2.46231282969886    1.94730853737491
C        -0.73027134368917    2.28553619224850    2.58224921046650
C         0.24829448370074    2.97593693088527    1.80334175247540
C        -3.37466967439567    0.70300551329579    0.57574930039426
C        -3.39003092771629   -0.73268815670587    0.56838248256510
C        -2.76818811346571   -1.16356142396752    1.78871572205038
C        -2.38904763717889    0.02437925858140    2.53264263708558
C        -2.74834472581071    1.12995086235998    1.81420011509538
C        -1.73481952354600   -3.00995345707075    0.57938225067925
C        -0.36149853487188   -3.44686666226009    0.58178847329193
C         0.25217194576597   -2.99475012297255    1.80551622011247
C        -0.72930832450935   -2.27346636848304    2.56467955460776
C        -1.97147545437730   -2.28746259180062    1.79868366143107
C        -0.24419850633136   -3.01431906314620   -1.82647673825261
C         0.74940205395547   -2.29291975806330   -2.58286291039202
C         1.97453700920709   -2.29239152825096   -1.82543977569151
C         1.74139873391846   -3.01127177396538   -0.59946235539016
C         0.36858334361035   -3.45436466601281   -0.59762914030018
C         2.79442417375665   -1.17031401238235   -1.82833550582627
C         2.41574661868216   -0.00512369138436   -2.58546959698227
C         2.79806943058290    1.16104826437995   -1.83045397159780
C         3.41356646756867    0.71553904959985   -0.60565027126811
C         3.41126633543504   -0.72579612437446   -0.60436594375932
C         1.98256115237360    2.28538932475628   -1.82964816243890
C         0.75350030248264    2.28551308222168   -2.58573232043658
C        -0.23508280223273    3.00436687434747   -1.82344140510130
C         0.37359850933878    3.44286488634390   -0.60220138875814
C         1.74684322375821    3.00246743965493   -0.60372642363152
C        -1.55566653240424    2.56818250404503   -1.80941223602174
C        -1.93859434660526    1.40592010808590   -2.57168095899201
C        -2.93551210472019    0.68461262540438   -1.82146846795257
C        -3.16898901543324    1.39767486955451   -0.59605965569985
C        -2.30435127708354    2.57332623889815   -0.58497549494069
C        -2.94114405324375   -0.70773319319533   -1.83440725651199
C        -1.94505174587464   -1.42387954866205   -2.59102123509086
C        -1.56548890453788   -2.59170746569988   -1.83211639417485
C        -2.32839595521473   -2.59312664308342   -0.60918315809929
C        -3.17773883520354   -1.43218193780650   -0.61434027481289
C        -0.98775846768414   -0.72638522805960   -3.31322849835342
C        -0.98659864734294    0.71557045446948   -3.30737103344774
C         0.38544609972999    1.16109326157285   -3.31071431262535
C         1.23106807690940   -0.00470839623161   -3.31198800118088
C         0.38446650877846   -1.17000629315169   -3.31255499434049
Cl       -1.95494402211016   -0.00808767691631    5.23350834623694
Cl       -3.13453400293270    3.62205440046694    2.87428256889563
Cl        0.56224929522041   -5.22724825023097   -0.90662314670928
63
 energy: -142.106527456088 gnorm: 0.059076873504 xtb: 6.4.1 (a3dbbd7)
C        -1.29806701024790    0.00850867376269    3.54933514766379
C        -0.37057151167356   -1.16758136281228    3.31239639742399
C         0.98155625508919   -0.71899445963762    3.27944838220069
C         0.98074542115246    0.72030401274499    3.27126851769554
C        -0.37143342292197    1.18159468608605    3.30340863284456
C         2.33412284723994   -2.57142230532368    0.57577796082495
C         3.19154239712947   -1.41463911607204    0.57651491283719
C         2.94879756775096   -0.69665614514949    1.79967539264606
C         1.95136077880644   -1.41630457054228    2.55560617305420
C         1.57691120576208   -2.57374081029095    1.80691386370494
C         3.18790590371819    1.41190786106953    0.57518514507435
C         2.33834015622115    2.57497354692298    0.57571678336799
C         1.57663138876006    2.56596300895221    1.79980967840795
C         1.95300645138079    1.40937220923350    2.55226223816759
C         2.95004779498832    0.69007090672775    1.80010378766059
C        -0.36534908755909    3.42698340928741    0.57965696007177
C        -1.72925309013994    3.01686281210564    0.58327632105325
C        -2.09493609228414    2.46401694895017    1.94804193009199
C        -0.73065462878325    2.28683504188175    2.58315124558685
C         0.24801140936913    2.97635398021408    1.80325105157689
C        -3.37550531878259    0.70333486440199    0.57681136285296
C        -3.39279612473770   -0.73005262950271    0.57120985437113
C        -2.77273859179216   -1.15890263741059    1.79405403474145
C        -2.39106300543648    0.02861834314882    2.53661794120938
C        -2.74908786693951    1.13216538892717    1.81575770927988
C        -1.73209594540534   -2.99849565894541    0.58733708513462
C        -0.37514790189848   -3.45345135887714    0.60308457761311
C         0.24350742510772   -2.98265097787203    1.80668373030759
C        -0.73645307808762   -2.26696130608106    2.57502304721570
C        -1.97717576863432   -2.28117006823236    1.80958938834228
C        -0.24639349700957   -2.99861627315209   -1.83362514319113
C         0.74632064945200   -2.28154760921323   -2.57939492892394
C         1.97283433522875   -2.28122126141602   -1.82141089470251
C         1.74841134276777   -2.99590819626044   -0.60058416779011
C         0.38127643228814   -3.56004131137499   -0.61809287448535
C         2.79967168663845   -1.16280007159680   -1.82950891454274
C         2.41766876326196    0.00019651992986   -2.58781573955378
C         2.79982772998024    1.16540392004532   -1.83216790571287
C         3.41557240188674    0.71940788353242   -0.60732437429931
C         3.41693266071673   -0.72079092325100   -0.60735987211955
C         1.98295773807419    2.28848539780752   -1.83019014927548
C         0.75374742643243    2.28862646535654   -2.58639484976077
C        -0.23495337494405    3.00597313003345   -1.82344096820659
C         0.37374727527574    3.44392791354064   -0.60234254204947
C         1.74673196713424    3.00416892270481   -0.60400676598233
C        -1.55559023425864    2.56896556629955   -1.80962788533035
C        -1.93800088212947    1.40798413657615   -2.57215312378965
C        -2.93436464881566    0.68588526779176   -1.82124310470838
C        -3.16933077817009    1.39878843131248   -0.59582549902560
C        -2.30464053878314    2.57299386858183   -0.58433945095581
C        -2.93962078654850   -0.70569050088430   -1.83478977606811
C        -1.94608947389203   -1.41852969005077   -2.59630875373728
C        -1.56124882147841   -2.57715127701292   -1.83183120321351
C        -2.32977986445628   -2.58791673857289   -0.60705915358054
C        -3.17650713950417   -1.43150684523186   -0.61366189074138
C        -0.98751254551976   -0.72093838510560   -3.31990368420760
C        -0.98594780209288    0.71968398140356   -3.31020367737624
C         0.38614127166484    1.16561500842794   -3.31315064847791
C         1.23232165719490    0.00063177131151   -3.31483878552768
C         0.38315124542701   -1.16213917970232   -3.31814386469708
Cl       -1.95589036767545   -0.00551313689686    5.23747315872389
Cl       -3.13514314224569    3.62357379526580    2.87445091558289
Cl        0.58173683194902   -5.37234477930634   -0.93646777091412
63
 energy: -142.112485286925 gnorm: 0.013628016944 xtb: 6.4.1 (a3dbbd7)
C        -1.29970711330163    0.01280255839841    3.55314657394004
C        -0.37179359694844   -1.16300179376912    3.31291423395769
C         0.98024237432523   -0.71514487030221    3.28118817366870
C         0.97940853685027    0.72239675231297    3.27190401862755
C        -0.37277978418871    1.18558796916144    3.30566916610062
C         2.33007477052426   -2.57022286587669    0.56995245717122
C         3.18437445375925   -1.41119134723918    0.57354636165778
C         2.94529130805586   -0.69404602263868    1.79736181062726
C         1.94763378499139   -1.41556943120356    2.55233511205934
C         1.57674285881819   -2.57330076422940    1.80785574949208
C         3.18770852714373    1.41535568310394    0.57474856233456
C         2.33772504581023    2.57743233974385    0.57581552209450
C         1.57561579947570    2.56797043502631    1.80023096414345
C         1.95208922149466    1.41228425266022    2.55231170931906
C         2.94849922378319    0.69245555460241    1.79932695113741
C        -0.36582595851612    3.42975532123457    0.58078191919671
C        -1.72964358827196    3.02004929802500    0.58448315736011
C        -2.09580480545124    2.46773864325123    1.94930010719010
C        -0.73161192845758    2.29024234259394    2.58468493019505
C         0.24712512157437    2.97925647176047    1.80386544676295
C        -3.37560979441723    0.70522766392953    0.57787005772046
C        -3.39405928259016   -0.72641605561631    0.57308631610993
C        -2.77306648567312   -1.15459698459291    1.79538143953703
C        -2.39342322163145    0.03301622948638    2.54032769927218
C        -2.75004254403448    1.13582094119981    1.81788178955051
C        -1.72270539999113   -2.99294641263303    0.58591991970278
C        -0.37722462832917   -3.44896155395831    0.60573841047771
C         0.24042806494226   -2.97683905622913    1.79767668260560
C        -0.73716427080717   -2.26080808718466    2.57353078025855
C        -1.97566091658695   -2.27520143143442    1.80962795930026
C        -0.24636489866044   -3.00160962927593   -1.83769619342889
C         0.74049358762604   -2.27764400334171   -2.56975557698730
C         1.96717634357757   -2.27750299193829   -1.81233279100277
C         1.75221827390800   -2.99913820247709   -0.60238093363239
C         0.39427195035284   -3.65284408953160   -0.63870929096120
C         2.79775698601236   -1.15855647294039   -1.82730464595129
C         2.41728007646945    0.00438017363126   -2.58734314906429
C         2.80023045079940    1.17031615106971   -1.83299037845704
C         3.41701547104963    0.72400727197002   -0.60839393407713
C         3.41493277400685   -0.71611690200042   -0.60908272605457
C         1.98314262480906    2.29354850537159   -1.83035693838258
C         0.75389925878343    2.29371128073432   -2.58653853684240
C        -0.23489111312974    3.00977493123253   -1.82268774012956
C         0.37352198445561    3.44745223211258   -0.60162254051937
C         1.74622123748948    3.00796320480904   -0.60379064999340
C        -1.55527300532919    2.57142091162534   -1.80876296503424
C        -1.93741587490286    1.41156004284982   -2.57179484460916
C        -2.93302690590513    0.68832668796419   -1.81993661392494
C        -3.16921986006005    1.40198596463688   -0.59481131891348
C        -2.30481757781387    2.57500881212345   -0.58277177251345
C        -2.93608498879162   -0.70291610251547   -1.83245179111239
C        -1.94015804576527   -1.41481922855309   -2.59081625513663
C        -1.55431762957679   -2.57586470593604   -1.83065204739227
C        -2.33144605573380   -2.58793716877719   -0.60699121363222
C        -3.17223900961296   -1.43116372702418   -0.61195256400203
C        -0.98499297034150   -0.71602359917559   -3.31868154061859
C        -0.98557730693000    0.72447663963778   -3.31183739147828
C         0.38669983452150    1.17069673855441   -3.31387214393369
C         1.23203579262788    0.00480326674226   -3.31427668199051
C         0.38193795565175   -1.15771910633240   -3.31563566352965
Cl       -1.95740715161610   -0.00013718641173    5.24112121798894
Cl       -3.13646351994571    3.62715571969128    2.87497348255125
Cl        0.59222161462329   -5.48124310954842   -0.95264288442286
63
 energy: -142.112798451709 gnorm: 0.008173848890 xtb: 6.4.1 (a3dbbd7)
C        -1.30012293173073    0.01404121337870    3.55401567850826
C        -0.37198583542220   -1.16192698282461    3.31193035689611
C         0.97992562017587   -0.71384276584031    3.28114209562219
C         0.97898889718240    0.72340467864871    3.27185047271072
C        -0.37322431709102    1.18710205585927    3.30620724599380
C         2.32956011589563   -2.57442605405648    0.56820585612035
C         3.17905991745878   -1.41084563890347    0.57181250364674
C         2.94235887350568   -0.69319567770033    1.79570514415399
C         1.94617778620862   -1.41554397530877    2.55125380438614
C         1.57803679984922   -2.57479122148518    1.80879190259683
C         3.18694444437560    1.41701098130839    0.57467444196542
C         2.33739571637157    2.57927453831798    0.57602017889094
C         1.57511169163490    2.56948407025036    1.80053420003666
C         1.95153698735264    1.41376623891259    2.55229305197000
C         2.94708462494776    0.69333993302030    1.79871240677528
C        -0.36614461891625    3.43159246427506    0.58136851978113
C        -1.73003765232144    3.02196542693653    0.58513873384592
C        -2.09645672366080    2.46955856015981    1.95001032176779
C        -0.73206482830376    2.29186051430489    2.58533179438787
C         0.24666548598013    2.98111291346056    1.80436725923599
C        -3.37544472152977    0.70618494917108    0.57806027048294
C        -3.39401173799879   -0.72513628359969    0.57321629317460
C        -2.77225978533539   -1.15348187296602    1.79488021215572
C        -2.39421890049222    0.03430904693648    2.54123949745238
C        -2.75048178830516    1.13723511164469    1.81859195061678
C        -1.71912971980439   -2.99382896068065    0.58305593269731
C        -0.37475884156357   -3.44714502598984    0.60153860439846
C         0.24119016565850   -2.97765216295357    1.79316938005132
C        -0.73581130343447   -2.25876566743092    2.57012185552586
C        -1.97337240585289   -2.27313569311727    1.80675499133408
C        -0.24570636731108   -3.01126119191979   -1.83999989144091
C         0.73870523422390   -2.27918039305668   -2.56670837484993
C         1.96542241100466   -2.27911728087378   -1.80949388952122
C         1.75417909771537   -3.00896906405528   -0.60398882347592
C         0.39839775441358   -3.67534362571763   -0.64517261411974
C         2.79460074266445   -1.15796310301053   -1.82585517959271
C         2.41602945048983    0.00576324347283   -2.58585760446260
C         2.79995277103801    1.17240053797405   -1.83281905552634
C         3.41676722803857    0.72579480446942   -0.60838840261669
C         3.41222497195669   -0.71483750254379   -0.60923548866031
C         1.98327893493527    2.29620837691359   -1.83033597155923
C         0.75390668730665    2.29637552790251   -2.58659333454784
C        -0.23497705652428    3.01221698421061   -1.82243021911309
C         0.37330794848219    3.44969245051225   -0.60115894166692
C         1.74612420940903    3.01043438043339   -0.60358848580673
C        -1.55524067807348    2.57324202364339   -1.80830765622467
C        -1.93692087330098    1.41325869249204   -2.57107519210526
C        -2.93191465080569    0.68926096201466   -1.81895179716322
C        -3.16908247655077    1.40357153173692   -0.59436031876925
C        -2.30493364921243    2.57648327106187   -0.58209393626854
C        -2.93333160982871   -0.70201253188240   -1.83059765539481
C        -1.93617388665240   -1.41443515476604   -2.58676131306708
C        -1.55252829635957   -2.58008371003531   -1.83102007888514
C        -2.33305866903061   -2.58951217733676   -0.60789613031675
C        -3.17071268346622   -1.43119961426419   -0.61129306439495
C        -0.98355380201635   -0.71468919332022   -3.31627477646531
C        -0.98538942323888    0.72633388007591   -3.31152450689504
C         0.38675758242130    1.17283595539292   -3.31353404336387
C         1.23131695556758    0.00619356767657   -3.31243837453515
C         0.38206530266607   -1.15708336650024   -3.31217963848791
Cl       -1.95652053185683    0.00333688549036    5.24238726359375
Cl       -3.13703424049627    3.62955945545461    2.87514623848604
Cl        0.59172667255809   -5.50030124681371   -0.95190873558144
63
 energy: -142.112898488209 gnorm: 0.004748978375 xtb: 6.4.1 (a3dbbd7)
C        -1.30032529822551    0.01410466004147    3.55420881874150
C        -0.37190502511902   -1.16189849939612    3.31166383244026
C         0.98014416127878   -0.71348611094842    3.28142440538322
C         0.97905165312502    0.72353820267289    3.27183060591657
C        -0.37326505663773    1.18723215628329    3.30611189507372
C         2.32931663278162   -2.57641428478678    0.56763260911786
C         3.17627606078334   -1.41069807668360    0.57084920457194
C         2.94083122895782   -0.69284507115809    1.79487194187364
C         1.94601065225273   -1.41567034971782    2.55135013287151
C         1.57945813934863   -2.57558651681660    1.81009932075332
C         3.18663057240563    1.41771549152307    0.57469266565732
C         2.33740626873099    2.58008367814235    0.57611591861193
C         1.57501441593479    2.56998286345283    1.80066357280601
C         1.95148163788536    1.41426339563337    2.55234005213630
C         2.94666522106398    0.69362457741655    1.79852215504685
C        -0.36622907301675    3.43194826345686    0.58147080152768
C        -1.73021613815958    3.02238616771829    0.58526378654335
C        -2.09673917412305    2.46987005533460    1.95019738878737
C        -0.73216918241904    2.29201936587669    2.58541419517106
C         0.24653571522905    2.98157137963076    1.80446694057732
C        -3.37550905919540    0.70632365998621    0.57792689126305
C        -3.39436296869398   -0.72472739309797    0.57303402825606
C        -2.77214674175388   -1.15337865721579    1.79450156014999
C        -2.39469143569819    0.03441088165654    2.54152182357286
C        -2.75078830887824    1.13739326423199    1.81877333566255
C        -1.71728156783702   -2.99434230116569    0.58090444191271
C        -0.37268871340159   -3.44439205060148    0.59808061356148
C         0.24213511653732   -2.97808981514861    1.79050356291450
C        -0.73482656749850   -2.25747903318338    2.56775171945721
C        -1.97187145832406   -2.27185829950958    1.80472791460617
C        -0.24547103372497   -3.01663104084753   -1.84072422033126
C         0.73757785158136   -2.27953720571284   -2.56479255661399
C         1.96433470529013   -2.27950103840263   -1.80766503099708
C         1.75487663677110   -3.01449083564606   -0.60451212517388
C         0.40027807087090   -3.68451161703069   -0.64806497743504
C         2.79253999467834   -1.15750275214321   -1.82491067269023
C         2.41526410507022    0.00643894195853   -2.58489096039906
C         2.80008808342351    1.17336679097174   -1.83267020425794
C         3.41687908216983    0.72672842956643   -0.60829708175361
C         3.41103629691438   -0.71423203178153   -0.60912070350999
C         1.98354317410470    2.29739408104780   -1.83047796855845
C         0.75397970983023    2.29754711158833   -2.58686900103877
C        -0.23499446468351    3.01319727016466   -1.82253259612881
C         0.37326011058373    3.45041593195373   -0.60107180617334
C         1.74623505818045    3.01144799552833   -0.60359276117058
C        -1.55528881855135    2.57400865405270   -1.80831913778572
C        -1.93671866752334    1.41395099688655   -2.57082035181246
C        -2.93156755356193    0.68953634820262   -1.81869996900748
C        -3.16915565273182    1.40410399532234   -0.59436262932798
C        -2.30503544967314    2.57690057092799   -0.58197856943459
C        -2.93191564488816   -0.70167632544286   -1.82969425860045
C        -1.93402603216394   -1.41432468580474   -2.58474617453647
C        -1.55190186636794   -2.58210057243174   -1.83114679198305
C        -2.33488679782321   -2.59030139198117   -0.60865401302966
C        -3.17071361825486   -1.43133133649498   -0.61123521530140
C        -0.98303634893490   -0.71409734432892   -3.31519355601778
C        -0.98544615551364    0.72727068653147   -3.31157071084441
C         0.38665495446173    1.17380724134232   -3.31359405129085
C         1.23086877102232    0.00687002910575   -3.31127439060702
C         0.38218660428976   -1.15661185600629   -3.30990702933453
Cl       -1.95532631993724    0.00460883148790    5.24289045919359
Cl       -3.13697021561055    3.63031955248269    2.87518156896256
Cl        0.58910579836948   -5.50216694013468   -0.94791368359269
63
 energy: -142.112939887766 gnorm: 0.002474298975 xtb: 6.4.1 (a3dbbd7)
C        -1.30036236835692    0.01371379819063    3.55414651813676
C        -0.37174101403565   -1.16226833465069    3.31180369521444
C         0.98053467561742   -0.71365049261743    3.28179160590004
C         0.97924197432836    0.72320523177165    3.27183610617895
C        -0.37316342233589    1.18680047382112    3.30583370317901
C         2.32916720692380   -2.57648970127588    0.56752406629155
C         3.17560624335509   -1.41064106771339    0.57048967817186
C         2.94061547019146   -0.69285693933964    1.79472353886093
C         1.94649126399602   -1.41588425098492    2.55183657382884
C         1.58037604363928   -2.57575046490344    1.81096419699902
C         3.18662658140313    1.41774258151658    0.57470465000121
C         2.33748392528345    2.58007637618265    0.57614863768914
C         1.57506113363974    2.56981245985711    1.80069707197908
C         1.95162336944498    1.41412969374407    2.55238910178227
C         2.94687599254794    0.69353786886164    1.79859371017479
C        -0.36622520444765    3.43158288564165    0.58141829694981
C        -1.73025212073062    3.02202308343779    0.58519180578872
C        -2.09676039967133    2.46943782978887    1.95013722069526
C        -0.73212947701512    2.29156287936231    2.58531136277805
C         0.24655220586315    2.98127083017978    1.80439822136006
C        -3.37560805895660    0.70599577215971    0.57775363357401
C        -3.39480534082763   -0.72483616471082    0.57279995449546
C        -2.77244767574917   -1.15371880682127    1.79437358165344
C        -2.39484310707591    0.03401768807102    2.54151875383274
C        -2.75086240491173    1.13696718406099    1.81870485349840
C        -1.71653067030491   -2.99413784340102    0.57985709989625
C        -0.37157605017131   -3.44171003832635    0.59623850587950
C         0.24266814511253   -2.97782993292881    1.78931676152822
C        -0.73443504403218   -2.25688123943909    2.56672973044579
C        -1.97127125797623   -2.27130538723826    1.80391946938098
C        -0.24546370462150   -3.01773718087115   -1.84052040494600
C         0.73707351368680   -2.27910309243052   -2.56395637953356
C         1.96386539475722   -2.27906310388225   -1.80683182401174
C         1.75475747313238   -3.01568054486964   -0.60441569161278
C         0.40077830004756   -3.68723131695485   -0.64881159290670
C         2.79188737266589   -1.15724313813500   -1.82464823805156
C         2.41507323151057    0.00659458386799   -2.58461202607493
C         2.80033890715888    1.17354494674889   -1.83262519327839
C         3.41717484290066    0.72700131380334   -0.60828984161571
C         3.41103102757598   -0.71407080366927   -0.60904301890205
C         1.98369645217114    2.29753095584376   -1.83058059106353
C         0.75402760914318    2.29767228582385   -2.58705558402410
C        -0.23498558647967    3.01316002530829   -1.82263897855451
C         0.37325296380380    3.45025718919649   -0.60108986138553
C         1.74629948784625    3.01142702317558   -0.60362897575744
C        -1.55533314941992    2.57397301265192   -1.80844385734575
C        -1.93668021472343    1.41395615864895   -2.57086874748654
C        -2.93168218956624    0.68941069136956   -1.81886919581107
C        -3.16925716363458    1.40395987892652   -0.59451910833729
C        -2.30509045228669    2.57666261690476   -0.58205405706477
C        -2.93165958390644   -0.70172889741955   -1.82964556796433
C        -1.93338389806741   -1.41432737631259   -2.58440223937197
C        -1.55174176490289   -2.58220930023129   -1.83115708463091
C        -2.33602226421387   -2.59042565710606   -0.60910867422234
C        -3.17129621838574   -1.43153974216603   -0.61152636845506
C        -0.98304732107575   -0.71396900851118   -3.31522124438498
C        -0.98554676866259    0.72752519130735   -3.31186510580223
C         0.38655325199837    1.17397653390850   -3.31381907595539
C         1.23075326103836    0.00702679284787   -3.31096053380837
C         0.38227983346294   -1.15635391801390   -3.30920891636853
Cl       -1.95460074013469    0.00460750189636    5.24288779854831
Cl       -3.13674177176232    3.62998355812935    2.87522015792652
Cl        0.58597532919737   -5.49700506352272   -0.94315711950854
63
 energy: -142.112951889180 gnorm: 0.001331798147 xtb: 6.4.1 (a3dbbd7)
C        -1.30031140040335    0.01342544393925    3.55407821305200
C        -0.37163242394036   -1.16252713531372    3.31196669955220
C         0.98074982411517   -0.71390128127764    3.28192753767911
C         0.97933939053717    0.72290512316267    3.27184745580316
C        -0.37309271187778    1.18647113952482    3.30569552421249
C         2.32921972454981   -2.57589404811280    0.56754093596460
C         3.17614119491727   -1.41065647389814    0.57053970773874
C         2.94108154888023   -0.69300627997644    1.79491186304011
C         1.94691592802297   -1.41602908366529    2.55207387735597
C         1.58052807720101   -2.57561585730640    1.81100573769914
C         3.18672437135603    1.41751865814147    0.57468544078227
C         2.33750165154108    2.57977791551539    0.57615154077811
C         1.57509672542713    2.56950836852208    1.80069233602155
C         1.95173235530778    1.41386049479859    2.55241233297270
C         2.94716235694926    0.69337304655437    1.79869227412871
C        -0.36621617151993    3.43124882885011    0.58140064466947
C        -1.73022653257422    3.02164479346747    0.58514669904895
C        -2.09668451138204    2.46903266294264    1.95005411515733
C        -0.73208714314335    2.29121063855300    2.58524359047592
C         0.24658836123209    2.98092002887044    1.80434774729385
C        -3.37563781733374    0.70568645749420    0.57769016538477
C        -3.39498393972459   -0.72507223493975    0.57268650663909
C        -2.77270700921043   -1.15399903100431    1.79439784992306
C        -2.39478023424841    0.03371328033448    2.54143889811521
C        -2.75076936345364    1.13660969808993    1.81859575732244
C        -1.71658102852456   -2.99369224899663    0.57987664327205
C        -0.37149797358316   -3.44051056831731    0.59612155009612
C         0.24268929316179   -2.97736586860426    1.78935455415405
C        -0.73452429558391   -2.25693421311020    2.56687544814794
C        -1.97138313322568   -2.27139146385283    1.80409877201949
C        -0.24550462726944   -3.01658935397523   -1.84027004045128
C         0.73715813628247   -2.27873407701431   -2.56413678239980
C         1.96397854926020   -2.27868255786792   -1.80696970322567
C         1.75453801570587   -3.01453925045624   -0.60426144450258
C         0.40057188093320   -3.68691729341796   -0.64848956320257
C         2.79224316419728   -1.15724243294964   -1.82486481641889
C         2.41523657525935    0.00648217236670   -2.58480515117955
C         2.80042977524721    1.17335407731344   -1.83265923255436
C         3.41732961911234    0.72687090973779   -0.60835613172874
C         3.41145743449166   -0.71415628944675   -0.60908143050740
C         1.98366849674829    2.29723635688287   -1.83056503244065
C         0.75401890154408    2.29737748183145   -2.58703545120484
C        -0.23498436062616    3.01281231673739   -1.82262360373598
C         0.37324248573948    3.44993925210993   -0.60108577525338
C         1.74626611140945    3.01107471731795   -0.60362071413043
C        -1.55533857725914    2.57367080454760   -1.80847988080876
C        -1.93670002908442    1.41372544118954   -2.57098277091207
C        -2.93185365524572    0.68922277399850   -1.81906183430373
C        -3.16928362666248    1.40366790752970   -0.59461028331412
C        -2.30508914722773    2.57634193255408   -0.58209665683645
C        -2.93200334858112   -0.70189641347999   -1.82998686480925
C        -1.93366796960748   -1.41436903403583   -2.58490620920363
C        -1.55178740102827   -2.58162795300154   -1.83123613368520
C        -2.33609241307470   -2.59026758971930   -0.60921741238897
C        -3.17165253367750   -1.43168959784972   -0.61180116490062
C        -0.98319777298106   -0.71406896902067   -3.31565033014128
C        -0.98556154010739    0.72738622136398   -3.31205933000501
C         0.38654017929641    1.17378162356948   -3.31392779970637
C         1.23085391563484    0.00691664029648   -3.31119785342549
C         0.38231904649653   -1.15635594012526   -3.30963330547062
Cl       -1.95458655123823    0.00415443767246    5.24270447842796
Cl       -3.13671389784426    3.62937008305112    2.87527685746120