62
 energy: -137.540385396470 gnorm: 0.000162126096 xtb: 6.4.1 (a3dbbd7)
C        -1.30476047016891    0.01052145022439    3.53638029966058
C        -0.37806962549076   -1.16343705712131    3.31185687890360
C         0.96689695775015   -0.71674792572086    3.27176543023530
C         0.97561864011381    0.72467561908745    3.27412057722732
C        -0.37503370984016    1.18122615634927    3.30978896556252
C         2.33376645216020   -2.57350527956271    0.57522055421724
C         3.17915739805144   -1.40412633389736    0.57619357284908
C         2.94247865051297   -0.68845006947079    1.79877436182834
C         1.94372260964760   -1.42195296484803    2.55062151696488
C         1.58760710926891   -2.57544017506051    1.81201297043496
C         3.18220612004812    1.42106551452449    0.58012234619306
C         2.33329729318485    2.58448188460004    0.58195504363634
C         1.57453187951685    2.57980697781735    1.81066951737955
C         1.94956882906009    1.42226668574755    2.56291904123820
C         2.94178516480809    0.69634847627932    1.80328591636676
C        -0.36166232403463    3.44828462384229    0.58733241312814
C        -1.73392647715723    3.00852920348187    0.58861055157559
C        -1.97777713517190    2.29990228141204    1.81362905619439
C        -0.73786401922508    2.28354038245317    2.56949721408512
C         0.25056899877298    3.00384281170685    1.80922387855403
C        -3.40514292484309    0.73080126944941    0.57895873774689
C        -3.40022381325338   -0.70620162906120    0.58451175618775
C        -2.78277231485793   -1.13935160060663    1.82184627180935
C        -2.43296238065851    0.00875587415251    2.56445539213962
C        -2.78245842468176    1.16486248916315    1.81149261287585
C        -1.72007948598805   -2.98996080844327    0.59844287330823
C        -0.36193449856756   -3.45415064574440    0.60599261448327
C         0.23926705852740   -2.98468835421712    1.77803105236219
C        -0.74936704608113   -2.26211898667716    2.56216137475575
C        -1.98027062677980   -2.28585095360114    1.82961145319778
C        -0.24426632755988   -3.01132287854753   -1.83212679969851
C         0.73417260097447   -2.27800632021163   -2.55795396559474
C         1.96330242922221   -2.27769696280979   -1.79741370930428
C         1.75799240174748   -3.01314293816938   -0.60029979760661
C         0.40349342747015   -3.69049206542383   -0.64440353096084
C         2.79169345737466   -1.15276782089594   -1.81888187528303
C         2.40915497568737    0.00752169024296   -2.57636815273816
C         2.79437694719339    1.17648947767318   -1.82594774912556
C         3.41481112376247    0.73163393865247   -0.60314148449250
C         3.41289482966012   -0.70903858013481   -0.60478345260134
C         1.97520842660293    2.29721169989605   -1.82245271251787
C         0.74454072704056    2.29816478977481   -2.57823815543902
C        -0.24246309016720    3.01880729674986   -1.82014421406675
C         0.36831366368658    3.45924413463533   -0.59679705046632
C         1.74128567640398    3.01589516125893   -0.59707104617107
C        -1.57064373365948    2.58843699457031   -1.81792761708352
C        -1.94700063401958    1.42275236476312   -2.57934807784921
C        -2.94047764501681    0.69958929317074   -1.82339504192347
C        -3.17755085140769    1.42046564033366   -0.59978318032793
C        -2.32521985190260    2.59102681287637   -0.60092454694231
C        -2.93350050109863   -0.68921829585177   -1.81757624244794
C        -1.93679179301192   -1.40909449152076   -2.57039689757185
C        -1.55128186334084   -2.57261704467816   -1.81545961320595
C        -2.31332471604209   -2.56792211882495   -0.58216366604575
C        -3.16541787608066   -1.40386645360124   -0.59056822292053
C        -0.98884602206854   -0.71126208041768   -3.30613011149522
C        -0.99262175088539    0.73081512707168   -3.30916175390137
C         0.38042012982665    1.17524206765440   -3.30942807507022
C         1.22356350683493    0.00899230407873   -3.30475038531017
C         0.37674083835137   -1.15406786574175   -3.30144521054692
Cl       -1.95807902121872    0.02485883592908    5.25080855665825
Cl        0.59477788505004   -5.48302459000104   -0.98569845952630
