156
 energy: -484.354346813067 gnorm: 10.169181687879 xtb: 6.4.1 (a3dbbd7)
C        -1.23626340000000    0.00000000000000    3.32997640000000
C        -0.38202640000000   -1.17575640000000    3.32997640000000
C         1.00015810000000   -0.72665740000000    3.32997640000000
C         1.00015810000000    0.72665740000000    3.32997640000000
C        -0.38202640000000    1.17575640000000    3.32997640000000
C         2.34433560000000   -2.60145750000000    0.59464210000000
C         3.19857260000000   -1.42570110000000    0.59464210000000
C         2.96246730000000   -0.69904370000000    1.83090550000000
C         1.96230920000000   -1.42570110000000    2.59495830000000
C         1.58028280000000   -2.60145750000000    1.83090550000000
C         3.19857260000000    1.42570110000000    0.59464210000000
C         2.34433560000000    2.60145750000000    0.59464210000000
C         1.58028280000000    2.60145750000000    1.83090550000000
C         1.96230920000000    1.42570110000000    2.59495830000000
C         2.96246730000000    0.69904370000000    1.83090550000000
C        -0.36750900000000    3.48258920000000    0.59464210000000
C        -1.74969350000000    3.03349030000000    0.59464210000000
C        -1.98579880000000    2.30683290000000    1.83090550000000
C        -0.74953540000000    2.30683290000000    2.59495830000000
C         0.25062270000000    3.03349030000000    1.83090550000000
C        -3.42570570000000    0.72665740000000    0.59464210000000
C        -3.42570570000000   -0.72665740000000    0.59464210000000
C        -2.80757400000000   -1.17575640000000    1.83090550000000
C        -2.42554760000000    0.00000000000000    2.59495830000000
C        -2.80757400000000    1.17575640000000    1.83090550000000
C        -1.74969350000000   -3.03349030000000    0.59464210000000
C        -0.36750900000000   -3.48258920000000    0.59464210000000
C         0.25062270000000   -3.03349030000000    1.83090550000000
C        -0.74953540000000   -2.30683290000000    2.59495830000000
C        -1.98579880000000   -2.30683290000000    1.83090550000000
C        -0.25062270000000   -3.03349030000000   -1.83090550000000
C         0.74953540000000   -2.30683290000000   -2.59495830000000
C         1.98579880000000   -2.30683290000000   -1.83090550000000
C         1.74969350000000   -3.03349030000000   -0.59464210000000
C         0.36750900000000   -3.48258920000000   -0.59464210000000
C         2.80757400000000   -1.17575640000000   -1.83090550000000
C         2.42554760000000    0.00000000000000   -2.59495830000000
C         2.80757400000000    1.17575640000000   -1.83090550000000
C         3.42570570000000    0.72665740000000   -0.59464210000000
C         3.42570570000000   -0.72665740000000   -0.59464210000000
C         1.98579880000000    2.30683290000000   -1.83090550000000
C         0.74953540000000    2.30683290000000   -2.59495830000000
C        -0.25062270000000    3.03349030000000   -1.83090550000000
C         0.36750900000000    3.48258920000000   -0.59464210000000
C         1.74969350000000    3.03349030000000   -0.59464210000000
C        -1.58028280000000    2.60145750000000   -1.83090550000000
C        -1.96230920000000    1.42570110000000   -2.59495830000000
C        -2.96246730000000    0.69904370000000   -1.83090550000000
C        -3.19857260000000    1.42570110000000   -0.59464210000000
C        -2.34433560000000    2.60145750000000   -0.59464210000000
C        -2.96246730000000   -0.69904370000000   -1.83090550000000
C        -1.96230920000000   -1.42570110000000   -2.59495830000000
C        -1.58028280000000   -2.60145750000000   -1.83090550000000
C        -2.34433560000000   -2.60145750000000   -0.59464210000000
C        -3.19857260000000   -1.42570110000000   -0.59464210000000
C        -1.00015810000000   -0.72665740000000   -3.32997640000000
C        -1.00015810000000    0.72665740000000   -3.32997640000000
C         0.38202640000000    1.17575640000000   -3.32997640000000
C         1.23626340000000    0.00000000000000   -3.32997640000000
C         0.38202640000000   -1.17575640000000   -3.32997640000000
C        -1.76086815247998    0.00000000000000    4.78849957557021
F        -0.76911826531252    0.00000000000000    5.67468926254662
F        -2.50968386795825   -1.06794314680471    5.04863888333743
F        -2.50968386795825    1.06794314680471    5.04863888333743
C        -0.54413818249354   -1.67468516033722    4.78849957845317
F        -0.23767107904745   -0.73147481112462    5.67468925997942
F        -1.79120914301982   -2.05683909935453    5.04863874564184
F         0.24013968171955   -2.71686350152345    5.04863903502921
C         1.42457227037960   -1.03501233722714    4.78849957248258
F         0.62223011468481   -0.45207589682711    5.67468926529602
F         1.40265511061956   -2.33913928186680    5.04863905501621
F         2.65809836182651   -0.61117154425495    5.04863869666890
C         1.42457227037960    1.03501233722714    4.78849957248258
F         0.62223011468481    0.45207589682711    5.67468926529602
F         2.65809836182651    0.61117154425495    5.04863869666891
F         1.40265511061956    2.33913928186680    5.04863905501621
C         3.37204091334889   -3.72927672645244    0.86730596148276
F         4.06564647311728   -3.51265957144659    1.98125763710228
F         4.25569947457670   -3.84739838595791   -0.11965645964809
F         2.78580317558591   -4.91533944031226    1.00324916143779
C         4.58877084110522   -2.05459160147071    0.86730597290559
F         4.59709252483521   -2.78118520641283    1.98125951001435
F         4.97417519512416   -2.85850196315549   -0.11965482382298
F         5.53562669678859   -1.13053295630600    1.00324569798425
C         4.25247495652193   -1.01957928511255    2.62817407757680
F         4.45020405360863   -2.32910962270744    2.75037677428969
F         5.33704498641440   -0.51936149478958    2.04303305824604
F         4.21414295278388   -0.51936236815955    3.85992636334025
C         4.25247495652193    1.01957928511255    2.62817407757680
F         4.45020405360857    2.32910962270745    2.75037677428973
F         5.33704498641440    0.51936149478962    2.04303305824599
F         4.21414295278389    0.51936236815949    3.85992636334022
C        -0.53602450593361    4.99908416128281    0.86730591619822
F        -1.22448605650957    5.23152837615597    1.98125850960180
F        -1.18149064144157    5.61404773804446   -0.11965571789346
F         0.63540201352706    5.61404743764837    1.00324736766175
C        -2.50473491433418    4.35941144902977    0.86730593917895
F        -2.08438487052912    4.95213043104453    1.98125838386969
F        -2.34400857369757    5.23632280881804   -0.11965581818547
F        -3.81390519137296    4.16837996597314    1.00324768478856
C        -4.03961820246674   -1.67468514775899    2.62817407948106
F        -4.96930660042402   -0.73147479244129    2.75037763231441
F        -4.62303373288711   -2.71686348978894    2.04303253910982
F        -3.71458666614022   -2.05683907990832    3.85992603200073
C        -0.34440953624153   -4.35941144868709   -2.62817404748705
F         0.83992598883967   -4.95213069234126   -2.75037577510431
F        -0.80829780400759   -4.16837989546168   -3.85992670963205
F        -1.15529636597892   -5.23632261667420   -2.04303359185445
C         1.08016271022039   -3.32439912180418   -3.71645041587937
F         1.46215754230406   -4.50005299330749   -3.22571838851551
F         0.03290491502765   -3.55721032900471   -4.50254840736000
F         2.06425285383526   -2.89718320022386   -4.50255037491024
C         2.84103082519036   -3.32439911178427   -2.62817407941587
F         2.23127406184888   -4.50005340761388   -2.75037746012495
F         3.10404037880944   -2.89718378306489   -3.85992609894426
F         4.01248672303643   -3.55720929213529   -2.04303264409737
C         4.03961820246674   -1.67468514775899   -2.62817407948106
F         4.96930660042401   -0.73147479244129   -2.75037763231445
F         3.71458666614023   -2.05683907990836   -3.85992603200072
F         4.62303373288714   -2.71686348978891   -2.04303253910981
C         4.03961820246674    1.67468514775899   -2.62817407948106
F         4.96930660042402    0.73147479244129   -2.75037763231441
F         3.71458666614022    2.05683907990832   -3.85992603200073
F         4.62303373288711    2.71686348978894   -2.04303253910982
C         0.53602450593361    4.99908416128281   -0.86730591619822
F         1.22448605650957    5.23152837615597   -1.98125850960180
F        -0.63540201352706    5.61404743764837   -1.00324736766175
F         1.18149064144157    5.61404773804446    0.11965571789346
C        -4.58877084110522    2.05459160147071   -0.86730597290559
F        -4.59709252483521    2.78118520641283   -1.98125951001435
F        -5.53562669678859    1.13053295630600   -1.00324569798425
F        -4.97417519512416    2.85850196315549    0.11965482382298
C        -4.25247495652193   -1.01957928511255   -2.62817407757680
F        -4.45020405360857   -2.32910962270745   -2.75037677428973
F        -4.21414295278389   -0.51936236815949   -3.85992636334022
F        -5.33704498641440   -0.51936149478962   -2.04303305824599
C        -2.28376457660886   -3.72927671755932   -2.62817408867206
F        -3.59030321655004   -3.51265997057978   -2.75037870097715
F        -1.79618325340527   -3.84739782561575   -3.85992562899768
F        -2.14318168460923   -4.91533956626621   -2.04303190988614
C        -3.37204091334889   -3.72927672645244   -0.86730596148276
F        -4.06564647311728   -3.51265957144659   -1.98125763710228
F        -2.78580317558591   -4.91533944031226   -1.00324916143779
F        -4.25569947457670   -3.84739838595791    0.11965645964809
C        -1.42457227037960   -1.03501233722714   -4.78849957248258
F        -0.62223011468481   -0.45207589682711   -5.67468926529602
F        -2.65809836182651   -0.61117154425495   -5.04863869666891
F        -1.40265511061956   -2.33913928186680   -5.04863905501621
C         1.76086815247998    0.00000000000000   -4.78849957557021
F         0.76911826531252    0.00000000000000   -5.67468926254662
F         2.50968386795825    1.06794314680471   -5.04863888333743
F         2.50968386795825   -1.06794314680471   -5.04863888333743
C         0.54413818249354   -1.67468516033722   -4.78849957845317
F         0.23767107904745   -0.73147481112462   -5.67468925997942
F        -0.24013968171955   -2.71686350152345   -5.04863903502921
F         1.79120914301982   -2.05683909935453   -5.04863874564184
156
 energy: -492.060740505383 gnorm: 8.271628957420 xtb: 6.4.1 (a3dbbd7)
C        -1.23678377411576    0.00093601028522    3.32584729835542
C        -0.38260479260941   -1.17814867220822    3.32322107931699
C         1.00117111924741   -0.72774057217283    3.32239994126425
C         0.99965599182111    0.72841767859264    3.32560920939755
C        -0.38212639866482    1.17650098445696    3.33229606070560
C         2.33878397446364   -2.59939147665103    0.59400144361276
C         3.19244207981163   -1.42049897874966    0.58995224875451
C         2.95242375085784   -0.69868395623239    1.82602141390057
C         1.96458661850331   -1.42702677887441    2.59328892662406
C         1.58072923006993   -2.60362906533757    1.83123326719881
C         3.19775502130910    1.42673595538171    0.59380984606441
C         2.34383019222394    2.60103828402705    0.59662273524652
C         1.58195045689837    2.60123870016966    1.82921940512083
C         1.96346539652009    1.42819737647852    2.59329142047788
C         2.95685213236006    0.70313666974959    1.82700878839032
C        -0.36651193339042    3.47540075638182    0.59628318340715
C        -1.75081778035030    3.02928405838572    0.59414891753067
C        -1.98555825894696    2.30555604242917    1.83285538788889
C        -0.75035365608527    2.30831203381069    2.59263816004040
C         0.24998519275902    3.03364891163156    1.83209058832286
C        -3.42390584452076    0.72336212470091    0.59871622423243
C        -3.42493681039628   -0.72345671371472    0.59249234897201
C        -2.81098888988325   -1.17620454129268    1.83154880741653
C        -2.42711218938395    0.00248012400044    2.59320191015260
C        -2.80650488144087    1.17391843459745    1.82965873648210
C        -1.74697601117570   -3.03394615813744    0.59782667230470
C        -0.36859175406997   -3.48268768849818    0.59794940162801
C         0.24824610803421   -3.03329978595747    1.82977433632446
C        -0.75046275112005   -2.30909314030692    2.59053566324356
C        -1.98185034704053   -2.30889687196271    1.83140953782452
C        -0.24785965760128   -3.02386188105109   -1.82147893754091
C         0.74528763586687   -2.29390106074873   -2.57923571313963
C         1.97882706819316   -2.30144934504036   -1.82218189213992
C         1.74974522582801   -3.03486770630745   -0.59583811129204
C         0.36697748149420   -3.48336560983485   -0.59493022281762
C         2.80511135157452   -1.16927620433785   -1.82729218440701
C         2.42634662108509   -0.00058111813328   -2.59435072172274
C         2.81030141234252    1.17655802049173   -1.83060223957104
C         3.42590603983002    0.72626213463750   -0.59278140623054
C         3.42545955354416   -0.72407022195470   -0.59596273556630
C         1.98180881416276    2.30898408057702   -1.83205755087735
C         0.75077108088358    2.30704920200773   -2.59287625346494
C        -0.25033466691607    3.03340163424333   -1.83227721319565
C         0.36969902005766    3.47620119266390   -0.59809784567547
C         1.75050407969427    3.03274227628238   -0.59586616634785
C        -1.58109438062266    2.60079438030747   -1.83095663872700
C        -1.96280713858620    1.42513704131186   -2.59225185768021
C        -2.96093495764191    0.70193667806821   -1.83359028409541
C        -3.20155854424254    1.42750359227144   -0.59598120075527
C        -2.34291293820885    2.60049689837923   -0.59816856495954
C        -2.96312877410955   -0.69963313606262   -1.83069732444871
C        -1.96291111001256   -1.42695478099501   -2.59409904757113
C        -1.58004937482705   -2.59406297644585   -1.82771486809920
C        -2.34400263630251   -2.59923590301293   -0.59093152215700
C        -3.19904993301956   -1.42493862926721   -0.59271300316879
C        -1.00103504088284   -0.72385781249458   -3.32418448848240
C        -1.00049031448082    0.72832064781856   -3.33143462402753
C         0.38168459631026    1.17695747225348   -3.33112888181081
C         1.23544154804249    0.00154864213300   -3.32415345598440
C         0.38088104244889   -1.17044417714506   -3.31485767378031
C        -1.78210634592370    0.00372320816398    4.76551966714264
F        -0.80559406781683    0.04056718404888    5.69988761925601
F        -2.55512891648871   -1.00966492522379    5.05235167560671
F        -2.51113699104635    1.07239527211435    5.05140551415162
C        -0.55170559538435   -1.69960775173087    4.75923760189032
F        -0.26772300787443   -0.77645450175720    5.71159573307870
F        -1.75251685474315   -2.11763190465435    5.05068058143767
F         0.17272914153916   -2.74622747774022    5.05128313036755
C         1.44457593623449   -1.05158055591338    4.75602893314266
F         0.66404197033518   -0.46824630990883    5.71515212080207
F         1.47473021418595   -2.32292300729505    5.05117555653532
F         2.66284795818556   -0.68544860688193    5.05299798001988
C         1.44480346491638    1.04544894257050    4.76127421130872
F         0.62446461517356    0.50784612660608    5.70301013596519
F         2.66570454395595    0.68716265536178    5.05284144530626
F         1.40124152624797    2.34336439289786    5.05194164416114
C         3.35677645935579   -3.72686856630804    0.84534386234293
F         4.04572739554793   -3.56886483673151    2.00233467073781
F         4.21773680709200   -3.91290327096813   -0.12431755958910
F         2.78531531016205   -4.91993813394092    1.00513695855480
C         4.57797602433913   -2.03867390921179    0.84496144284075
F         4.64421897244201   -2.78909577605783    1.96793265083651
F         5.02387812682170   -2.80349944362475   -0.12346468309049
F         5.55819335368162   -1.16368797097952    0.93551793720994
C         4.23395134936321   -0.98268847559191    2.60231115802963
F         4.45447881916783   -2.33830536310993    2.81938168737555
F         5.34722962189536   -0.51523149801680    2.09386873999141
F         4.21566181726496   -0.55350805230720    3.88281153917727
C         4.23885028932578    1.02532460681194    2.61744816826269
F         4.45246892484973    2.33185251806125    2.75226056755605
F         5.35546157083392    0.55784392892269    2.03917408343972
F         4.21577190739479    0.55383001683305    3.88736934271034
C        -0.53496891128377    4.97057994943313    0.83473544696550
F        -1.18498531041592    5.26197624814338    2.01561471511827
F        -1.14029197271775    5.64739040251382   -0.09746602491529
F         0.64109712227155    5.62970621621211    1.05050094363594
C        -2.50547581465527    4.34972414133833    0.85488732405643
F        -2.13535791560753    4.94371097699315    1.99864293766662
F        -2.42188317796366    5.21725424533615   -0.12639778283145
F        -3.81553628335191    4.17126958469300    1.00649209143109
C        -4.03953898921497   -1.67408311541302    2.62700385143340
F        -4.97078811108682   -0.73110612296591    2.75118050249924
F        -4.62434865798303   -2.71783890675462    2.04354597479566
F        -3.71702631022891   -2.05912169893267    3.85978835062587
C        -0.36170496798604   -4.32277484864743   -2.61643188411813
F         0.82547123882546   -5.01509130344178   -2.72303708518951
F        -0.82051249483498   -4.22740004713484   -3.84940614249309
F        -1.12773092070343   -5.26915589533198   -2.03184851299422
C         1.07296878988571   -3.30014697538816   -3.68777882945908
F         1.46362660747937   -4.50658435077279   -3.27510267990163
F         0.07669822740175   -3.57682659572904   -4.54353132950572
F         2.04141876578390   -2.93835546487252   -4.54406265760730
C         2.83214322338990   -3.28379330169881   -2.61477366437641
F         2.28042636927914   -4.54116844442071   -2.72300641945126
F         3.15202099126014   -2.93320424297467   -3.85192146185629
F         4.01433219947990   -3.59536525428123   -2.03332270412944
C         4.03020759426345   -1.66324524626384   -2.61772415409150
F         4.97387884410948   -0.75841843199915   -2.75192626095158
F         3.74815028836413   -2.01614858523258   -3.88164516451272
F         4.65873380058725   -2.70422262959088   -2.03362353032718
C         4.03810554216781    1.67636561141488   -2.62736143960290
F         4.97244454186500    0.75849120148968   -2.75139662157909
F         3.71687232179763    2.05924087255662   -3.86007987869893
F         4.62425761348344    2.71865683503146   -2.04271898481574
C         0.54118918607780    4.98343745930590   -0.87246545309080
F         1.22514563634633    5.23361760809520   -1.98270963395760
F        -0.63302833685582    5.62674374116938   -1.04282553754944
F         1.21595930055313    5.62479741813665    0.09796044520950
C        -4.58822445105149    2.05375577267242   -0.86729696672299
F        -4.59797363424399    2.78243728697141   -1.98246695987895
F        -5.53752845716325    1.13286942203189   -1.00179917970562
F        -4.97728614930181    2.85775832216609    0.11910964682780
C        -4.25230695637388   -1.01403498475092   -2.62689903933845
F        -4.46844925905009   -2.30523327551431   -2.76162222566032
F        -4.21737985218049   -0.51886660645197   -3.86028474176727
F        -5.33830660654661   -0.52191690221341   -2.04473838463778
C        -2.25857555169756   -3.72130621645418   -2.60139838713741
F        -3.58136787371914   -3.52574825374894   -2.80189897298527
F        -1.85258013943465   -3.83140842070041   -3.89323071707150
F        -2.14611091196785   -4.92235623833567   -2.09828263480711
C        -3.36447125385868   -3.72809198416621   -0.85656897866784
F        -4.09851109541563   -3.52521209157118   -1.94115556015178
F        -2.82626161149766   -4.92402795623372   -0.93358830683077
F        -4.25881417276624   -3.84835135134567    0.12069872496367
C        -1.43193189692879   -1.04162498981311   -4.76771930953779
F        -0.67235205397771   -0.42303418701966   -5.69892590534018
F        -2.65923479416261   -0.60948686366478   -5.05403359761796
F        -1.48413519320971   -2.32759274230217   -5.05578298972041
C         1.77068113093086    0.00579465643440   -4.76878241594918
F         0.79419896839634    0.04850708190827   -5.69826703146612
F         2.50967278601781    1.07027895031226   -5.05403692811916
F         2.56780948254237   -1.00969370433665   -5.05392276343812
C         0.54599211251249   -1.67733358962047   -4.74323887318904
F         0.24725337256483   -0.76070853800688   -5.70999288888661
F        -0.20148250653712   -2.72001659775789   -5.09039933922925
F         1.75814192224832   -2.08012626339721   -5.09115401858503
156
 energy: -499.608737485368 gnorm: 7.659299351356 xtb: 6.4.1 (a3dbbd7)
C        -1.23738687804574    0.00344155939264    3.32438994746584
C        -0.38316609369112   -1.18048815193044    3.32023160163026
C         1.00249399547205   -0.72899310671079    3.31883675675798
C         0.99836254657518    0.73034957905094    3.32420405296796
C        -0.38245604558518    1.17802060925424    3.33301106075270
C         2.33660311154281   -2.60083084217915    0.59447974899524
C         3.19042094663018   -1.41784454182317    0.58576547393300
C         2.94910777570604   -0.69963532018546    1.82672426782379
C         1.96597693176437   -1.42864216323270    2.59123603394736
C         1.57973061037507   -2.60513341309333    1.83303975979675
C         3.19623345866336    1.42796171207493    0.59105506892895
C         2.34338334090741    2.60084011209257    0.59872631938347
C         1.58325136859400    2.60063152042183    1.82663772982779
C         1.96412609853477    1.43083638330430    2.59161380269764
C         2.95413765912391    0.70902255024221    1.82502707409591
C        -0.36635054644373    3.47577030389345    0.60006309291334
C        -1.75338919661619    3.02732332683422    0.59467301215527
C        -1.98532104981929    2.30448921498873    1.83579625812035
C        -0.75055115575928    2.30864953464036    2.58920216716235
C         0.24944544681125    3.03261183354536    1.83487214348180
C        -3.42302677258264    0.71938555246324    0.60319168433256
C        -3.42240063646942   -0.71958255161387    0.59011544024167
C        -2.81562185890985   -1.17705357256366    1.83477685686005
C        -2.42887427207862    0.00509500186468    2.59157573778824
C        -2.80538621872958    1.17171268751018    1.82780753740091
C        -1.74377095338182   -3.03440481742839    0.60216065708163
C        -0.36984562623346   -3.48046187291916    0.60044997469493
C         0.24624385903869   -3.03259231854749    1.82750378668531
C        -0.75194299923521   -2.31144224583954    2.58560437738114
C        -1.97695759296981   -2.31156366004041    1.82974869503311
C        -0.24484476113151   -3.01743006962804   -1.81272821514294
C         0.74152429935293   -2.28382582527665   -2.55999545544865
C         1.97687444862483   -2.30023726995973   -1.81695453705756
C         1.74945750147250   -3.03626509950063   -0.59807341406397
C         0.36628018274121   -3.48595613481617   -0.59517389771925
C         2.80686422564715   -1.16324849083676   -1.82632544190190
C         2.42680848857569   -0.00064406038964   -2.59274639790276
C         2.81469652238562    1.17797674452105   -1.83284474987099
C         3.42477771725277    0.72613801415598   -0.58971320091526
C         3.42571198354095   -0.72114116208196   -0.59625587517506
C         1.97685314659677    2.31237071314814   -1.83066510568927
C         0.75191230394430    2.30631371135557   -2.59075155333769
C        -0.25117605533320    3.03207784033739   -1.83482838588023
C         0.37312296239808    3.47242186756379   -0.60281136151419
C         1.75144510260309    3.03067481157698   -0.59767162223520
C        -1.58065141733899    2.59908587838840   -1.82927691519702
C        -1.96364354813323    1.42419222446168   -2.58953568067722
C        -2.95678713680646    0.70561829030318   -1.83519148976165
C        -3.20569690548272    1.42987567357404   -0.59829486313266
C        -2.34130649879478    2.60071494715891   -0.60162261608004
C        -2.96641135727425   -0.70069912583799   -1.83240302078148
C        -1.96362124254922   -1.42860820447022   -2.59222116986115
C        -1.58177619743848   -2.58897237733679   -1.82684654450160
C        -2.34551161323831   -2.59704172358736   -0.58731262310771
C        -3.19947020308340   -1.42379241554288   -0.58987526959929
C        -1.00318321761559   -0.72210197917131   -3.32243887733776
C        -0.99964935395313    0.73104240488793   -3.33126799978941
C         0.37976594605287    1.17886166771512   -3.33083763012459
C         1.23644797778499    0.00480189810362   -3.32150907007320
C         0.38031795754174   -1.16711599105437   -3.30419069708727
C        -1.79949985260154   -0.00086135658598    4.74674112587209
F        -0.84122723097493    0.09538702858777    5.71904177739034
F        -2.58099694251339   -0.97348184956638    5.05731924349267
F        -2.51094276853724    1.07457579239694    5.05300307802454
C        -0.55448123051672   -1.71966222800276    4.73176285824698
F        -0.34537577097400   -0.84935079667825    5.74190728715966
F        -1.72916634530340   -2.15339500188644    5.05314642298311
F         0.13271556420010   -2.76427754293491    5.05275861585796
C         1.45954272429167   -1.06721132033386    4.72565067928960
F         0.76784207688542   -0.48094854732697    5.75066162510176
F         1.51779105537650   -2.31381776791200    5.05281469114737
F         2.66352513025570   -0.72675745012183    5.05802010505159
C         1.45946925227786    1.05368829906975    4.74091123394096
F         0.61898171289346    0.57425346607303    5.72417070122391
F         2.66580123563792    0.73036063896074    5.05833921203411
F         1.39982426560538    2.34535235792937    5.05380600832738
C         3.34150924623185   -3.72475907053038    0.82118572122530
F         4.01849110095048   -3.63067150991369    2.03206319936247
F         4.19624617384153   -3.95151172809678   -0.12392548657449
F         2.78530335139300   -4.92238400394881    1.00712258975592
C         4.57253968159985   -2.01634021949067    0.82442321420288
F         4.70472893589249   -2.79088312803047    1.92685383881992
F         5.05167326044020   -2.77185755409289   -0.11960228275566
F         5.57022630534631   -1.18429639941620    0.89079760397797
C         4.22205229297307   -0.94330476230796    2.58059540555435
F         4.45095992966178   -2.35098955657200    2.90042334180228
F         5.34577021992499   -0.53841931209836    2.14537037768202
F         4.22116445308524   -0.63073290211943    3.88871487968176
C         4.22377314660570    1.02456126784237    2.60892514236454
F         4.45626508289598    2.33651443511817    2.75460930012196
F         5.37558449796267    0.60890697639026    2.02115195661106
F         4.21791885291820    0.63040864249200    3.90515087433864
C        -0.53316625453275    4.94569017981044    0.79871433507588
F        -1.16270471488023    5.28699604869075    2.05411230361299
F        -1.11737898564455    5.67094221000070   -0.05721152710894
F         0.61843662711086    5.64123384210772    1.11507515874821
C        -2.50677777292174    4.34141691226678    0.84364768147948
F        -2.16795883697255    4.93903516371933    2.01042449991067
F        -2.46854387458154    5.20509773410520   -0.13090838106856
F        -3.81494287090238    4.17453315395718    1.00959994561246
C        -4.03958330527641   -1.67351576681270    2.62602630339408
F        -4.97216027044122   -0.73073182786899    2.75189201596122
F        -4.62561040480578   -2.71870402777555    2.04402857403716
F        -3.71956847094977   -2.06175396230710    3.85908770784760
C        -0.38022673478121   -4.27884913107964   -2.62163475707868
F         0.80926133720138   -5.08923700399327   -2.68147996281296
F        -0.79681063180906   -4.29548036200380   -3.82299568937010
F        -1.08805458119833   -5.30658715443105   -2.01763981864452
C         1.06760109767085   -3.28110078089023   -3.63622013570932
F         1.45128794944625   -4.47456826368508   -3.35604774609894
F         0.10649284518086   -3.60928025912065   -4.59104604017990
F         2.03686938998764   -2.98439477510314   -4.58877707404730
C         2.82375382013751   -3.23663122161446   -2.61698980352668
F         2.33819103395641   -4.59426292154942   -2.67975754519585
F         3.17459644532083   -3.00049756136053   -3.82457717157574
F         3.99107229795029   -3.65045350788152   -2.03373898585384
C         4.01733061695402   -1.65584427091927   -2.60838717972886
F         4.98022203673899   -0.78370363769379   -2.75415319531277
F         3.79255824676863   -1.94649571659290   -3.90167188374445
F         4.70721717575737   -2.66853419868207   -2.02573695971071
C         4.03725830928600    1.67738806223476   -2.62690448598126
F         4.97525943435829    0.78383090704875   -2.75219314063957
F         3.71927730861654    2.06183954292296   -3.85969111946977
F         4.62543554481407    2.72045807502926   -2.04221668375665
C         0.54796408111248    4.96427129094171   -0.86931913397594
F         1.22570393644551    5.23697011158321   -1.98531406619966
F        -0.63317384458840    5.63898969887713   -1.09798233880694
F         1.26500208598648    5.63354562880500    0.05029425489625
C        -4.58808652816749    2.05291723281754   -0.86746055022187
F        -4.59872806794812    2.78370209949230   -1.98360954285825
F        -5.53935478461913    1.13561423238747   -1.00006790797492
F        -4.98056662249958    2.85677187720087    0.11844985575615