63
 energy: -142.083030384153 gnorm: 0.137343133598 xtb: 6.4.1 (a3dbbd7)
C        -1.29585809770389    0.00401118895665    3.54517689253707
C        -0.36796043462932   -1.17243305037605    3.30515820978008
C         0.98298838983527   -0.72191219207564    3.27512267938171
C         0.98156472667820    0.71960753568128    3.26971969810914
C        -0.37066843460465    1.17924059903467    3.30150764336582
C         2.33648296603916   -2.58548060331365    0.57950289353032
C         3.18657767574002   -1.41946403927647    0.57781419519059
C         2.94957050639235   -0.69854930596759    1.80123308070154
C         1.95308396824160   -1.41752165468763    2.55613481575760
C         1.57961582989334   -2.57968580837377    1.80518673242103
C         3.18767024140451    1.40991878522763    0.57593180000620
C         2.33807592116844    2.57402574447607    0.57591940981122
C         1.57683795432701    2.56605672107525    1.79975339071644
C         1.95304946465436    1.40835201077487    2.55205927518980
C         2.95072023087345    0.68875745016373    1.80098024572921
C        -0.36516779407368    3.42666371337356    0.57921714423118
C        -1.72924376763824    3.01648005769000    0.58287705261872
C        -2.09463355992581    2.46231283092052    1.94730853815858
C        -0.73027134402217    2.28553619303067    2.58224921102021
C         0.24829448349984    2.97593693112150    1.80334175266563
C        -3.37466967425340    0.70300551354290    0.57574930054980
C        -3.39003092747716   -0.73268815647906    0.56838248265369
C        -2.76818811332164   -1.16356142379097    1.78871572221350
C        -2.38904763706855    0.02437925876362    2.53264263719760
C        -2.74834472563595    1.12995086275151    1.81420011519069
C        -1.73481952350512   -3.00995345714269    0.57938225060336
C        -0.36149853481650   -3.44686666227317    0.58178847315895
C         0.25217194581416   -2.99475012292755    1.80551621994623
C        -0.72930832442940   -2.27346636839910    2.56467955448571
C        -1.97147545426586   -2.28746259170963    1.79868366133100
C        -0.24419850626392   -3.01431906333444   -1.82647673840836
C         0.74940205407495   -2.29291975825760   -2.58286291053874
C         1.97453700933417   -2.29239152843074   -1.82543977586922
C         1.74139873400736   -3.01127177410490   -0.59946235558356
C         0.36858334367966   -3.45436466613801   -0.59762914044760
C         2.79442417392884   -1.17031401259636   -1.82833550603033
C         2.41574661888024   -0.00512369156855   -2.58546959716668
C         2.79806943075341    1.16104826420258   -1.83045397172065
C         3.41356646771945    0.71553904943849   -0.60565027142670
C         3.41126633561149   -0.72579612454708   -0.60436594395851
C         1.98256115248497    2.28538932455247   -1.82964816243281
C         0.75350030257848    2.28551308199782   -2.58573232036207
C        -0.23508280213456    3.00436687409655   -1.82344140492918
C         0.37359850932028    3.44286488622179   -0.60220138863872
C         1.74684322376492    3.00246743943424   -0.60372642363492
C        -1.55566653231806    2.56818250386052   -1.80941223575869
C        -1.93859434646944    1.40592010794080   -2.57168095880615
C        -2.93551210457882    0.68461262535792   -1.82146846772098
C        -3.16898901542976    1.39767486975662   -0.59605965548237
C        -2.30435127723071    2.57332623923171   -0.58497549467516
C        -2.94114405309208   -0.70773319324488   -1.83440725641731
C        -1.94505174577217   -1.42387954875747   -2.59102123506710
C        -1.56548890447542   -2.59170746585215   -1.83211639425372
C        -2.32839595515909   -2.59312664323360   -0.60918315818311
C        -3.17773883494341   -1.43218193772331   -0.61434027474195
C        -0.98775846759569   -0.72638522820754   -3.31322849837523
C        -0.98659864719709    0.71557045430270   -3.30737103326374
C         0.38544609985482    1.16109326139683   -3.31071431261235
C         1.23106807703669   -0.00470839638716   -3.31198800126459
C         0.38446650889097   -1.17000629330740   -3.31255499443923
Cl       -1.95494402230001   -0.00808767739961    5.23350834621500
Cl       -3.13453400437008    3.62205440029917    2.87428256883422
Cl        4.80966284764291   -2.15390482727127    0.89764423392765
63
 energy: -142.107000510668 gnorm: 0.059279212181 xtb: 6.4.1 (a3dbbd7)
C        -1.29944310822034    0.00504323203011    3.54719743005861
C        -0.37267615062804   -1.17199151740617    3.30815448423587
C         0.97655695225798   -0.71796158191300    3.28042501959421
C         0.97712970916559    0.72152824534328    3.27628229444574
C        -0.37464227557111    1.18061659642213    3.30430327262425
C         2.32008013173032   -2.58791441224078    0.57984338135093
C         3.28300418373494   -1.46476520276973    0.59826940317051
C         2.93610393536371   -0.69142031889826    1.80869272081802
C         1.94395819593226   -1.41063846541557    2.55211278381397
C         1.56997605554874   -2.57481281290083    1.80029031848966
C         3.18230388315822    1.41237966610669    0.57341981944760
C         2.33674150385871    2.57279770277130    0.57514182007124
C         1.57445819832469    2.56521698953537    1.80000739590064
C         1.94843352180282    1.41109202765315    2.55708006351717
C         2.93655468629739    0.68929168588190    1.80072059114671
C        -0.36667936799173    3.42686661806752    0.57927730305278
C        -1.72957875146191    3.01679228020539    0.58272402144006
C        -2.09577962545147    2.46270859872546    1.94699269389050
C        -0.73223802806332    2.28613003508754    2.58323713032440
C         0.24653156543050    2.97532577587089    1.80357146131841
C        -3.37600704587358    0.70333608653205    0.57618573781789
C        -3.39127267655339   -0.73155992642489    0.56886403093210
C        -2.76984749722119   -1.16244430792093    1.78947028152923
C        -2.39122688209930    0.02479356086632    2.53374148167271
C        -2.74943569374685    1.13027603537692    1.81379262907311
C        -1.73890716988776   -3.01096264108055    0.58128022054499
C        -0.36799083646124   -3.45067248104403    0.58452522738178
C         0.24399668757366   -2.99749549296544    1.80635228298252
C        -0.73423080754863   -2.27385330782170    2.56703613464555
C        -1.97504971013764   -2.28775282681871    1.80022940906072
C        -0.24597442179106   -3.01272596126358   -1.82516503114213
C         0.74866739990248   -2.29075516600084   -2.58233739927712
C         1.96930353553923   -2.28793886321927   -1.82777258551111
C         1.72868699838790   -3.00478826119919   -0.59639153404695
C         0.36234549384965   -3.45766157771005   -0.59670282625128
C         2.78498118959567   -1.15808370319728   -1.82958065092775
C         2.41175569786861    0.00407366089284   -2.59643473836973
C         2.79329343167869    1.16821536043471   -1.84193911395425
C         3.40045961008275    0.71561910046214   -0.61379087496811
C         3.42140793673972   -0.71549788247157   -0.62554997708729
C         1.97909481937326    2.29129853411026   -1.83554073462983
C         0.74976529480145    2.28912799143655   -2.59018544085258
C        -0.23756441163567    3.00583200755898   -1.82508273276433
C         0.37293311242385    3.44312369704154   -0.60316493003114
C         1.74446450706454    3.00553215556623   -0.60685672526421
C        -1.55709580886889    2.56892293049894   -1.81053067711002
C        -1.93999493827447    1.40686676726956   -2.57314499683942
C        -2.93578590546753    0.68524360689594   -1.82174271675007
C        -3.16892570171535    1.39854188911803   -0.59680120326009
C        -2.30590404592818    2.57356736222639   -0.58569502119107
C        -2.94070822228952   -0.70710921666996   -1.83470561946839
C        -1.94629932703678   -1.42312208470051   -2.59155206992043
C        -1.56655784620344   -2.59024555197937   -1.83102224722570
C        -2.33064871737171   -2.59286199742058   -0.60852849713000
C        -3.17815697222552   -1.43191747096358   -0.61387667423394
C        -0.98849397679195   -0.72509654324056   -3.31514821337474
C        -0.98908772383071    0.71725454355214   -3.30989814765019
C         0.38179589810195    1.16491189224139   -3.31569692481622
C         1.22718990884931   -0.00020315923411   -3.32012488738437
C         0.38203911349446   -1.16696813945477   -3.31688285542311
Cl       -1.95676545443897   -0.00881352789840    5.23591600847989
Cl       -3.13553120134618    3.62204674992865    2.87403931693231
Cl        4.94009677162405   -2.21849747194648    0.93262222211121
63
 energy: -142.112925791877 gnorm: 0.013715979236 xtb: 6.4.1 (a3dbbd7)
C        -1.30379723411352    0.00607842931252    3.54757848888396
C        -0.37563517653261   -1.17042432659760    3.30726652893944
C         0.97288125637461   -0.71499910118032    3.27702524086323
C         0.97238981488749    0.72148962267957    3.27535825989655
C        -0.37910623650491    1.18245062860710    3.30612465649384
C         2.32210629410565   -2.59264041397040    0.58045209012606
C         3.36666299368625   -1.50580788295600    0.61823129307223
C         2.93855542647584   -0.69190440958444    1.81239116540623
C         1.94247808933855   -1.40349246062289    2.54147822348055
C         1.56861408848286   -2.56855967013529    1.78998305898680
C         3.18233945035227    1.41376150935610    0.57292749557926
C         2.33455377524845    2.56845218214790    0.57327245479923
C         1.57079838502353    2.56295853987245    1.79776515824716
C         1.94327351460342    1.40729500771466    2.55199594561561
C         2.93341640546268    0.68361169096153    1.79912091850776
C        -0.37012125599493    3.42775325083542    0.57892632352955
C        -1.73190613801196    3.01801093060328    0.58221741055616
C        -2.09883640884703    2.46401482782384    1.94645865115927
C        -0.73560977292277    2.28727017723569    2.58358944545147
C         0.24365342242000    2.97525450923909    1.80292039768707
C        -3.37895174485416    0.70493008018340    0.57642159703390
C        -3.39418523973241   -0.72948017975161    0.56927704575656
C        -2.77351758127272   -1.16061681637331    1.79021129210207
C        -2.39575777592260    0.02610570793032    2.53460811120600
C        -2.75302641881857    1.13184119700180    1.81335119067864
C        -1.74307525233143   -3.01098629703360    0.58236714116853
C        -0.37150987961787   -3.44739576325749    0.58563397242403
C         0.24124141938949   -2.99472797524734    1.80356925642575
C        -0.73727467794327   -2.27258492849878    2.56642255514717
C        -1.97865022230435   -2.28660619816149    1.80119057807221
C        -0.24756095054751   -3.00839045680479   -1.82342086814974
C         0.74894298182940   -2.28684362278846   -2.57953377875901
C         1.96887844481878   -2.28787939560795   -1.83013599893928
C         1.72884906358248   -3.00042950083370   -0.59174582636887
C         0.36135203444861   -3.44976354696704   -0.59461023634489
C         2.78042958302011   -1.15362986860457   -1.82143523440156
C         2.40590984799215    0.00652359821211   -2.59559563489859
C         2.78651338305585    1.16817261782504   -1.84222484150798
C         3.39185328244222    0.70773522391541   -0.61273611408410
C         3.41794547401080   -0.71249652134137   -0.62880349644653
C         1.97437146121811    2.29247267915736   -1.83720876890006
C         0.74590236535790    2.29240956249590   -2.59385267195406
C        -0.24131514929955    3.00774743437122   -1.82691114168135
C         0.37078571195224    3.44330820367086   -0.60391219139301
C         1.74039106856841    3.00728677013173   -0.60877634926380
C        -1.56025097778773    2.57089594062103   -1.81185936131659
C        -1.94328010876571    1.40887923811901   -2.57474702095760
C        -2.93837930649626    0.68727427650264   -1.82206739950721
C        -3.17055024218477    1.40054605503601   -0.59745364634439
C        -2.30945251938882    2.57506330639742   -0.58660668786962
C        -2.94215346799689   -0.70509340462257   -1.83473589969039
C        -1.94928293239292   -1.42111633414742   -2.59150813127603
C        -1.56845665664442   -2.58788660238917   -1.83013963262335
C        -2.33373484176251   -2.59157344375031   -0.60798149281952
C        -3.17972705438480   -1.43027640288044   -0.61321341959789
C        -0.99063236545981   -0.72322374175213   -3.31598823558171
C        -0.99298155860649    0.71980188253019   -3.31231189599363
C         0.37783649686558    1.16821923261629   -3.32001622304011
C         1.22284039635817    0.00235847358068   -3.32192681335521
C         0.37834764174513   -1.16419346811453   -3.31917554602891
Cl       -1.95981886897384   -0.00995641579384    5.23681359295434
Cl       -3.13873912222833    3.62317542689351    2.87305102907351
Cl        5.03877319295212   -2.26232755229263    0.95258633479061
63
 energy: -142.113234699855 gnorm: 0.008160547676 xtb: 6.4.1 (a3dbbd7)
C        -1.30533542668377    0.00660554424256    3.54761162223374
C        -0.37618819552842   -1.16924122941841    3.30560269904149
C         0.97237733892931   -0.71466200567139    3.27343588481500
C         0.97093187842015    0.72091850997761    3.27314079712993
C        -0.38073617303051    1.18319282648199    3.30633648231058
C         2.33071408795412   -2.59744272622712    0.58154064700852
C         3.38644601996608   -1.51650682996176    0.62423842014135
C         2.94737960162248   -0.69524875649460    1.81451591669450
C         1.94462138639142   -1.40204389759898    2.53804821127558
C         1.57081130388299   -2.56733464045206    1.78668881174105
C         3.18421386888130    1.41474882376763    0.57367062484077
C         2.33390873545389    2.56687863660417    0.57248097935724
C         1.56910025322428    2.56075693876726    1.79591713760796
C         1.94179048562107    1.40394376811960    2.54805219991075
C         2.93700040229588    0.68091322338487    1.79931995812474
C        -0.37182678793821    3.42820617526631    0.57870843995050
C        -1.73344341307899    3.01888076137311    0.58188793470070
C        -2.10072876039360    2.46497828220347    1.94622967413656
C        -0.73731565906668    2.28751921966997    2.58327781602726
C         0.24233125196448    2.97460546473331    1.80211700414495
C        -3.38069506446939    0.70602350610330    0.57646036036078
C        -3.39605040358381   -0.72843549311265    0.56947911274945
C        -2.77545827070633   -1.15972967320121    1.79055888657755
C        -2.39766716047770    0.02692144847927    2.53482408052712
C        -2.75500403372984    1.13282373299398    1.81323003701959
C        -1.74435446170939   -3.01014221936662    0.58252811921986
C        -0.37170177707656   -3.44448292252529    0.58569371631652
C         0.24196865725070   -2.99166527886475    1.80200969703532
C        -0.73778226078843   -2.27110410644973    2.56508444702373
C        -1.97995084619540   -2.28563483895697    1.80136593057565
C        -0.24759103934916   -3.00525973001096   -1.82185936293800
C         0.74914747220512   -2.28550860111834   -2.57881278525830
C         1.96986233369615   -2.28978415807055   -1.83184257863537
C         1.73301067452754   -3.00122230132376   -0.59052609687031
C         0.36270034954075   -3.44462598400572   -0.59315516411266
C         2.78112658484913   -1.15499420745302   -1.81763839277649
C         2.40330527586622    0.00561452690546   -2.59246973175698
C         2.78348770563661    1.16630630935167   -1.83943849048364
C         3.39160663207041    0.70380621015998   -0.61010760897419
C         3.41545842674416   -0.71435638223898   -0.62512941699132
C         1.97246359225822    2.29150835562154   -1.83667962153738
C         0.74457932024187    2.29307728117856   -2.59448732070887
C        -0.24282283825705    3.00864300308086   -1.82755453620258
C         0.36964944953064    3.44333322617157   -0.60400240858779
C         1.73865130445254    3.00737998344944   -0.60883868975627
C        -1.56180403391843    2.57210824989687   -1.81254922885690
C        -1.94494291678684    1.40991206192260   -2.57555268290064
C        -2.94000417816758    0.68844721160763   -1.82230471997171
C        -3.17186754046008    1.40170476541118   -0.59770109198799
C        -2.31131234062608    2.57613394781308   -0.58710884143245
C        -2.94339713556482   -0.70396353062481   -1.83466489337495
C        -1.95083075906573   -1.42005182329228   -2.59130309172229
C        -1.56894572559665   -2.58611114070541   -1.82923749361714
C        -2.33491675269739   -2.59022214949247   -0.60756332059612
C        -3.18110636514872   -1.42916759469623   -0.61291943936464
C        -0.99187765827950   -0.72255304205478   -3.31601006137635
C        -0.99468699443339    0.72076804825262   -3.31324888272926
C         0.37645084620197    1.16894293659234   -3.32091772650578
C         1.22132094914969    0.00271828771482   -3.32102612910261
C         0.37675120704497   -1.16354881730032   -3.31938516309660
Cl       -1.96221045820896   -0.01211986188961    5.23663617995583
Cl       -3.14158956127062    3.62439164355109    2.87146444254060
Cl        5.05658722383756   -2.26770745675133    0.95183104615015
63
 energy: -142.113334278087 gnorm: 0.004702173898 xtb: 6.4.1 (a3dbbd7)
C        -1.30577421660845    0.00701272525471    3.54794366119014
C        -0.37642664270295   -1.16851081667423    3.30467598192148
C         0.97193143468833   -0.71440512868395    3.27121908643178
C         0.97032738582306    0.72088914280432    3.27214477072418
C        -0.38146687435539    1.18390091216619    3.30689829643666
C         2.33563616969928   -2.59973574745636    0.58197930211867
C         3.39452058472026   -1.52106714676602    0.62699473104565
C         2.95246513467070   -0.69698238853267    1.81529303771576
C         1.94532687660708   -1.40085074815882    2.53595575441398
C         1.57144583114872   -2.56626036273755    1.78472112730392
C         3.18560382959822    1.41623442643632    0.57439311981892
C         2.33400407626306    2.56676983842434    0.57227396752744
C         1.56836324978561    2.55954670826873    1.79492117074573
C         1.94107995332314    1.40210050820659    2.54600730347603
C         2.93892963328141    0.67990534331290    1.79938014292794
C        -0.37234168416279    3.42853968768182    0.57875496466609
C        -1.73383563493491    3.01929014261025    0.58184026203399
C        -2.10142663287745    2.46545461653758    1.94625377819301
C        -0.73796710148624    2.28771998640608    2.58329505897997
C         0.24194283603514    2.97438096151970    1.80186071544515
C        -3.38117420111274    0.70639867854007    0.57657571010270
C        -3.39680627969539   -0.72814839117747    0.56959473165622
C        -2.77633259839276   -1.15947066507497    1.79084693716374
C        -2.39814252947395    0.02717951670881    2.53492771589474
C        -2.75553292713453    1.13315512005729    1.81318112230617
C        -1.74514695518288   -3.00991680024259    0.58248003511943
C        -0.37191244137061   -3.44321648610270    0.58565087651386
C         0.24221293258292   -2.98956709008085    1.80111432618495
C        -0.73812493237990   -2.27023553829712    2.56430600473998
C        -1.98062007810188   -2.28540890057994    1.80143647504659
C        -0.24752858426722   -3.00373875542448   -1.82100015642294
C         0.74922650607311   -2.28541019183055   -2.57889100051342
C         1.97008640625434   -2.29140061190970   -1.83320420427995
C         1.73495386353906   -3.00164608748561   -0.58997960793490
C         0.36338549746881   -3.44194484547867   -0.59219276017403
C         2.78141807632113   -1.15629744021813   -1.81525120632496
C         2.40176219600867    0.00488450184865   -2.59024926222158
C         2.78168449395654    1.16503459526335   -1.83748305456037
C         3.39164735054086    0.70170342572971   -0.60804941142394
C         3.41227148871420   -0.71549086677911   -0.62188056931714
C         1.97187747860467    2.29092441000290   -1.83627824999354
C         0.74437302861125    2.29307525186092   -2.59452730880101
C        -0.24309871135068    3.00899167060978   -1.82775112142851
C         0.36948277013855    3.44342924427556   -0.60388509605573
C         1.73808148978346    3.00766871086842   -0.60863289061907
C        -1.56204376019753    2.57250672691370   -1.81278536395830
C        -1.94525341942691    1.41013102802023   -2.57585876781022
C        -2.94037772689246    0.68877833791230   -1.82234750676891
C        -3.17199156753905    1.40204054797592   -0.59770188592772
C        -2.31174932621106    2.57645226283076   -0.58723128203244
C        -2.94382649247643   -0.70365083177560   -1.83469097232249
C        -1.95147870845498   -1.41983411238237   -2.59135986551786
C        -1.56917135717338   -2.58564240306630   -1.82907339305843
C        -2.33536867671210   -2.58964952322928   -0.60749309297731
C        -3.18176619585437   -1.42879963254271   -0.61283735554526
C        -0.99228910190564   -0.72259947555696   -3.31611007428224
C        -0.99513023913358    0.72091953491036   -3.31369514904992
C         0.37620358910604    1.16893324858127   -3.32111385718904
C         1.22085953414158    0.00257405976696   -3.32048710320172
C         0.37605256051466   -1.16369075098631   -3.31958679673205
Cl       -1.96355204430659   -0.01412847599405    5.23659743114364
Cl       -3.14300295410703    3.62489325018229    2.87062865402959
Cl        5.05911396540168   -2.26587739574410    0.94743445844671
63
 energy: -142.113374938205 gnorm: 0.002463513921 xtb: 6.4.1 (a3dbbd7)
C        -1.30578739352545    0.00713154979774    3.54827995319886
C        -0.37647144000877   -1.16825995339482    3.30448757488247
C         0.97165731242055   -0.71430503121687    3.27058452028216
C         0.97022718199208    0.72104247533125    3.27220198587977
C        -0.38166872183654    1.18418670286170    3.30739780777148
C         2.33671491103411   -2.59993531227481    0.58190951418416
C         3.39690255385813   -1.52235541079261    0.62768907775440
C         2.95356481089844   -0.69729710362850    1.81514899886448
C         1.94505466853308   -1.40011691707452    2.53504902949135
C         1.57109696442015   -2.56556263169353    1.78389474833472
C         3.18616959588065    1.41725101766705    0.57485940455576
C         2.33443053606820    2.56720558478632    0.57249666114901
C         1.56833737209470    2.55925077755414    1.79481414205612
C         1.94088496456684    1.40151962711083    2.54563668427177
C         2.93907946156504    0.67979091927509    1.79934944619652
C        -0.37214470038912    3.42864299076777    0.57889027762707
C        -1.73357424959914    3.01936105216212    0.58185853085250
C        -2.10134493017460    2.46554608161156    1.94628357951465
C        -0.73795658397325    2.28769970965742    2.58338058861773
C         0.24210198444148    2.97441607040627    1.80198664105055
C        -3.38101201074271    0.70640329505607    0.57662348336380
C        -3.39679787266726   -0.72819368446011    0.56964855619982
C        -2.77645425154451   -1.15949419113223    1.79101075170195
C        -2.39802865676901    0.02718669563058    2.53495720346756
C        -2.75531929392357    1.13314238061411    1.81310493060905
C        -1.74548875086392   -3.01013123283661    0.58253578880403
C        -0.37210173898102   -3.44319270230195    0.58568305667675
C         0.24213026566296   -2.98884004664793    1.80095448749701
C        -0.73828952227013   -2.27001049091343    2.56414370252541
C        -1.98080386199014   -2.28555945082100    1.80152933478686
C        -0.24744711368231   -3.00355905300715   -1.82072499642004
C         0.74928614712402   -2.28591772753769   -2.57924434196225
C         1.96992658887152   -2.29223636238837   -1.83396417663709
C         1.73506316579802   -3.00156074339029   -0.58981902822285
C         0.36352602025858   -3.44133494080556   -0.59174721441272
C         2.78116863969159   -1.15681991443758   -1.81421441951000
C         2.40129602609126    0.00465137193468   -2.58942744124380
C         2.78110438099931    1.16456033965762   -1.83680234688747
C         3.39135676185988    0.70097994671534   -0.60704232848690
C         3.40951911384003   -0.71569654056374   -0.62013516085469
C         1.97211566620389    2.29079739101906   -1.83613742454988
C         0.74472945032041    2.29283718434248   -2.59435722344853
C        -0.24274110361515    3.00893721492730   -1.82769875263860
C         0.36986113910775    3.44345356071190   -0.60373215864208
C         1.73824444987698    3.00794806010345   -0.60837212550753
C        -1.56160748043360    2.57239919036140   -1.81276873948584
C        -1.94484698026856    1.40995553726587   -2.57585310161437
C        -2.94004200972839    0.68866959924024   -1.82230844482087
C        -3.17156391230276    1.40197006657840   -0.59767820841105
C        -2.31142870244071    2.57634752669874   -0.58721092756352
C        -2.94366218932908   -0.70375373006514   -1.83469241913028
C        -1.95143377128593   -1.42002574286191   -2.59138340920506
C        -1.56915388344423   -2.58587212476111   -1.82908457562552
C        -2.33535176815155   -2.58963783630466   -0.60741969737394
C        -3.18177963992582   -1.42883757028193   -0.61279617004511
C        -0.99211592154154   -0.72289762194456   -3.31614551643012
C        -0.99485214480947    0.72071652585628   -3.31374444444570
C         0.37653254142367    1.16867663032637   -3.32099902177809
C         1.22102845964786    0.00231419080647   -3.32042650821914
C         0.37600218945684   -1.16408936720619   -3.31976575959203
Cl       -1.96417925007155   -0.01501257121186    5.23658235977207
Cl       -3.14327682052834    3.62482984841855    2.87033998447652
Cl        5.05522297423377   -2.26147359777787    0.94233562176849
63
 energy: -142.113386824341 gnorm: 0.001330794068 xtb: 6.4.1 (a3dbbd7)
C        -1.30569928626211    0.00706293388651    3.54837560096579
C        -0.37644887919417   -1.16835224859709    3.30470130746526
C         0.97162270279631   -0.71433972694949    3.27099797396536
C         0.97034890718393    0.72113933941479    3.27261091105171
C        -0.38157738268791    1.18411657983881    3.30754448415551
C         2.33569593819692   -2.59937814924848    0.58182061035826
C         3.39669002017275   -1.52210194168313    0.62741910145871
C         2.95252490803812   -0.69693817932619    1.81493401462191
C         1.94466267835234   -1.40007939536092    2.53523713160071
C         1.57066975583801   -2.56553135020847    1.78409277510466
C         3.18608670207847    1.41737288626772    0.57498869606216
C         2.33473775979217    2.56750231814431    0.57277373941024
C         1.56861557889058    2.55951249662817    1.79514885091060
C         1.94099892662589    1.40174760899334    2.54612369647543
C         2.93852958781818    0.67998899531766    1.79941172053652
C        -0.37182875117856    3.42857664455833    0.57895517768816
C        -1.73325071488925    3.01925816719388    0.58186095299575
C        -2.10103290130338    2.46542733874696    1.94626334263101
C        -0.73771749769898    2.28759919263778    2.58341778941532
C         0.24236134295038    2.97450961979985    1.80215767821688
C        -3.38077303749897    0.70629518779965    0.57657822458630
C        -3.39653527048598   -0.72829570526860    0.56960663622299
C        -2.77625240857374   -1.15957053736645    1.79098684477088
C        -2.39784764362663    0.02712180018216    2.53492490569394
C        -2.75501829875705    1.13302577223122    1.81303202399000
C        -1.74546535706674   -3.01034823455729    0.58260675655245
C        -0.37218496871235   -3.44361863402461    0.58575583439603
C         0.24197337142224   -2.98914962911842    1.80121356262381
C        -0.73831735708552   -2.27016839732119    2.56432766319547
C        -1.98073215286270   -2.28572138990394    1.80157039748462
C        -0.24742689655058   -3.00404391183222   -1.82085111505919
C         0.74933310126340   -2.28634312198815   -2.57939598496556
C         1.96975188426703   -2.29226960750852   -1.83390188634470
C         1.73448322369088   -3.00143575311181   -0.58977401629601
C         0.36337518802250   -3.44186261585243   -0.59174488834481
C         2.78077240835075   -1.15666647717802   -1.81423226561693
C         2.40156598790899    0.00475647772089   -2.58966917894935
C         2.78138162676351    1.16468275401937   -1.83705722176516
C         3.39099733032370    0.70117724559041   -0.60703968125589
C         3.40841432166333   -0.71537691599160   -0.61997370105270
C         1.97250019044699    2.29091325271533   -1.83616417464639
C         0.74505411408171    2.29268252585474   -2.59424586587001
C        -0.24240126436321    3.00874929968525   -1.82760352685338
C         0.37020736405934    3.44339619311949   -0.60367645698281
C         1.73857375043111    3.00802495467845   -0.60825141527194
C        -1.56122881870266    2.57218481986648   -1.81268876961481
C        -1.94445898657599    1.40978149037666   -2.57575767509627
C        -2.93968829774999    0.68850923339428   -1.82229717022773
C        -3.17124589293843    1.40183198839385   -0.59770090397904
C        -2.31107285268543    2.57617020006617   -0.58717697611244
C        -2.94338103509470   -0.70390190156175   -1.83471844349348
C        -1.95116721592152   -1.42021364017895   -2.59140110399421
C        -1.56906043719667   -2.58618497992903   -1.82916777002533
C        -2.33519291721272   -2.58981480066976   -0.60740578359337
C        -3.18154346231372   -1.42896993077225   -0.61282838823851
C        -0.99181184856528   -0.72307044015382   -3.31613824999052
C        -0.99449234305086    0.72054593685058   -3.31361915621331
C         0.37685812110732    1.16851307961608   -3.32087700180481
C         1.22131579813902    0.00216264897929   -3.32057234960560
C         0.37622862883761   -1.16432320654070   -3.31980200761628
Cl       -1.96414159476400   -0.01482622835344    5.23655536396059
Cl       -3.14289086095978    3.62458703249797    2.87044120921400