156
 energy: -487.182429620157 gnorm: 10.043147930195 xtb: 6.4.1 (a3dbbd7)
C        -1.23626340000000    0.00000000000000    3.32997640000000
C        -0.38202640000000   -1.17575640000000    3.32997640000000
C         1.00015810000000   -0.72665740000000    3.32997640000000
C         1.00015810000000    0.72665740000000    3.32997640000000
C        -0.38202640000000    1.17575640000000    3.32997640000000
C         2.34433560000000   -2.60145750000000    0.59464210000000
C         3.19857260000000   -1.42570110000000    0.59464210000000
C         2.96246730000000   -0.69904370000000    1.83090550000000
C         1.96230920000000   -1.42570110000000    2.59495830000000
C         1.58028280000000   -2.60145750000000    1.83090550000000
C         3.19857260000000    1.42570110000000    0.59464210000000
C         2.34433560000000    2.60145750000000    0.59464210000000
C         1.58028280000000    2.60145750000000    1.83090550000000
C         1.96230920000000    1.42570110000000    2.59495830000000
C         2.96246730000000    0.69904370000000    1.83090550000000
C        -0.36750900000000    3.48258920000000    0.59464210000000
C        -1.74969350000000    3.03349030000000    0.59464210000000
C        -1.98579880000000    2.30683290000000    1.83090550000000
C        -0.74953540000000    2.30683290000000    2.59495830000000
C         0.25062270000000    3.03349030000000    1.83090550000000
C        -3.42570570000000    0.72665740000000    0.59464210000000
C        -3.42570570000000   -0.72665740000000    0.59464210000000
C        -2.80757400000000   -1.17575640000000    1.83090550000000
C        -2.42554760000000    0.00000000000000    2.59495830000000
C        -2.80757400000000    1.17575640000000    1.83090550000000
C        -1.74969350000000   -3.03349030000000    0.59464210000000
C        -0.36750900000000   -3.48258920000000    0.59464210000000
C         0.25062270000000   -3.03349030000000    1.83090550000000
C        -0.74953540000000   -2.30683290000000    2.59495830000000
C        -1.98579880000000   -2.30683290000000    1.83090550000000
C        -0.25062270000000   -3.03349030000000   -1.83090550000000
C         0.74953540000000   -2.30683290000000   -2.59495830000000
C         1.98579880000000   -2.30683290000000   -1.83090550000000
C         1.74969350000000   -3.03349030000000   -0.59464210000000
C         0.36750900000000   -3.48258920000000   -0.59464210000000
C         2.80757400000000   -1.17575640000000   -1.83090550000000
C         2.42554760000000    0.00000000000000   -2.59495830000000
C         2.80757400000000    1.17575640000000   -1.83090550000000
C         3.42570570000000    0.72665740000000   -0.59464210000000
C         3.42570570000000   -0.72665740000000   -0.59464210000000
C         1.98579880000000    2.30683290000000   -1.83090550000000
C         0.74953540000000    2.30683290000000   -2.59495830000000
C        -0.25062270000000    3.03349030000000   -1.83090550000000
C         0.36750900000000    3.48258920000000   -0.59464210000000
C         1.74969350000000    3.03349030000000   -0.59464210000000
C        -1.58028280000000    2.60145750000000   -1.83090550000000
C        -1.96230920000000    1.42570110000000   -2.59495830000000
C        -2.96246730000000    0.69904370000000   -1.83090550000000
C        -3.19857260000000    1.42570110000000   -0.59464210000000
C        -2.34433560000000    2.60145750000000   -0.59464210000000
C        -2.96246730000000   -0.69904370000000   -1.83090550000000
C        -1.96230920000000   -1.42570110000000   -2.59495830000000
C        -1.58028280000000   -2.60145750000000   -1.83090550000000
C        -2.34433560000000   -2.60145750000000   -0.59464210000000
C        -3.19857260000000   -1.42570110000000   -0.59464210000000
C        -1.00015810000000   -0.72665740000000   -3.32997640000000
C        -1.00015810000000    0.72665740000000   -3.32997640000000
C         0.38202640000000    1.17575640000000   -3.32997640000000
C         1.23626340000000    0.00000000000000   -3.32997640000000
C         0.38202640000000   -1.17575640000000   -3.32997640000000
C        -1.76086815247998    0.00000000000000    4.78849957557021
F        -0.76911826531252    0.00000000000000    5.67468926254662
F        -2.50968386795825   -1.06794314680471    5.04863888333743
F        -2.50968386795825    1.06794314680471    5.04863888333743
C        -0.54413818249354   -1.67468516033722    4.78849957845317
F        -0.23767107904745   -0.73147481112462    5.67468925997942
F        -1.79120914301982   -2.05683909935453    5.04863874564184
F         0.24013968171955   -2.71686350152345    5.04863903502921
C         1.42457227037960   -1.03501233722714    4.78849957248258
F         0.62223011468481   -0.45207589682711    5.67468926529602
F         1.40265511061956   -2.33913928186680    5.04863905501621
F         2.65809836182651   -0.61117154425495    5.04863869666890
C         1.42457227037960    1.03501233722714    4.78849957248258
F         0.62223011468481    0.45207589682711    5.67468926529602
F         2.65809836182651    0.61117154425495    5.04863869666891
F         1.40265511061956    2.33913928186680    5.04863905501621
C         3.37204091334889   -3.72927672645244    0.86730596148276
F         4.06564647311728   -3.51265957144659    1.98125763710228
F         4.25569947457670   -3.84739838595791   -0.11965645964809
F         2.78580317558591   -4.91533944031226    1.00324916143779
C         2.28376457660886   -3.72927671755932    2.62817408867206
F         3.59030321655004   -3.51265997057976    2.75037870097715
F         2.14318168460923   -4.91533956626619    2.04303190988612
F         1.79618325340524   -3.84739782561575    3.85992562899767
C         3.37204091334889    3.72927672645244    0.86730596148276
F         4.06564647311728    3.51265957144659    1.98125763710228
F         4.25569947457670    3.84739838595791   -0.11965645964809
F         2.78580317558591    4.91533944031226    1.00324916143779
C         2.28376457660886    3.72927671755932    2.62817408867206
F         3.59030321655004    3.51265997057976    2.75037870097715
F         2.14318168460923    4.91533956626619    2.04303190988612
F         1.79618325340524    3.84739782561575    3.85992562899767
C        -4.03961820246674   -1.67468514775899    2.62817407948106
F        -4.96930660042402   -0.73147479244129    2.75037763231441
F        -4.62303373288711   -2.71686348978894    2.04303253910982
F        -3.71458666614022   -2.05683907990832    3.85992603200073
C        -4.03961820246674    1.67468514775899    2.62817407948106
F        -4.96930660042401    0.73147479244129    2.75037763231445
F        -4.62303373288714    2.71686348978891    2.04303253910981
F        -3.71458666614023    2.05683907990836    3.85992603200072
C         0.34440953624153   -4.35941144868709    2.62817404748705
F        -0.83992598883967   -4.95213069234126    2.75037577510431
F         1.15529636597892   -5.23632261667420    2.04303359185445
F         0.80829780400759   -4.16837989546168    3.85992670963205
C        -2.84103082519036   -3.32439911178427    2.62817407941587
F        -2.23127406184888   -4.50005340761388    2.75037746012491
F        -4.01248672303644   -3.55720929213525    2.04303264409737
F        -3.10404037880940   -2.89718378306488    3.85992609894427
C         1.08016271022039   -3.32439912180418   -3.71645041587937
F         1.46215754230406   -4.50005299330749   -3.22571838851551
F         0.03290491502765   -3.55721032900471   -4.50254840736000
F         2.06425285383526   -2.89718320022386   -4.50255037491024
C         2.84103082519036   -3.32439911178427   -2.62817407941587
F         2.23127406184888   -4.50005340761388   -2.75037746012495
F         3.10404037880944   -2.89718378306489   -3.85992609894426
F         4.01248672303643   -3.55720929213529   -2.04303264409737
C         0.53602450593361   -4.99908416128281   -0.86730591619822
F         1.22448605650957   -5.23152837615597   -1.98125850960180
F        -0.63540201352706   -5.61404743764837   -1.00324736766175
F         1.18149064144157   -5.61404773804446    0.11965571789346
C         4.03961820246674   -1.67468514775899   -2.62817407948106
F         4.96930660042401   -0.73147479244129   -2.75037763231445
F         3.71458666614023   -2.05683907990836   -3.85992603200072
F         4.62303373288714   -2.71686348978891   -2.04303253910981
C         3.49548004549360    0.00000000000000   -3.71645041414084
F         4.73163621497510    0.00000000000000   -3.22571838476757
F         3.39327517264965   -1.06794314680471   -4.50254938956302
F         3.39327517264965    1.06794314680471   -4.50254938956303
C        -0.34440953624153    4.35941144868709   -2.62817404748705
F         0.83992598883967    4.95213069234126   -2.75037577510431
F        -0.80829780400759    4.16837989546168   -3.85992670963205
F        -1.15529636597892    5.23632261667420   -2.04303359185445
C         2.50473491433418    4.35941144902977   -0.86730593917895
F         2.08438487052912    4.95213043104453   -1.98125838386969
F         3.81390519137296    4.16837996597314   -1.00324768478856
F         2.34400857369757    5.23632280881804    0.11965581818547
C        -2.28376457660886    3.72927671755932   -2.62817408867206
F        -3.59030321655004    3.51265997057978   -2.75037870097715
F        -1.79618325340527    3.84739782561575   -3.85992562899768
F        -2.14318168460923    4.91533956626621   -2.04303190988614
C        -2.82790274436383    2.05459160758554   -3.71645040671519
F        -3.82797483682855    2.78118494419178   -3.22571836876305
F        -2.11749631416700    2.85850222732984   -4.50254863174647
F        -3.37293748548841    1.13053297859378   -4.50255013394648
C        -2.82790274436383   -2.05459160758554   -3.71645040671519
F        -3.82797483682855   -2.78118494419178   -3.22571836876305
F        -3.37293748548841   -1.13053297859378   -4.50255013394648
F        -2.11749631416700   -2.85850222732984   -4.50254863174647
C        -2.28376457660886   -3.72927671755932   -2.62817408867206
F        -3.59030321655004   -3.51265997057978   -2.75037870097715
F        -1.79618325340527   -3.84739782561575   -3.85992562899768
F        -2.14318168460923   -4.91533956626621   -2.04303190988614
C        -1.42457227037960   -1.03501233722714   -4.78849957248258
F        -0.62223011468481   -0.45207589682711   -5.67468926529602
F        -2.65809836182651   -0.61117154425495   -5.04863869666891
F        -1.40265511061956   -2.33913928186680   -5.04863905501621
156
 energy: -494.615340141744 gnorm: 7.759463932433 xtb: 6.4.1 (a3dbbd7)
C        -1.23629364337912    0.00113949319406    3.32564707676199
C        -0.38239126727349   -1.17758200762581    3.32289958852010
C         1.00165156854343   -0.72795721515692    3.32284480216535
C         0.99928740771388    0.72820609328718    3.32559492978451
C        -0.38222818411812    1.17637170423736    3.33252567670890
C         2.34316561533711   -2.59630439606513    0.59146233891235
C         3.20007598508898   -1.42616880397866    0.59739663981672
C         2.96259589973440   -0.69743019943093    1.82973181540384
C         1.96472551064086   -1.42691606798561    2.59267033962813
C         1.57888853091967   -2.59353620189862    1.82797740469771
C         3.19973713048819    1.42579082488558    0.59586238415770
C         2.34257665505728    2.59414490065287    0.59428149162996
C         1.57657186906375    2.59854382964199    1.83090273146951
C         1.96498009789110    1.42617953680466    2.59393079941376
C         2.96226310230789    0.69770118492471    1.83036385205701
C        -0.36995960821894    3.48281759242176    0.59690453798466
C        -1.74727084600965    3.03324280855657    0.59666784954447
C        -1.98130896231411    2.30945015056549    1.83164790080190
C        -0.75080104391145    2.30819336134374    2.59111794960841
C         0.24634712418455    3.03392133821908    1.83143029646071
C        -3.42553070097999    0.72637407373752    0.59172494211143
C        -3.42642270724693   -0.72609739043623    0.59388576365022
C        -2.80601567373876   -1.17052190848304    1.82702404880042
C        -2.42657537760041   -0.00075875465081    2.59352166837432
C        -2.81051893450262    1.17651894805634    1.83053659524949
C        -1.74943488450676   -3.03391722419998    0.59521595544870
C        -0.36929935722586   -3.48385970201003    0.59621477636961
C         0.24541273639155   -3.02899029809126    1.82663718457813
C        -0.75016379863128   -2.30822290882867    2.59279913927736
C        -1.98032461119366   -2.30670707272312    1.82643322915065
C        -0.24923824543761   -3.03403790539483   -1.83156725134107
C         0.74567188355211   -2.30414159046554   -2.59306714489897
C         1.98119931213442   -2.30425164438548   -1.82539631749791
C         1.74951977726869   -3.03372912879631   -0.59647580940157
C         0.36783483735309   -3.48191649913598   -0.59498412181597
C         2.80293862197186   -1.17040703038344   -1.82366067146991
C         2.42160772848180    0.00181831998457   -2.59325227072813
C         2.80964736396837    1.17603076703188   -1.82879239324074
C         3.42628084607241    0.72684630049890   -0.59707683207387
C         3.42599275800654   -0.72539187860066   -0.59626956679724
C         1.98525098395795    2.30731946994086   -1.83173409670430
C         0.75071966289622    2.30630558250192   -2.59591882160847
C        -0.24494072898683    3.02885637307626   -1.82770854826985
C         0.36773979128728    3.48309156561420   -0.59505328286488
C         1.74392175585974    3.02835162164433   -0.59837571229942
C        -1.58002345262798    2.59612552432264   -1.82470788937296
C        -1.96075651704592    1.42069242696176   -2.59195940201413
C        -2.96459877762705    0.70148349442125   -1.83035127723719
C        -3.19724282526689    1.42464047833315   -0.59416998357357
C        -2.34630742235038    2.60226893576699   -0.59461170506871
C        -2.96385406942326   -0.70152623797913   -1.83148439396729
C        -1.96143539675869   -1.42127806959998   -2.58718757806426
C        -1.57834739134954   -2.60017707019887   -1.82622199257265
C        -2.34713526124789   -2.60089325783621   -0.59417282335189
C        -3.19738893261248   -1.42691986513587   -0.59464315275546
C        -0.99487972026768   -0.72261380498951   -3.32590461021433
C        -0.99768279500228    0.72670283725262   -3.33054613743042
C         0.38262015718527    1.17439832053964   -3.33086939641758
C         1.23365884762208    0.00225014280088   -3.33046170028205
C         0.38192407819329   -1.17437309427005   -3.33112613048784
C        -1.78233352755647    0.00565365000233    4.76244858994601
F        -0.80322686337355    0.04170482447332    5.70300977923128
F        -2.55999900234271   -1.00943002482665    5.05291663393572
F        -2.50899301403882    1.07042933416587    5.05371625070747
C        -0.55188958464064   -1.70249857167430    4.75320142976536
F        -0.26652168807810   -0.77070312444968    5.71804940662491
F        -1.75076511246163   -2.12000454472991    5.05302341272267
F         0.17008478979792   -2.74575940356181    5.05332266058136
C         1.44627455403538   -1.05178697864093    4.75455109491669
F         0.66546538690587   -0.46806347904581    5.71697892957861
F         1.47627327991364   -2.32154992555859    5.05353598865024
F         2.66325769558520   -0.68539629500239    5.05095354370119
C         1.44465417075606    1.04531914293825    4.76281213560432
F         0.62691419524701    0.51044567892314    5.70247274497993
F         2.66681440894199    0.68737806697240    5.05088779625955
F         1.40077399464312    2.34097307229003    5.05374164615503
C         3.35794891292024   -3.72763092171021    0.85940799484348
F         4.11032931224928   -3.50931562827718    1.94866339345464
F         4.26259425936506   -3.84921333545570   -0.11970352475189
F         2.82826302536048   -4.92552152627911    0.93442081315753
C         2.25305496918998   -3.72204865263411    2.59842233330859
F         3.59850556684387   -3.50788862905822    2.81099522418462
F         2.14164768269830   -4.92224713053315    2.10016908762535
F         1.83283286897039   -3.83666522835106    3.89110954976141
C         3.33177734808998    3.72173683756677    0.85233642013987
F         4.12313478650561    3.50863662749040    1.96086383402637
F         4.30218535347189    3.83326784865171   -0.10132541805852
F         2.83842704015814    4.92053706620700    0.97813540191181
C         2.26908728478206    3.72805948596805    2.62198798116496
F         3.57984465999605    3.50986464287152    2.80464699644381
F         2.09804492043864    4.92505795510486    2.11076626076511
F         1.79703202809589    3.85087406347929    3.86305073967467
C        -4.03249604894111   -1.66428341476115    2.61674144030580
F        -4.97400225214260   -0.75877110476348    2.75235341469264
F        -4.65896716998329   -2.69627788750688    2.03364355254344
F        -3.73792084883049   -2.02837805603575    3.88033726957745
C        -4.03799907726483    1.67606512678943    2.62716513409821
F        -4.97254691469669    0.75894389104801    2.75145692327972
F        -4.62441438124127    2.71883868622208    2.04264550846233
F        -3.71696471292160    2.05936550473015    3.86020344858328
C         0.33710850906464   -4.34604478412695    2.61875950484837
F        -0.81573509141966   -4.96548102593851    2.75245867196413
F         1.12783089862765   -5.26747059421119    2.03464849986899
F         0.77316087379214   -4.18105121686000    3.88316604810838
C        -2.83032468033305   -3.31866218726996    2.61577429086811
F        -2.25826613750530   -4.49783703072362    2.75304874149344
F        -4.00396324922768   -3.59860537017666    2.03240178161141
F        -3.08362773550463   -2.92794459891345    3.88235753833221
C         1.08029791669233   -3.30719009892446   -3.71452361535206
F         1.42527985186551   -4.51131760891758   -3.26262910941405
F         0.03293525280018   -3.56246574104919   -4.50755516102129
F         2.00001708681109   -2.89299319055136   -4.55449731449038
C         2.83044814443297   -3.28535963582263   -2.62834073916294
F         2.27785845117116   -4.52721405490035   -2.73554677941695
F         3.14395246376966   -2.93638602561051   -3.83597211364515
F         4.00825768544314   -3.61069905643798   -2.03002769457816
C         0.53264414996718   -4.99742769295003   -0.86462067953916
F         1.21090945011756   -5.25386669642566   -1.96006150367266
F        -0.63424463328148   -5.61718437755450   -1.00162733384322
F         1.18071982713921   -5.61859659524144    0.11739359744634
C         4.00016709686736   -1.67794634836524   -2.62488421821512
F         5.01792687680812   -0.75562839692369   -2.72174374564057
F         3.76494914766311   -2.08387452677747   -3.83935782345701
F         4.67138789352585   -2.69449026142573   -2.02801971638868
C         3.47861605613503    0.00203464612494   -3.71648768595820
F         4.73815005258213    0.04622218577534   -3.25016302309212
F         3.36970733961098   -1.00815000184622   -4.55431143012835
F         3.39526094675724    1.07227354079429   -4.50564542675059
C        -0.33623179234073    4.34591785951370   -2.61804720351095
F         0.81817153897595    4.95615976567245   -2.76744872760222
F        -0.77317804269386    4.17982993110448   -3.88542263171950
F        -1.12655823872426    5.26784596413901   -2.03100676071784
C         2.49336818728517    4.34512572344315   -0.87140544536440
F         2.10916110834881    4.95639462287319   -1.96982140879710
F         3.81813996118499    4.17941905084652   -1.04682385106825
F         2.32130408972533    5.26883151277772    0.09770144091754
C        -2.24797454697128    3.70583409707961   -2.62667591282318
F        -3.61506959227078    3.56057541015034   -2.72154034956184
F        -1.81078747490913    3.89986612854865   -3.83902996435469
F        -2.18816484582560    4.93110076914250   -2.02662203854446
C        -2.81224561220841    2.04880718942988   -3.71428404338593
F        -3.86194110251792    2.74466337094616   -3.24982557366792
F        -2.13425526469046    2.79708460131491   -4.55450450639712
F        -3.37922442757451    1.13007280779209   -4.50615451569078
C        -2.78828264304069   -2.04407834858635   -3.70550249065295
F        -3.87796014261369   -2.75241553256301   -3.24697481302844
F        -3.42261126488629   -1.13094573008481   -4.49628794464875
F        -2.15605735477562   -2.83150854055796   -4.53595366370591
C        -2.26844392938292   -3.72456955345537   -2.62549879965905
F        -3.59669850202676   -3.55879137806846   -2.72068274524402
F        -1.77308062298186   -3.91779070724000   -3.82506682778826
F        -2.14723231270532   -4.91917606892303   -2.04327149455887
C        -1.41454490212878   -1.02507469250064   -4.77642212941380
F        -0.62135027868755   -0.45165310114935   -5.67881932005394
F        -2.64693144292406   -0.58352432396240   -5.07774220650036
F        -1.37405133372754   -2.33963653217210   -5.07923796574975
156
 energy: -501.568194694313 gnorm: 7.038790455282 xtb: 6.4.1 (a3dbbd7)
C        -1.23608585391204    0.00372331038450    3.32342231321781
C        -0.38287555298270   -1.17986392028928    3.32030780764315
C         1.00357712333532   -0.72950257171367    3.31976965833485
C         0.99756283177669    0.72998030449081    3.32323367191739
C        -0.38240963284069    1.17777633145776    3.33382899044389
C         2.34373060553224   -2.59112099846923    0.58859336752952
C         3.20220438942355   -1.42670252434250    0.60015069002960
C         2.96190297697613   -0.69476646310694    1.82809592653546
C         1.96812077470653   -1.42781012731771    2.59006304383800
C         1.58028845379008   -2.59009761725497    1.82880508657708
C         3.20159103466821    1.42476965142232    0.59595824475603
C         2.34395372785680    2.59024301918092    0.59481612794274
C         1.57377318548373    2.59539938204318    1.83322910119060
C         1.96810103503756    1.42658471680933    2.59330274655975
C         2.96220627275142    0.69510133228531    1.83008450290827
C        -0.37194971569085    3.48081266060939    0.59854330682492
C        -1.74495185048384    3.03239847669635    0.59890649236272
C        -1.97573333700914    2.31332498754057    1.82987920653606
C        -0.75202952870646    2.30869782369617    2.58634147948228
C         0.24157891921217    3.03474128594201    1.83128638712645
C        -3.42500253476800    0.72605221794326    0.58807238679991
C        -3.42714782634354   -0.72520569363896    0.59170159388923
C        -2.80778228958795   -1.16692103999239    1.82611733195685
C        -2.42723469800199   -0.00147877387598    2.59240554390391
C        -2.81511771925935    1.17788295582486    1.83306037917885
C        -1.74819180430387   -3.03387376905852    0.59395727236996
C        -0.37239263472307   -3.48313733920782    0.59807932305297
C         0.23880949365406   -3.02784999951420    1.82362423245609
C        -0.75097765454043   -2.30943415829579    2.59002930058958
C        -1.97749384830407   -2.30901518111619    1.82455309113283
C        -0.24807282633158   -3.03464004240995   -1.83167792243562
C         0.74083182440930   -2.30071362079582   -2.59090484871448
C         1.97695360429574   -2.30414923266548   -1.82069197021044
C         1.74928352784710   -3.03381639188277   -0.59817573223350
C         0.36828000957269   -3.48379133834390   -0.59578844700694
C         2.80114524208498   -1.16569049610206   -1.81714208866573
C         2.41900510290092    0.00620282433276   -2.59246866391038
C         2.81193639106479    1.17674574534116   -1.82620119935180
C         3.42339257264762    0.72634980611208   -0.59846445815917
C         3.42778319093325   -0.72273777509041   -0.59767414940292
C         1.98363669569110    2.30666192650096   -1.83305647144072
C         0.75300267514212    2.30454154730773   -2.59664857148011
C        -0.23850732686450    3.02834747821034   -1.82565357937403
C         0.36677622723822    3.48407069236557   -0.59440347315152
C         1.73979721292801    3.02654287213758   -0.60365059332614
C        -1.58255868763240    2.59480101179134   -1.82155831810250
C        -1.96074762911223    1.41572529779616   -2.58982730243480
C        -2.96679307810958    0.70295228259654   -1.82982390132973
C        -3.19570607778024    1.42370851098098   -0.59241849274325
C        -2.34867465897178    2.60188483618690   -0.59392645640064
C        -2.96554983185570   -0.70347233450060   -1.82946304895240
C        -1.96406856152404   -1.42006240770229   -2.58433228230902
C        -1.57777439055057   -2.60089131325553   -1.82250399869642
C        -2.34987547541494   -2.59937805819459   -0.59319616524684
C        -3.19515497858377   -1.42710183076515   -0.59472266254529
C        -0.98952531805392   -0.71844451864109   -3.32621337831406
C        -0.99434120424820    0.72746873656979   -3.33232854760265
C         0.38314665685652    1.17293435352257   -3.32753348082765
C         1.23095892139285    0.00510349304173   -3.33240640077516
C         0.38291028929012   -1.17345185801492   -3.33288146278074
C        -1.80004062169900    0.00203479384671    4.74178255489002
F        -0.84127010159728    0.09958668013794    5.72333148981516
F        -2.58719291646516   -0.97399856594743    5.05873023355012
F        -2.50645398574774    1.07039399639894    5.05788241544184
C        -0.55502531546316   -1.72536290183126    4.71836678100179
F        -0.33997908456363   -0.83966624049746    5.75872362738262
F        -1.72617792954426   -2.15479389412397    5.05861243049410
F         0.12882196506003   -2.76165985566844    5.05809780164236
C         1.46320783787220   -1.06822211790911    4.71983663307931
F         0.76702424841617   -0.48152139229565    5.75699593918763
F         1.51937115891166   -2.31039684256487    5.05815175064874
F         2.66739255125358   -0.72813364375622    5.05396990867702
C         1.45972562309339    1.05324326116733    4.74218560988514
F         0.62309981610225    0.58027698480670    5.72333146754611
F         2.67096844777442    0.73281285677552    5.05390503392290
F         1.39869537775976    2.34034746380614    5.05821056635801
C         3.34525551432444   -3.72668385450325    0.85256740073732
F         4.14115268797230   -3.50713376839285    1.92913227072169
F         4.26705511915179   -3.85056639632663   -0.11652497576240
F         2.85631585342106   -4.93125103253351    0.89130827547821
C         2.21694382954484   -3.72094553959774    2.56878183336267
F         3.62434315697479   -3.50112083440058    2.85959057016468
F         2.16319997168416   -4.91543030557352    2.14880709113456
F         1.90864008540508   -3.81883557024789    3.90470378283384
C         3.29131844633322    3.71981299596628    0.83314434110383
F         4.17650267624968    3.50241459751329    1.95982951578473
F         4.35121384382612    3.81146811957577   -0.04204358450141
F         2.89308827133316    4.91383995024135    0.97826854858392
C         2.25499478283263    3.72717548767715    2.61604352347788
F         3.57574321837614    3.50809580149802    2.84101436344888
F         2.06917798772578    4.93131652190535    2.15230484665147
F         1.79858191914968    3.85444638297795    3.86348612881329
C        -4.02999901209466   -1.65660721163079    2.61111793059460
F        -4.97846081023192   -0.78495253509168    2.75385835422771
F        -4.71418935371200   -2.63416723452886    2.03093590770680
F        -3.78653667056763   -1.97009133963084    3.88701798274926
C        -4.03680481854734    1.67700149312376    2.62621763850901
F        -4.97570591732968    0.78582687842839    2.75240888468848
F        -4.62574374443403    2.72101426964290    2.04213053404392
F        -3.71952577366642    2.06230284465567    3.86009968553947
C         0.33273300761653   -4.32850041304492    2.61164252593241
F        -0.79203602865954   -4.97968156943704    2.75437419601986
F         1.08798239688619   -5.30476819619950    2.02090221159268
F         0.70086270629190   -4.20696895304675    3.90276144223234
C        -2.82389263192235   -3.31693760641611    2.60923125184533
F        -2.28433228656814   -4.49521306162958    2.75512532067081
F        -3.96151934034580   -3.67059574988695    2.02863163863108
F        -3.04246452168890   -2.99220590381518    3.89072414549426
C         1.07936724912061   -3.29273581247614   -3.71411268867877
F         1.40332964621707   -4.51845504040763   -3.29307948830769
F         0.03724198184168   -3.56669056444309   -4.51000744397769
F         1.95911611174004   -2.88921884098194   -4.58853768197579
C         2.82533980107194   -3.24246375818716   -2.62520137084492
F         2.31279341233326   -4.55794653375812   -2.73101181666081
F         3.16446203921119   -2.97796987286580   -3.82310374570170
F         3.97165439270070   -3.69252985193387   -2.02682436591054
C         0.52901764607000   -4.99608278142636   -0.86169350151974
F         1.19581646070478   -5.27649981291756   -1.93767102878432
F        -0.63280730282979   -5.62053434327382   -0.99974537953194
F         1.17925711377563   -5.62337688501137    0.11394428813489
C         3.95879271001464   -1.69106449360928   -2.61919192437199
F         5.06817293869679   -0.76107981655481   -2.70230255996139
F         3.81216746833835   -2.09240412708349   -3.82852009238394
F         4.73298956255468   -2.63068551730733   -2.02317914350558
C         3.46334272223597   -0.00089794647431   -3.71770894320326
F         4.74406485137804    0.08028712115345   -3.26647473959821
F         3.35367902957878   -0.97033984161955   -4.58819876630338
F         3.39663060154203    1.07350792570361   -4.50647050450827
C        -0.33269348988542    4.33311546768391   -2.60158853230807
F         0.79734158617176    4.96086422494822   -2.78545326517175
F        -0.72224897484650    4.19024111153861   -3.91825993751750
F        -1.06220380762970    5.30737445325494   -2.01967473093008