63
 energy: -142.065330800175 gnorm: 0.139515520346 xtb: 6.4.1 (a3dbbd7)
C        -1.32333194775417    0.00617886347970    3.59125188963251
C        -0.38909456310608   -1.27772716531095    3.58793274117145
C         0.98734837171535   -0.72675165446744    3.28582848483634
C         0.97037352147027    0.69420630050098    3.25749094477592
C        -0.37633960723915    1.14742685553706    3.29074190055216
C         2.33092254703306   -2.58746567485154    0.56610397604514
C         3.16875994483946   -1.41579758165486    0.56774606192583
C         2.91978889080344   -0.69314490348597    1.79074016083681
C         1.93018806170321   -1.40549148670748    2.54814074589443
C         1.57476788296703   -2.59634073810083    1.79100274817011
C         3.18328087896891    1.41909085132624    0.57258499213333
C         2.33432229320876    2.58580968143883    0.57559918777772
C         1.57332139543398    2.57095369604789    1.79851755002390
C         1.94352282881158    1.40414426944103    2.54285112768194
C         2.93804115459266    0.69543633516321    1.79366637265872
C        -0.36752716666001    3.44413435035873    0.58029879258012
C        -1.74013210357057    3.00741588983283    0.58054459941955
C        -1.97818665379860    2.28654468588757    1.80361199533287
C        -0.73393250395930    2.25581684802015    2.55761528373596
C         0.24647420110131    2.98080949443068    1.80023381740862
C        -3.39591089216029    0.72883802558845    0.57533866561121
C        -3.37932885665645   -0.70504006359254    0.57786353554246
C        -2.74934612856665   -1.12865052488571    1.82052481704193
C        -2.40026274086307   -0.01382700939334    2.55826017594831
C        -2.77435746218519    1.16021035149421    1.80187148511327
C        -1.70577977915925   -3.00504292266898    0.57191390059864
C        -0.34657433486683   -3.46193150719564    0.56452064530943
C         0.25810980605866   -3.00738238851431    1.79111395103090
C        -0.74203335365356   -2.29289841924391    2.55243835495534
C        -1.91196172287597   -2.27950749485726    1.81757326885181
C        -0.23558165862281   -3.01371296632646   -1.83961821271520
C         0.75175047781152   -2.28700579367404   -2.59867644532734
C         1.98089777627659   -2.28868303835222   -1.84308617931945
C         1.74918768154887   -3.01946296828987   -0.62050040464920
C         0.38088379041600   -3.46658963937948   -0.62079308111870
C         2.79204993046375   -1.16413556659148   -1.83875967224219
C         2.41002754086118    0.00666527739579   -2.59106683151125
C         2.78807241943814    1.16926264052202   -1.83130610074559
C         3.40298548527550    0.72369088805355   -0.60835037131266
C         3.40110069057525   -0.71955382898331   -0.60923004493565
C         1.96912615256614    2.29475463280888   -1.82840259178522
C         0.74474441569639    2.29528025280401   -2.58515694980539
C        -0.24988429155059    3.01642431380723   -1.82795956514323
C         0.36353023978106    3.45499162487799   -0.59844520421847
C         1.73735095077191    3.01278425815446   -0.60243935985793
C        -1.56944867307335    2.59059487249377   -1.83048045584010
C        -1.94787757007795    1.42311330884846   -2.58910001301826
C        -2.94122296022124    0.70465889669871   -1.83002690890673
C        -3.17947337159538    1.42642572884929   -0.60816005298080
C        -2.33307692209202    2.59081264516620   -0.60600270171083
C        -2.93172079240255   -0.68656028280689   -1.82266620418654
C        -1.94059925011627   -1.40887980593779   -2.58138532694875
C        -1.55636984787224   -2.57670213587000   -1.82754179967090
C        -2.29848528094837   -2.57416283302738   -0.59738768824741
C        -3.15456863482430   -1.39758782868201   -0.59434922362650
C        -0.98936986995949   -0.71482485845558   -3.31408037280858
C        -0.99159024528376    0.72723605185279   -3.31429029098428
C         0.38014149579772    1.17201579903766   -3.31523274930469
C         1.22728121177112    0.00778684511203   -3.31823795360647
C         0.38205649969615   -1.16057927312445   -3.31917058806611
Cl       -2.09995733548554    0.29360223981566    5.20530702406437
Cl       -0.35034641589922   -2.11046483688082    5.19906768498811
Cl        3.65603340061386    0.01298279910788   -3.90389945084298
63
 energy: -142.089588414224 gnorm: 0.061398695804 xtb: 6.4.1 (a3dbbd7)
C        -1.32363672396616    0.00614932719490    3.59116825981603
C        -0.38948335868007   -1.27790341463153    3.58895961036503
C         0.98698058824594   -0.72652724555028    3.28871956029040
C         0.97001895035590    0.69457636802827    3.26046559239002
C        -0.37669896571163    1.14757172117206    3.29153252439278
C         2.33361067855715   -2.59080756868547    0.57435417382438
C         3.16782787592103   -1.41913634495372    0.57615674396776
C         2.92063048427662   -0.69269832419618    1.79694740524096
C         1.93056257594037   -1.40558050284634    2.55282091762514
C         1.57629271856081   -2.59714474209640    1.79613563314781
C         3.18324598256808    1.42355650956561    0.58132518109997
C         2.33716663282831    2.58923471329498    0.58340506096339
C         1.57411447128232    2.57232316979942    1.80392051666576
C         1.94367297430850    1.40510390255064    2.54791261006170
C         2.93873982448764    0.69613825785577    1.79983675090513
C        -0.36720072710153    3.44311346461707    0.58213084566736
C        -1.74085509691515    3.00761276284834    0.58238004683294
C        -1.97818375999608    2.28730365353022    1.80300092216578
C        -0.73344376194727    2.25598362432522    2.55815284291840
C         0.24703881839219    2.98142295850087    1.80292072481720
C        -3.39624692880322    0.72797544165182    0.57568303149991
C        -3.38069208411116   -0.70637832764963    0.57776596893692
C        -2.74960274643160   -1.12968003210432    1.81884628223571
C        -2.39940132944887   -0.01346466146135    2.55670854285708
C        -2.77427756056896    1.15954929270431    1.80232864174838
C        -1.70770832686890   -3.00536307191739    0.57265023974379
C        -0.34715349929918   -3.45953274791023    0.56577151718670
C         0.25789102468563   -3.00614932246416    1.79383926774967
C        -0.74095548117810   -2.29280121641140    2.55284296512763
C        -1.91259202282627   -2.27949998084164    1.81498378561655
C        -0.23708653905363   -3.01165189073508   -1.83899170271819
C         0.74457855265373   -2.28592611187286   -2.59407408248895
C         1.97444029547227   -2.28530888129725   -1.82878116915691
C         1.74998129927130   -3.02356807939973   -0.61395544920121
C         0.38041501703064   -3.46460374371637   -0.61803337390248
C         2.78702963577422   -1.16995358948962   -1.82273157176685
C         2.48499505162466    0.00656208790533   -2.66758205128125
C         2.78393240956747    1.17550892177251   -1.81507902806854
C         3.39365245593106    0.72481603938922   -0.60136716685242
C         3.39151437688715   -0.72000217784139   -0.60222603558364
C         1.96359074104861    2.29090838396326   -1.81449346501368
C         0.73863773724622    2.29467889636640   -2.58068087344591
C        -0.25019047008938    3.01432093743270   -1.82671493894766
C         0.36368410195846    3.45368532584157   -0.59552957888969
C         1.73835156001512    3.01626477619867   -0.59536331155258
C        -1.57476339787280    2.59041154521167   -1.82905161128682
C        -1.95739675226596    1.42360903024012   -2.58887965881073
C        -2.94862788222766    0.70405589056309   -1.82954287407762
C        -3.18191634749886    1.42578545168393   -0.60699182227126
C        -2.33445362757515    2.59042613063892   -0.60630337605529
C        -2.93941732436720   -0.68709417448683   -1.82274600350829
C        -1.95083478911282   -1.41006273879509   -2.58256502192658
C        -1.56247213931385   -2.57683860349986   -1.82729310552421
C        -2.30173754718428   -2.57466612101333   -0.59920808273889
C        -3.15846261218631   -1.39912414656324   -0.59471816436200
C        -1.00469651864491   -0.71429233439349   -3.31623608177051
C        -1.00639586756101    0.72622837615453   -3.31561645757162
C         0.36834544734502    1.16489887723087   -3.30772096454656
C         1.20778471306785    0.00767964848524   -3.33550394418589
C         0.36970586881552   -1.15384135235124   -3.31176106518925
Cl       -2.10076808553900    0.29413952826766    5.20459985741427
Cl       -0.35042095841886   -2.11036332356867    5.20022577625562
Cl        3.76210936961463    0.01256414040030   -4.00625568062287
63
 energy: -142.095766271188 gnorm: 0.014637623926 xtb: 6.4.1 (a3dbbd7)
C        -1.32531941506583    0.00635575468011    3.59261177736833
C        -0.39108653396082   -1.27714848716750    3.59077111367458
C         0.98606741922452   -0.72594325016898    3.29351084510415
C         0.96922877300845    0.69499891401495    3.26534218065917
C        -0.37782301658396    1.14760445531484    3.29418288108249
C         2.33240473349801   -2.58786310867504    0.57934855557666
C         3.16390032070330   -1.41856038239285    0.57838517159898
C         2.91959440921257   -0.69186368602597    1.80043664742409
C         1.93007349011959   -1.40495839873765    2.55772165025340
C         1.57660498663813   -2.59691737700652    1.80128484173092
C         3.17946278929734    1.42380597940165    0.58355240085511
C         2.33621928026701    2.58699006921273    0.58785791990931
C         1.57434597194934    2.57326054328521    1.80922485363349
C         1.94325455717279    1.40544183227764    2.55298901392078
C         2.93751753311709    0.69630913552138    1.80326722226609
C        -0.36777410745256    3.44143783127909    0.58450602572642
C        -1.74251398756643    3.00690351725655    0.58582061960465
C        -1.97879989652136    2.28703104876789    1.80375053459932
C        -0.73369936308355    2.25566759350075    2.56033873250826
C         0.24676989180238    2.98148150086028    1.80652462889085
C        -3.39851924069796    0.72731465129818    0.57767855702513
C        -3.38384892500248   -0.70754440833937    0.57939819179519
C        -2.75175105249234   -1.13069316676782    1.81912351852728
C        -2.39978990229908   -0.01310278472429    2.55683507922485
C        -2.77540174708631    1.15833851043765    1.80445204952793
C        -1.71091623445956   -3.00490389881049    0.57537968383556
C        -0.34883006868443   -3.45643756905968    0.56778008154657
C         0.25629289931039   -3.00401685114264    1.79740136637662
C        -0.74115658348217   -2.29156953241594    2.55403748804795
C        -1.91522921354831   -2.27920845490149    1.81405063246986
C        -0.23756826302124   -3.00624409491650   -1.83819068875172
C         0.74152868259653   -2.28675272718224   -2.59355658779451
C         1.97508972021040   -2.27846030360773   -1.82517480861749
C         1.74699809044165   -3.01544189273957   -0.61119518253776
C         0.37855400323211   -3.45926283761255   -0.61486737246585
C         2.79002403809200   -1.17188172501013   -1.82300043049575
C         2.55385158619863    0.00648968942987   -2.73456316775894
C         2.78691344299254    1.17777483534455   -1.81498129059893
C         3.38235834874577    0.72495510668039   -0.60405562161125
C         3.37998265197618   -0.71964769162991   -0.60480022542388
C         1.96437355455878    2.28393524149995   -1.81108553833493
C         0.73591718876855    2.29552828042344   -2.58019941180022
C        -0.24974727430585    3.00865041373368   -1.82553152808520
C         0.36262896747623    3.44938782308928   -0.59267151948193
C         1.73579096024123    3.00897120658562   -0.59268067797825
C        -1.57949518401193    2.58922203910480   -1.82565149510724
C        -1.96222518986948    1.42233016307541   -2.58551706176619
C        -2.95591047339549    0.70348163989910   -1.82822294931990
C        -3.18588769330725    1.42499939638254   -0.60437854365854
C        -2.33602844732128    2.58917683965067   -0.60497209219593
C        -2.94740169366865   -0.68796826406210   -1.82211368441994
C        -1.95636149764133   -1.41004169307033   -2.58033219614000
C        -1.56816536380630   -2.57686869273354   -1.82514531522287
C        -2.30526538727560   -2.57453286213250   -0.59922778734238
C        -3.16409587752677   -1.40040885902099   -0.59357438936663
C        -1.00877423337820   -0.71353108819849   -3.31100218384239
C        -1.01022697906251    0.72456130745503   -3.30982690714161
C         0.36910815896568    1.15689008134786   -3.29953920352395
C         1.20071949478257    0.00756541084851   -3.33277989851020
C         0.37031528367312   -1.14656888006128   -3.30372668644035
Cl       -2.10543658211082    0.29420738876324    5.20413951785778
Cl       -0.35485474874060   -2.11192727455620    5.20087370223564
Cl        3.83678194912616    0.01339642508883   -4.08751895291085
63
 energy: -142.096091025996 gnorm: 0.008685527868 xtb: 6.4.1 (a3dbbd7)
C        -1.32608635785570    0.00640291078841    3.59351450264187
C        -0.39201108785232   -1.27674247706942    3.59209764061021
C         0.98587034257275   -0.72564052749818    3.29634545054775
C         0.96910752041483    0.69539394341273    3.26809073681921
C        -0.37825982257600    1.14780889835977    3.29626693631446
C         2.33098115752402   -2.58483027392981    0.57984824118136
C         3.16182795535541   -1.41636632035459    0.57725451451164
C         2.91839099507235   -0.69109424073415    1.80069808862831
C         1.92976473145692   -1.40439082157380    2.55966254303822
C         1.57617245991797   -2.59589070341902    1.80289989432900
C         3.17733035096100    1.42223877674736    0.58231133106839
C         2.33512277759819    2.58480586499758    0.58818756651250
C         1.57425170731838    2.57334330415295    1.81085772173231
C         1.94308218623812    1.40565314988842    2.55488960558948
C         2.93625328334560    0.69629479702816    1.80349051694422
C        -0.36792291178629    3.43994590487118    0.58540806487514
C        -1.74314654181157    3.00629020392361    0.58757064964017
C        -1.97912664763585    2.28663582140158    1.80472901145516
C        -0.73400001806183    2.25554894770142    2.56197901597358
C         0.24651655509236    2.98102408285421    1.80803210804730
C        -3.39986073448723    0.72701110978469    0.57876891709135
C        -3.38567663534697   -0.70815475169963    0.58034595097749
C        -2.75310651232007   -1.13117695778507    1.81974986783490
C        -2.40014257832916   -0.01308216175837    2.55724087848412
C        -2.77607027744594    1.15769719721310    1.80567561437972
C        -1.71250530088450   -3.00477222831669    0.57688815809596
C        -0.34958246631959   -3.45437965181505    0.56850294374670
C         0.25526716864101   -3.00217738690031    1.79867440884418
C        -0.74174130294882   -2.29078597622699    2.55495771118574
C        -1.91680156976692   -2.27922423706120    1.81445588781736
C        -0.23792800561407   -3.00428282000073   -1.83805281216608
C         0.74128240078303   -2.28848954775958   -2.59475653947462
C         1.97779272234016   -2.27666116462533   -1.82792655590743
C         1.74540340180934   -3.00918997063337   -0.61136592937001
C         0.37764789754969   -3.45534506985751   -0.61381609099546
C         2.79653976545778   -1.17221379996561   -1.83013421586190
C         2.57131257045114    0.00654126562030   -2.74972482404186
C         2.79349521724780    1.17859585270465   -1.82212442644323
C         3.38050201464527    0.72512057359280   -0.60743105836772
C         3.37793117198701   -0.71931585485470   -0.60814090175919
C         1.96736189171133    2.28264459905743   -1.81400199416414
C         0.73586647822420    2.29719685151045   -2.58129972564431
C        -0.24964331621643    3.00653633172171   -1.82527297061145
C         0.36226327294249    3.44593929615071   -0.59175293963156
C         1.73470481552696    3.00373959410607   -0.59313816533987
C        -1.58061390723221    2.58856833469590   -1.82385396314004
C        -1.96249377844368    1.42130727862002   -2.58345671216766
C        -2.95788522752128    0.70309872412942   -1.82740218287139
C        -3.18751692358152    1.42466332994930   -0.60311990867329
C        -2.33641647053235    2.58844883576423   -0.60382816651269
C        -2.94988467453930   -0.68847781738470   -1.82165796414431
C        -1.95712441028701   -1.40985463416458   -2.57885482961336
C        -1.56991770895980   -2.57706769726060   -1.82393303180738
C        -2.30672754595048   -2.57477023843728   -0.59863029171007
C        -3.16669139621220   -1.40117607446762   -0.59288128587237
C        -1.00740103540103   -0.71335518459439   -3.30720315425920
C        -1.00866008881945    0.72375944778282   -3.30574750703181
C         0.37270096654620    1.15509332262381   -3.29813512605622
C         1.20335600090340    0.00750333365591   -3.32880410847365
C         0.37373632135628   -1.14514757690113   -3.30241859606167
Cl       -2.10885810021837    0.29261841989403    5.20386816722783
Cl       -0.36051048121356   -2.11260272726755    5.20191008291441
Cl        3.84524673614908    0.01338297225362   -4.10381266467429
63
 energy: -142.096198924658 gnorm: 0.004747635270 xtb: 6.4.1 (a3dbbd7)
C        -1.32626457425711    0.00648337587851    3.59401298569796
C        -0.39232650676592   -1.27680241539451    3.59298080858609
C         0.98597962282430   -0.72566054222578    3.29803287156742
C         0.96920763198616    0.69557844094734    3.26966601423389
C        -0.37831070157928    1.14798147016246    3.29726865038884
C         2.33020583831078   -2.58339465285657    0.58001843721442
C         3.16036687878934   -1.41490815471436    0.57659126272099
C         2.91750348342893   -0.69067066661030    1.80073385652277
C         1.92964290373811   -1.40436937556875    2.56070630217004
C         1.57602736672581   -2.59557248710570    1.80386676312488
C         3.17567764557863    1.42106260908028    0.58158293565509
C         2.33448576965709    2.58384445569320    0.58833142212641
C         1.57419100790284    2.57359597920163    1.81180066936563
C         1.94300680337285    1.40596752801289    2.55596631032955
C         2.93526151950451    0.69621074616603    1.80353179336299
C        -0.36784845434702    3.43953091911110    0.58571511993242
C        -1.74331417100530    3.00624256109435    0.58832890547490
C        -1.97902768690751    2.28661898293926    1.80498338495671
C        -0.73402102574212    2.25560075737610    2.56271907123907
C         0.24643423265778    2.98087215204293    1.80866326091535
C        -3.40008203601938    0.72685860523974    0.57891751002887
C        -3.38617761017240   -0.70855272398213    0.58053947147048
C        -2.75346488435182   -1.13155730737515    1.81981912326824
C        -2.39968049843692   -0.01294588416446    2.55695479678038
C        -2.77586563596916    1.15729046050805    1.80593304984068
C        -1.71324558764906   -3.00498725317870    0.57768265667285
C        -0.34984763497445   -3.45355807182477    0.56869203076180
C         0.25475038348100   -3.00102546733495    1.79913468471977
C        -0.74171431858310   -2.29048529689175    2.55534298737685
C        -1.91754428252015   -2.27948724372919    1.81458363170084
C        -0.23819223570843   -3.00405177116343   -1.83825572288445
C         0.74087274823037   -2.29047435291884   -2.59558386767940
C         1.97896652641867   -2.27577112142654   -1.82934588872655
C         1.74458341010687   -3.00556993422402   -0.61143648455828
C         0.37718697532686   -3.45320869897066   -0.61333386674345
C         2.79995479967083   -1.17218437627537   -1.83457191462704
C         2.57901247963965    0.00656218207210   -2.75604061294898
C         2.79699933089557    1.17894275506078   -1.82661285295833
C         3.37895083722522    0.72520957812219   -0.60900443353140
C         3.37629342719565   -0.71914634357894   -0.60971367596766
C         1.96883815538282    2.28224139156772   -1.81559034545574
C         0.73562890942502    2.29917889325975   -2.58203008944677
C        -0.24958788315181    3.00621282222714   -1.82544709505104
C         0.36216615153741    3.44406335359224   -0.59134164006866
C         1.73422337761501    3.00084745559081   -0.59339901079098
C        -1.58102873677399    2.58864438124903   -1.82305039223398
C        -1.96223534594543    1.42092140701828   -2.58261435853678
C        -2.95824881840872    0.70287980499344   -1.82722501111887
C        -3.18796236560831    1.42457711182946   -0.60279105325461
C        -2.33630146964773    2.58831781783199   -0.60349780924121
C        -2.95058794578294   -0.68877144275789   -1.82166087771494
C        -1.95716523870583   -1.40993799712594   -2.57828492109541
C        -1.57072720225383   -2.57765589928956   -1.82341765794699
C        -2.30726740852109   -2.57522583246720   -0.59848082124671
C        -3.16771577206872   -1.40175648733846   -0.59279518049699
C        -1.00608513279401   -0.71321279607208   -3.30459700013847
C        -1.00722324331307    0.72327459543034   -3.30301715451194
C         0.37535523254013    1.15445127388011   -3.29717050579853
C         1.20529294316276    0.00749246804304   -3.32432320013047
C         0.37620794185533   -1.14473329963518   -3.30150697436023
Cl       -2.11245202579365    0.29514467858378    5.20225700876051
Cl       -0.36073059574091   -2.11609961057854    5.20130128219454
Cl        3.84174169628145    0.01327087561505   -4.10802455368458
63
 energy: -142.096227120659 gnorm: 0.002804399995 xtb: 6.4.1 (a3dbbd7)
C        -1.32552707973072    0.00632938422555    3.59288871223902
C        -0.39228559114999   -1.27611499720641    3.59197668519046
C         0.98654160789305   -0.72545916811835    3.29842908815403
C         0.96974917746071    0.69586553477035    3.26973093185401
C        -0.37779539651700    1.14823360299972    3.29723523804635
C         2.33012774713784   -2.58316974512524    0.58015817858264
C         3.15990881418326   -1.41434967829626    0.57641683812835
C         2.91743615551887   -0.69047141630020    1.80067048702424
C         1.92998219955688   -1.40450830309943    2.56107197345384
C         1.57620784811330   -2.59564076537657    1.80437991057476
C         3.17517199576102    1.42068730206350    0.58121761518169
C         2.33455419794678    2.58392389686831    0.58825813850697
C         1.57446979933115    2.57405209076181    1.81200617292545
C         1.94343247651971    1.40646312111169    2.55609123384605
C         2.93516253517201    0.69626671580690    1.80335079023202
C        -0.36761190875323    3.43978865107503    0.58562120040792
C        -1.74316116093221    3.00638174163625    0.58844032731575
C        -1.97872075985190    2.28672408490236    1.80483754852406
C        -0.73374977261782    2.25587017961826    2.56280946058862
C         0.24666219696313    2.98102073739666    1.80864907272581
C        -3.39980574955176    0.72679721680714    0.57858083692604
C        -3.38608304534653   -0.70873385570435    0.58014524354829
C        -2.75341002995371   -1.13183655720540    1.81928835248015
C        -2.39938158113644   -0.01295371579318    2.55635056887489
C        -2.77549289853808    1.15707549653160    1.80575939717580
C        -1.71340779346232   -3.00533819653249    0.57769387264818
C        -0.34977908084882   -3.45360249327048    0.56856809889050
C         0.25465555148759   -3.00060309901517    1.79919234171543
C        -0.74157877163494   -2.29055811634624    2.55514847536997
C        -1.91777428330613   -2.27976353290613    1.81413015368767
C        -0.23819145251751   -3.00463664449633   -1.83858244814987
C         0.74054233405836   -2.29174548837037   -2.59584590596134
C         1.97907430857420   -2.27540417694793   -1.82938616754377
C         1.74448572452237   -3.00435719462620   -0.61133448486118
C         0.37716685978710   -3.45269379770583   -0.61323480680490
C         2.80056762791590   -1.17198930894599   -1.83593269117090
C         2.58140053608334    0.00653585510120   -2.75819223154767
C         2.79766870943260    1.17893311332602   -1.82808618038608
C         3.37800951887562    0.72527260143142   -0.60937241796652
C         3.37527808937623   -0.71908787440709   -0.60999909230745
C         1.96912759356267    2.28216238137561   -1.81587995913016
C         0.73536806533777    2.30051652187817   -2.58232585922418
C        -0.24945366315986    3.00676048079212   -1.82581553615832
C         0.36231343818711    3.44367993101935   -0.59133815617191
C         1.73429208033741    3.00006431673709   -0.59355989148829
C        -1.58103856168980    2.58901408721112   -1.82294034893869
C        -1.96194273881615    1.42097442045013   -2.58265131892063
C        -2.95788001014762    0.70279892931394   -1.82743276252791
C        -3.18773164064809    1.42457079776332   -0.60296496773607
C        -2.33595701932660    2.58842727571989   -0.60366532053333
C        -2.95036625274873   -0.68885821090210   -1.82199014481774
C        -1.95697898073724   -1.41013883590998   -2.57845232937680
C        -1.57086809793471   -2.57822219372569   -1.82349845025241
C        -2.30725741284554   -2.57560794560292   -0.59882666198830
C        -3.16776732281728   -1.40205085583911   -0.59317231938663
C        -1.00543996443204   -0.71310042205845   -3.30358916376217
C        -1.00654743845005    0.72306424595993   -3.30195741161192
C         0.37654036714685    1.15425637316399   -3.29643223946570
C         1.20587777942351    0.00751172165101   -3.32083741826531
C         0.37727775741853   -1.14464302811262   -3.30073520346794
Cl       -2.10806205244788    0.28538694694784    5.20434519074645
Cl       -0.36920211283017   -2.10873573659756    5.20392979811393
Cl        3.83396553276461    0.01315998076822   -4.10684595754347
63
 energy: -142.096244304643 gnorm: 0.002406067434 xtb: 6.4.1 (a3dbbd7)
C        -1.32600175332673    0.00648996750657    3.59360084944330
C        -0.39218224320487   -1.27672059858849    3.59264079295916
C         0.98638349804715   -0.72577245117106    3.29823656942986
C         0.96953796248441    0.69557035674422    3.26969246909535
C        -0.37798263887050    1.14796516955757    3.29690608479166
C         2.33042882838607   -2.58369727266752    0.58023187140522
C         3.16004555998371   -1.41451568892406    0.57667257033049
C         2.91744782401005   -0.69060549060799    1.80074334801219
C         1.92987188679197   -1.40474540253628    2.56085047157943
C         1.57647046355932   -2.59598499110001    1.80441222693712
C         3.17516206680917    1.42066141589114    0.58158681836085
C         2.33467287260218    2.58420601325918    0.58854815740527
C         1.57444853727712    2.57402619653698    1.81217069190544
C         1.94323776784719    1.40633842675372    2.55616080164015
C         2.93506057674853    0.69614008850202    1.80351797232713
C        -0.36748537125562    3.44016370181020    0.58550816569352
C        -1.74304833307152    3.00658274124166    0.58819373936608
C        -1.97859830131802    2.28687068140967    1.80446497206744
C        -0.73372039205313    2.25567891226262    2.56241851290406
C         0.24669803782230    2.98096197518325    1.80849319882075
C        -3.39933875594552    0.72673208231372    0.57817872385624
C        -3.38558766304262   -0.70877407424049    0.57992926303333
C        -2.75309820180003   -1.13189349890219    1.81916198777984
C        -2.39897513672466   -0.01278815237876    2.55603738316610
C        -2.77501220668757    1.15697033357507    1.80531994937463
C        -1.71323036192082   -3.00539803894700    0.57763073756520
C        -0.34961894263425   -3.45388198198158    0.56837276299792
C         0.25479955112154   -3.00044378109589    1.79891240469589
C        -0.74113125501794   -2.29050494606088    2.55494432781681
C        -1.91760574133235   -2.27982754200614    1.81403518818442
C        -0.23806192872460   -3.00532431767374   -1.83877866501914
C         0.74041035244727   -2.29213774692906   -2.59566744586851
C         1.97875247957127   -2.27543266161261   -1.82873901636073
C         1.74477210638011   -3.00479636968950   -0.61120927154935
C         0.37733193133011   -3.45315184155356   -0.61331920775217
C         2.79974687332647   -1.17183938168234   -1.83518223985926
C         2.58097379117000    0.00651258978648   -2.75797668170634
C         2.79682683416458    1.17876885242425   -1.82727180448301
C         3.37764403089042    0.72524954120586   -0.60873594708147
C         3.37496420994290   -0.71914816858292   -0.60943399078121
C         1.96882401241869    2.28220520997231   -1.81516307696709
C         0.73527125908009    2.30098575114957   -2.58210078277952
C        -0.24929229106148    3.00745691900461   -1.82599163384313
C         0.36248485711028    3.44412081140556   -0.59133672675683
C         1.73450737791732    3.00040611322195   -0.59326450694614
C        -1.58087537774702    2.58936077817020   -1.82314618459180
C        -1.96176295120381    1.42118904986788   -2.58300843558249
C        -2.95738118024590    0.70277353888814   -1.82768672584678
C        -3.18732338616273    1.42455071310532   -0.60327552169469
C        -2.33572728741806    2.58860341945040   -0.60402803860705
C        -2.94985124514420   -0.68884670633324   -1.82216661003294
C        -1.95677985846440   -1.41031856457520   -2.57872995062606
C        -1.57067470711478   -2.57852160264656   -1.82363533016764
C        -2.30698541933763   -2.57572742034714   -0.59903733934467
C        -3.16731370903381   -1.40207935963928   -0.59336693493994
C        -1.00538803686226   -0.71304709468928   -3.30361998560485
C        -1.00649204365165    0.72305327747337   -3.30201538778453
C         0.37659194490461    1.15429871234808   -3.29585600438237
C         1.20556043710315    0.00755828356990   -3.31887504978451
C         0.37726758812669   -1.14466081959504   -3.30015051754612
Cl       -2.11359609729567    0.29670163299637    5.20090822631732
Cl       -0.36010783955697   -2.11758378833538    5.20051181455779