63
 energy: -142.069001150694 gnorm: 0.141759720056 xtb: 6.4.1 (a3dbbd7)
C        -1.32333194775417    0.00617886347970    3.59125188963251
C        -0.38909456310608   -1.27772716531095    3.58793274117145
C         0.98734837171535   -0.72675165446744    3.28582848483634
C         0.97037352147027    0.69420630050098    3.25749094477592
C        -0.37633960723915    1.14742685553706    3.29074190055216
C         2.33092254703306   -2.58746567485154    0.56610397604514
C         3.16875994483946   -1.41579758165486    0.56774606192583
C         2.91978889080344   -0.69314490348597    1.79074016083681
C         1.93018806170321   -1.40549148670748    2.54814074589443
C         1.57476788296703   -2.59634073810083    1.79100274817011
C         3.18328087896891    1.41909085132624    0.57258499213333
C         2.33432229320876    2.58580968143883    0.57559918777772
C         1.57332139543398    2.57095369604789    1.79851755002390
C         1.94352282881158    1.40414426944103    2.54285112768194
C         2.93804115459266    0.69543633516321    1.79366637265872
C        -0.36752716666001    3.44413435035873    0.58029879258012
C        -1.74013210357057    3.00741588983283    0.58054459941955
C        -1.97818665379860    2.28654468588757    1.80361199533287
C        -0.73393250395930    2.25581684802015    2.55761528373596
C         0.24647420110131    2.98080949443068    1.80023381740862
C        -3.39591089216029    0.72883802558845    0.57533866561121
C        -3.37932885665645   -0.70504006359254    0.57786353554246
C        -2.74934612856665   -1.12865052488571    1.82052481704193
C        -2.40026274086307   -0.01382700939334    2.55826017594831
C        -2.77435746218519    1.16021035149421    1.80187148511327
C        -1.70577977915925   -3.00504292266898    0.57191390059864
C        -0.34657433486683   -3.46193150719564    0.56452064530943
C         0.25810980605866   -3.00738238851431    1.79111395103090
C        -0.74203335365356   -2.29289841924391    2.55243835495534
C        -1.91196172287597   -2.27950749485726    1.81757326885181
C        -0.23558165862281   -3.01371296632646   -1.83961821271520
C         0.75175047781152   -2.28700579367404   -2.59867644532734
C         1.98089777627659   -2.28868303835222   -1.84308617931945
C         1.74918768154887   -3.01946296828987   -0.62050040464920
C         0.38088379041600   -3.46658963937948   -0.62079308111870
C         2.79204993046375   -1.16413556659148   -1.83875967224219
C         2.41002754086118    0.00666527739579   -2.59106683151125
C         2.78807241943814    1.16926264052202   -1.83130610074559
C         3.40298548527550    0.72369088805355   -0.60835037131266
C         3.40110069057525   -0.71955382898331   -0.60923004493565
C         1.96912615256614    2.29475463280888   -1.82840259178522
C         0.74474441569639    2.29528025280401   -2.58515694980539
C        -0.24988429155059    3.01642431380723   -1.82795956514323
C         0.36353023978106    3.45499162487799   -0.59844520421847
C         1.73735095077191    3.01278425815446   -0.60243935985793
C        -1.56944867307335    2.59059487249377   -1.83048045584010
C        -1.94787757007795    1.42311330884846   -2.58910001301826
C        -2.94122296022124    0.70465889669871   -1.83002690890673
C        -3.17947337159538    1.42642572884929   -0.60816005298080
C        -2.33307692209202    2.59081264516620   -0.60600270171083
C        -2.93172079240255   -0.68656028280689   -1.82266620418654
C        -1.94059925011627   -1.40887980593779   -2.58138532694875
C        -1.55636984787224   -2.57670213587000   -1.82754179967090
C        -2.29848528094837   -2.57416283302738   -0.59738768824741
C        -3.15456863482430   -1.39758782868201   -0.59434922362650
C        -0.98936986995949   -0.71482485845558   -3.31408037280858
C        -0.99159024528376    0.72723605185279   -3.31429029098428
C         0.38014149579772    1.17201579903766   -3.31523274930469
C         1.22728121177112    0.00778684511203   -3.31823795360647
C         0.38205649969615   -1.16057927312445   -3.31917058806611
Cl       -2.09995733548554    0.29360223981566    5.20530702406437
Cl       -0.35034641589922   -2.11046483688082    5.19906768498811
Cl       -3.50570478582304   -3.88676920541581   -0.90688014084591
63
 energy: -142.093461399127 gnorm: 0.064383442389 xtb: 6.4.1 (a3dbbd7)
C        -1.32142723435318    0.00617997087487    3.59304297581458
C        -0.38364798610934   -1.27458984030039    3.59309565103110
C         0.99212174788866   -0.72424541934457    3.28977069984423
C         0.97283026451666    0.69622036255293    3.25903977662961
C        -0.37501002682347    1.14759846167274    3.29106376033018
C         2.33622144562700   -2.58648291160732    0.57096633957774
C         3.17077715432037   -1.41439166855155    0.56956276056638
C         2.92448855156714   -0.69037100560912    1.79304595125507
C         1.93640571630467   -1.40285155561689    2.55246156352684
C         1.58437521814187   -2.59469398517993    1.79829227811561
C         3.18435082498048    1.42053388240499    0.57284068038843
C         2.33529398139481    2.58598840892306    0.57570219865441
C         1.57416946717404    2.57164219006429    1.79908431227802
C         1.94534221360454    1.40586993751824    2.54380877759765
C         2.94050321445094    0.69717000602024    1.79478966272768
C        -0.36697677934505    3.44318485338795    0.58093437981492
C        -1.73975436982855    3.00804270659686    0.58108032276322
C        -1.97738837567136    2.28674311048003    1.80335793825486
C        -0.73271061306266    2.25557074899131    2.55777464964441
C         0.24742376180586    2.98136201964359    1.80129532681520
C        -3.39575489735030    0.73388844609956    0.57468927601000
C        -3.36899847218696   -0.69766998834762    0.57513115391323
C        -2.74346630515423   -1.12717794505810    1.81935037070119
C        -2.39607601853536   -0.01579446555370    2.55674181840268
C        -2.77180143942262    1.16003469351310    1.80124983427091
C        -1.70444211385623   -3.01658782584021    0.59521087108247
C        -0.34343726902015   -3.44759946060195    0.57484338719352
C         0.26661377672243   -3.00451027481893    1.80466486652607
C        -0.72951574343461   -2.29153922499386    2.56078484693022
C        -1.90200759215604   -2.27615344379380    1.81419210171982
C        -0.23362748955653   -2.99760807247608   -1.83968420660069
C         0.75384906658884   -2.28269029145762   -2.60288911383333
C         1.97961338962437   -2.28581454138313   -1.84075783188557
C         1.74887368071287   -3.01637690469628   -0.61787214778616
C         0.38194217941225   -3.45660854489486   -0.61497959578017
C         2.79197514106419   -1.16227468518738   -1.83792977918361
C         2.41140754060712    0.00799675832510   -2.59127698892839
C         2.78918652053635    1.17012984450657   -1.83126950322932
C         3.40371601829145    0.72433144822385   -0.60812440361272
C         3.40185915517551   -0.71814950693947   -0.60849036734279
C         1.97063939338082    2.29596338879111   -1.82834858866959
C         0.74658550066749    2.29720292878152   -2.58539080591134
C        -0.24849855878304    3.01746195255385   -1.82759391037202
C         0.36450550608530    3.45494268310955   -0.59822912213665
C         1.73840444529980    3.01335856200215   -0.60250783449298
C        -1.56873239042232    2.59312668142894   -1.83100291492740
C        -1.94626209860725    1.42711792003071   -2.59159929188991
C        -2.94006083618614    0.71123667806028   -1.83163010995006
C        -3.18003028402760    1.43168313305477   -0.60980946021273
C        -2.33312115462279    2.59381254266678   -0.60697879958203
C        -2.92476905758444   -0.67970388716661   -1.82182862763418
C        -1.93311231089045   -1.40185061208524   -2.58190245687086
C        -1.54714654662746   -2.56409974528196   -1.83731520302285
C        -2.37634349674014   -2.64999804924685   -0.61943020350437
C        -3.15051583946420   -1.38362215559277   -0.59650335359491
C        -0.98391436274755   -0.70899118761959   -3.32163953649286
C        -0.98919460863626    0.73161163134810   -3.31787115132778
C         0.38301319599472    1.17539350420774   -3.31744524559449
C         1.23000900646986    0.01116061752869   -3.32109191238239
C         0.38513392934949   -1.15620774717377   -3.32597865871662
Cl       -2.09800425544804    0.29591222539729    5.20654277414079
Cl       -0.34623855217197   -2.11026457933678    5.20288391791753
Cl       -3.60861311440190   -3.98911039488673   -0.94041070276092
63
 energy: -142.100346131427 gnorm: 0.018275582773 xtb: 6.4.1 (a3dbbd7)
C        -1.31718892782324    0.00698824341834    3.59244140494089
C        -0.37933754663754   -1.27144165209051    3.59026642251624
C         0.99804413075016   -0.72037839694323    3.29371225359918
C         0.97752122437059    0.69966904328552    3.26095477180407
C        -0.37154296626803    1.14926298116660    3.29116683850023
C         2.34165779436219   -2.58273064355484    0.57548963815305
C         3.17476212468089   -1.41141674617749    0.57172195398381
C         2.93121778686447   -0.68601340099965    1.79604500395661
C         1.94389906668296   -1.39953273244380    2.55708440855350
C         1.58980350309574   -2.58846412963408    1.80159716919587
C         3.18768767111580    1.42420889315578    0.57356733118466
C         2.33840849575997    2.58810800102346    0.57609814166064
C         1.57709639029305    2.57370579775270    1.79997884842890
C         1.94963109630391    1.40953781726584    2.54551043512146
C         2.94531415896556    0.70063096380846    1.79648516546707
C        -0.36474064918525    3.44313722107946    0.58156948519282
C        -1.73757475298691    3.00895185635538    0.58144674230578
C        -1.97471796495435    2.28630499500383    1.80271632698128
C        -0.72962256631314    2.25670391887247    2.55839745454443
C         0.25011054198650    2.98276667205988    1.80225583582482
C        -3.38741416793825    0.73138741448652    0.57242324820430
C        -3.36531953803846   -0.70105821840429    0.57005205636566
C        -2.74371727199771   -1.12936222820337    1.81841713949487
C        -2.39086556999944   -0.02054920795044    2.55370785925978
C        -2.76667478101947    1.15830615173099    1.79957946328420
C        -1.70511497057007   -3.01116566446397    0.60018487051353
C        -0.34828917542897   -3.43442363505368    0.57512267057761
C         0.26766155384319   -2.99523930030406    1.80672656325680
C        -0.72373815296631   -2.28779577566017    2.55821705228046
C        -1.90112886981320   -2.27611902208068    1.79948016391856
C        -0.24095803433789   -2.98909976364189   -1.83648474510441
C         0.74955507198499   -2.27545493432940   -2.59510851822123
C         1.97692494837342   -2.28034044046609   -1.83436700026727
C         1.74602293264629   -3.01034769603708   -0.61298765500186
C         0.38062601675683   -3.45238456016202   -0.60957138008020
C         2.79269206413684   -1.15860579452662   -1.83537571149906
C         2.41351930870567    0.01083743461396   -2.59052318751412
C         2.79153482819600    1.17278216876446   -1.83061966420975
C         3.40620100320506    0.72707078284958   -0.60733406635378
C         3.40492948946965   -0.71476997438614   -0.60711710421456
C         1.97364541186703    2.29913193146038   -1.82791921831139
C         0.74976485244033    2.30066415671283   -2.58535329579767
C        -0.24535665826750    3.01979625697248   -1.82695979376200
C         0.36718373701570    3.45640248602569   -0.59778218435148
C         1.74139486233331    3.01589258351877   -0.60213011663530
C        -1.56621241035697    2.59536145185485   -1.83107682345513
C        -1.94334151141466    1.42949765373664   -2.59167615323359
C        -2.93505877686030    0.71189329731299   -1.82949728640061
C        -3.17501839074220    1.43291760823306   -0.61031282091593
C        -2.33163864020471    2.59670425545798   -0.60763398108598
C        -2.91928353073468   -0.68035353303588   -1.81503971766944
C        -1.92778420394766   -1.40230606511287   -2.57441478393975
C        -1.54984979224847   -2.56475215877118   -1.84186047947013
C        -2.45016766367716   -2.71998668403411   -0.64188499687633
C        -3.15625817349095   -1.38616645551937   -0.59871792070542
C        -0.98067422871589   -0.70599977478766   -3.32028827612320
C        -0.98647173147818    0.73433322598393   -3.31819421310540
C         0.38615308900462    1.17916587252099   -3.31814954338213
C         1.23295987852897    0.01488275584581   -3.32254032653581
C         0.38574932846203   -1.15100864087313   -3.32450567993947
Cl       -2.09398245858983    0.29666045621859    5.20527315461978
Cl       -0.34397908561910   -2.10996525276408    5.19943396949853
Cl       -3.68761838504352   -4.07198948801874   -0.96218380281813
63
 energy: -142.100847282886 gnorm: 0.011474747645 xtb: 6.4.1 (a3dbbd7)
C        -1.31498293859508    0.00709934353626    3.59037998414254
C        -0.37744129471385   -1.27012868209640    3.58710570408069
C         1.00080644984621   -0.71814317083900    3.29424390607644
C         0.98033439353586    0.70166115261209    3.26194556755770
C        -0.36946919335421    1.14989433381024    3.29026573498656
C         2.34335201912620   -2.57998118831176    0.57754332316953
C         3.17741986951139   -1.40928599349702    0.57323446637721
C         2.93558303301515   -0.68345421498818    1.79796028617123
C         1.94742815090499   -1.39759954723607    2.55845762611557
C         1.59094178394552   -2.58465853684582    1.80219482933636
C         3.19054116561660    1.42702696933810    0.57452951921922
C         2.34067517082469    2.59025466047222    0.57669343115730
C         1.57931172739588    2.57563976873271    1.80082841521693
C         1.95266758145583    1.41214700869340    2.54692624790920
C         2.94896574747683    0.70317504899340    1.79798573157248
C        -0.36305091148177    3.44399438919619    0.58182760771363
C        -1.73555653229842    3.00889304297366    0.58119251117031
C        -1.97248602107282    2.28503354145408    1.80145392130451
C        -0.72767654660374    2.25731824230669    2.55818308862754
C         0.25197415696734    2.98405785974848    1.80262783712902
C        -3.38245589309058    0.72758867204159    0.57004578635611
C        -3.36851424186624   -0.70606258538764    0.56757309651766
C        -2.74725148470087   -1.13140906042693    1.81866588123833
C        -2.38906189168501   -0.02291618797506    2.55164437094138
C        -2.76308698657153    1.15609740217943    1.79693690579449
C        -1.70956330546293   -3.00776258449460    0.59611796869244
C        -0.35250743748139   -3.43177817755027    0.57268812077565
C         0.26594212536802   -2.98917283421204    1.80418040690405
C        -0.72305545716885   -2.28460982393357    2.55367021426880
C        -1.90552873338698   -2.27852506312893    1.79258980039757
C        -0.24676463436286   -2.99064160874224   -1.83504822078101
C         0.74518502645256   -2.27209611128451   -2.58813852777179
C         1.97397120498579   -2.27670685587797   -1.82933373247834
C         1.74433816912703   -3.00711239244554   -0.60979755800144
C         0.37945299161091   -3.45269145844133   -0.60754631165014
C         2.79238227113585   -1.15629862329466   -1.83256879303108
C         2.41418222585647    0.01261573750402   -2.58860136251651
C         2.79334258943953    1.17483937315176   -1.82965557409479
C         3.40847495784752    0.72945863330477   -0.60631528991635
C         3.40695898264081   -0.71246338846020   -0.60567787369096
C         1.97561422371853    2.30141493639987   -1.82747859254135
C         0.75153319264923    2.30248167010818   -2.58505885140637
C        -0.24363731064206    3.02123849246308   -1.82655939424904
C         0.36888467797653    3.45803201588070   -0.59750277868597
C         1.74340572889982    3.01799077976761   -0.60161886026250
C        -1.56464814201261    2.59593035090683   -1.83080155926277
C        -1.94154366592708    1.42925319480735   -2.59032384387932
C        -2.93216951442653    0.70952525419609   -1.82831739108014
C        -3.17178652227686    1.43153414761004   -0.61061839013698
C        -2.33013634519903    2.59708046000135   -0.60778445465913
C        -2.92016974991710   -0.68348020172977   -1.81300374604343
C        -1.92866131826449   -1.40549940149039   -2.57183660208879
C        -1.55839138728483   -2.57345364131371   -1.84416772473608
C        -2.47189592954537   -2.73829431459039   -0.64947350212134
C        -3.16597761423858   -1.39499586617177   -0.60102665000555
C        -0.98092869594464   -0.70598531263090   -3.31645239222040
C        -0.98513820317164    0.73442828560808   -3.31630185750419
C         0.38748044302474    1.18044593298866   -3.31736228190592
C         1.23384858386882    0.01619728759282   -3.32113567686991
C         0.38481940521687   -1.14920632084181   -3.32063185436049
Cl       -2.09281886059119    0.30014452578018    5.20174071342320
Cl       -0.33742357662899   -2.11687278663722    5.19290626932609
Cl       -3.70500689494166   -4.08676420116651   -0.96468622950883
63
 energy: -142.100999678832 gnorm: 0.006037995008 xtb: 6.4.1 (a3dbbd7)
C        -1.31295961202228    0.00682670264571    3.58780901523116
C        -0.37684123614650   -1.26806204756152    3.58248223247879
C         1.00256967702980   -0.71661611551291    3.29378465078261
C         0.98215705630640    0.70293724238806    3.26194667671417
C        -0.36808732488910    1.15047454367690    3.28936833680861
C         2.34472876391271   -2.57868155995230    0.57889276827871
C         3.17955053210260   -1.40824473293843    0.57402756539249
C         2.93876631914887   -0.68219160390205    1.79897300907667
C         1.94989433105851   -1.39684800416390    2.55911098388294
C         1.59225735139462   -2.58267751261700    1.80262931885128
C         3.19215443913850    1.42852641553161    0.57463260887814
C         2.34171649367027    2.59132108530613    0.57652096779885
C         1.58049500986648    2.57678406223429    1.80094883368820
C         1.95466718737657    1.41380681934762    2.54736420966391
C         2.95129222283134    0.70449861116440    1.79851835049508
C        -0.36224617768180    3.44470421167291    0.58183757451046
C        -1.73442968773469    3.00874642832034    0.58104859033277
C        -1.97130923614515    2.28429020652193    1.80080905672959
C        -0.72666413906179    2.25807675735495    2.55816878131601
C         0.25295024798431    2.98507279834893    1.80267247892823
C        -3.37938188205909    0.72525401966474    0.56843541320910
C        -3.37033190142801   -0.70880875583803    0.56620626059623
C        -2.75019110643900   -1.13260438608266    1.81948206771814
C        -2.38859420555237   -0.02422445782099    2.55077938951292
C        -2.76074309571755    1.15456764009265    1.79521001075264
C        -1.71266598533486   -3.00448122226069    0.59223177860286
C        -0.35470524925363   -3.43067308109564    0.57044611108367
C         0.26462634640065   -2.98479011087092    1.80209738139015
C        -0.72220882396592   -2.28241017281550    2.54945124118414
C        -1.90969996163066   -2.28087723010411    1.78751323998741
C        -0.24990685772969   -2.99179087653162   -1.83383994278207
C         0.74226813807664   -2.27021982324178   -2.58361469006073
C         1.97189753836037   -2.27461995032334   -1.82586931923329
C         1.74417741547753   -3.00554949898592   -0.60785593510031
C         0.37954076447461   -3.45352301726945   -0.60617484415942
C         2.79224077047316   -1.15521381282359   -1.83096360103636
C         2.41428248528837    0.01335302346906   -2.58736496708888
C         2.79430626614384    1.17586146799709   -1.82938539799213
C         3.40987469866465    0.73073737746738   -0.60609842126122
C         3.40823631132664   -0.71139739490962   -0.60500955338638
C         1.97644773725778    2.30253227011738   -1.82762294330388
C         0.75217986290507    2.30331034761687   -2.58519687481914
C        -0.24302366558506    3.02198374161302   -1.82657385300634
C         0.36949720318567    3.45897380208447   -0.59764134359067
C         1.74423336999321    3.01902675998730   -0.60174379938437
C        -1.56421133701037    2.59627770408043   -1.83059356913802
C        -1.94060923714802    1.42885103902211   -2.58928469814486
C        -2.93024278738089    0.70787674440707   -1.82747539464011
C        -3.17020952508358    1.43079815629522   -0.61066648172478
C        -2.32945448419651    2.59745529406845   -0.60781857449131
C        -2.92040321120895   -0.68517393582482   -1.81149960832511
C        -1.92889112752910   -1.40737569558408   -2.56986946431399
C        -1.56380170170009   -2.57955499720092   -1.84474000193168
C        -2.48244781782700   -2.74678503196085   -0.65325360407659
C        -3.17161583341230   -1.40101722026053   -0.60205537619447
C        -0.98118825619782   -0.70611633007530   -3.31343234884970
C        -0.98453555149755    0.73417203764828   -3.31485205726968
C         0.38806001696999    1.18076466256914   -3.31706864082921
C         1.23421984415855    0.01667167697511   -3.32024684844612
C         0.38420769138298   -1.14857981384291   -3.31822595172699
Cl       -2.08411876349479    0.28660518331020    5.20419054324724
Cl       -0.34751485879936   -2.11012469706657    5.19161878176627
Cl       -3.70923063696546   -4.08746336544412   -0.96365672637274
63
 energy: -142.101016734634 gnorm: 0.004032004131 xtb: 6.4.1 (a3dbbd7)
C        -1.31366579525922    0.00697000488259    3.58926137759265
C        -0.37696205424317   -1.26860824790412    3.58211503583737
C         1.00240959299249   -0.71673292773990    3.29347583158336
C         0.98189160557745    0.70267958838982    3.26259887840673
C        -0.36859957542089    1.15009973073841    3.28899583528656
C         2.34574086522391   -2.57857064766190    0.57969280598511
C         3.18085430253395   -1.40803518332343    0.57459871539765
C         2.94012916691774   -0.68199690451696    1.79963623244791
C         1.95052230633898   -1.39700235673489    2.55917202093132
C         1.59359683145576   -2.58220134218814    1.80286207626923
C         3.19227534913519    1.42875367888370    0.57506871114636
C         2.34149154115337    2.59126215455450    0.57678689684345
C         1.58028014179756    2.57660686997758    1.80135582992017
C         1.95455115197750    1.41382118703603    2.54800555515710
C         2.95162486631500    0.70459196145125    1.79915348229610
C        -0.36222143106169    3.44497060187260    0.58194403405629
C        -1.73422023856566    3.00866442102101    0.58090403526168
C        -1.97123253358525    2.28407957118695    1.80045399000959
C        -0.72677906847586    2.25791786107124    2.55802191394066
C         0.25284170305874    2.98520435427713    1.80280593551089
C        -3.37766955329389    0.72406918852625    0.56746803631098
C        -3.37059803124318   -0.70981042281064    0.56596258204140
C        -2.75181356358843   -1.13292154942893    1.82104040569158
C        -2.38818931191961   -0.02434807930874    2.55086472265239
C        -2.75924021899072    1.15365906363030    1.79403493709494
C        -1.71436926458212   -3.00116790959071    0.58987196050314
C        -0.35554426226823   -3.42980545928918    0.56885599883289
C         0.26374413599986   -2.98147708482936    1.80059991087956
C        -0.72062209682985   -2.28065178091342    2.54666552763845
C        -1.91264238180403   -2.28241214385485    1.78473655070456
C        -0.25125986429412   -2.99209982142198   -1.83289688225619
C         0.74061715548450   -2.26937500082126   -2.58112744811783
C         1.97071765453071   -2.27379005458659   -1.82381892310441
C         1.74476684209943   -3.00525564531873   -0.60696335507916
C         0.38004862228559   -3.45421864892707   -0.60521948834602
C         2.79225051490625   -1.15495861126526   -1.83005562433354
C         2.41411518917810    0.01347283880265   -2.58639458160908
C         2.79456448353172    1.17610655098901   -1.82893436396287
C         3.41027258866565    0.73111444131224   -0.60565656885850
C         3.40876246300737   -0.71121351540882   -0.60449104597381
C         1.97651023828615    2.30277193398083   -1.82743266493292
C         0.75222840800169    2.30346957814836   -2.58513113243066
C        -0.24302405365419    3.02220662296374   -1.82654189336967
C         0.36938349384068    3.45924565157180   -0.59762388082061
C         1.74418904553133    3.01911808149565   -0.60150156341487
C        -1.56441862031530    2.59647744393257   -1.83046717888789
C        -1.94030747143355    1.42847658272761   -2.58865255608648
C        -2.92925614843730    0.70694875397888   -1.82700849819828
C        -3.16984580519572    1.43058513582798   -0.61067055362273
C        -2.32949865093274    2.59787162588380   -0.60794609767103
C        -2.92011389229415   -0.68579769796931   -1.81019725241785
C        -1.92862437829070   -1.40816970667321   -2.56824960459867
C        -1.56636104404397   -2.58269856713948   -1.84397899023396
C        -2.48703586046462   -2.75040085068635   -0.65441976137862
C        -3.17372266255974   -1.40411462987050   -0.60184079237006
C        -0.98136091473262   -0.70627865683379   -3.31139929874847
C        -0.98435839569784    0.73382113223417   -3.31388625179069
C         0.38824788245849    1.18060094822797   -3.31683526840943
C         1.23436037280165    0.01672869302580   -3.31964748268192
C         0.38393448562752   -1.14854432298291   -3.31699102487686
Cl       -2.09458124601212    0.30872619329393    5.19747593276391
Cl       -0.33100474260294   -2.13184459678244    5.18148912004336
Cl       -3.70674905408918   -4.08214770099582   -0.96048145424534
63
 energy: -142.101080989938 gnorm: 0.002015153343 xtb: 6.4.1 (a3dbbd7)
C        -1.31354234954287    0.00671464966090    3.58870303593753
C        -0.37728493578652   -1.26838068173343    3.58234159267930
C         1.00211029171157   -0.71702486984494    3.29362089463669
C         0.98155464920601    0.70244117901587    3.26207077616555
C        -0.36872021924054    1.15016914322879    3.28925127488349
C         2.34518261419160   -2.57922882105886    0.57926449885838
C         3.18005132377139   -1.40851836403722    0.57420397067869
C         2.93899292359219   -0.68248344813878    1.79909258592498
C         1.94982683941451   -1.39738856193748    2.55904350337554
C         1.59338020118990   -2.58312472587238    1.80289969242251
C         3.19162484583916    1.42810225574944    0.57465024154954
C         2.34108867100060    2.59083651366867    0.57648125981330
C         1.57990487251164    2.57628427597508    1.80097032056434
C         1.95408970600526    1.41341212105490    2.54743457408744
C         2.95083097799437    0.70409155868916    1.79860191211839
C        -0.36261685325664    3.44461267143970    0.58181345577969
C        -1.73475368273993    3.00864202113422    0.58097288004872
C        -1.97182443965662    2.28445941113341    1.80087921405624
C        -0.72713204453169    2.25790944660238    2.55815858142823
C         0.25250204243674    2.98492205518589    1.80265619899443
C        -3.37919352653994    0.72524930185212    0.56811556038062
C        -3.36976944245695   -0.70829483350979    0.56630663735719
C        -2.75059830068091   -1.13231304789687    1.82038263384352
C        -2.38878703882576   -0.02386919189678    2.55117039209961
C        -2.76051359626411    1.15437861337889    1.79493642410392
C        -1.71305066098638   -3.00203913081946    0.59124822662030
C        -0.35439535437602   -3.43000218115096    0.56979535825415
C         0.26418230994853   -2.98316360809901    1.80174499342319
C        -0.72091300289119   -2.28169199181384    2.54821932273224
C        -1.91120228545121   -2.28148779159674    1.78622772115407
C        -0.24973093204266   -2.99130959938758   -1.83340139904463
C         0.74191149228656   -2.27030290960246   -2.58322739893858
C         1.97163524071929   -2.27489922756738   -1.82533304707110
C         1.74506655317288   -3.00607899162195   -0.60783338823288
C         0.38012245492769   -3.45376949588331   -0.60564880656673
C         2.79233774234022   -1.15559907191711   -1.83092133392477
C         2.41396655532536    0.01296281355257   -2.58708467777548
C         2.79403753481131    1.17550653269445   -1.82928652841057
C         3.40965140354918    0.73047326954921   -0.60603718755136
C         3.40812554280255   -0.71181096379997   -0.60491350385330
C         1.97601123182847    2.30212333578921   -1.82761066852618
C         0.75179096714481    2.30295745337813   -2.58523586140004
C        -0.24339992183175    3.02175561504398   -1.82668273060932
C         0.36900780754755    3.45871274821948   -0.59775298894772
C         1.74377348531342    3.01860910125330   -0.60175130798010
C        -1.56476489721026    2.59630046941727   -1.83061721258370
C        -1.94083549918525    1.42861573132167   -2.58923108876170
C        -2.93022276919374    0.70775653930691   -1.82752700573858
C        -3.17075788550541    1.43106414719306   -0.61070404009440
C        -2.32987674771243    2.59775873307263   -0.60798967748996
C        -2.91987082676571   -0.68486851599661   -1.81094709268491
C        -1.92837746481764   -1.40722585723660   -2.56914447666475
C        -1.56364954856507   -2.57969870226139   -1.84350646278781
C        -2.48264150232174   -2.74704326893926   -0.65284641739424
C        -3.17080888107877   -1.40118747292336   -0.60142273092508
C        -0.98127438801165   -0.70628250998454   -3.31288923188007
C        -0.98473878391919    0.73384745775226   -3.31466151585048
C         0.38789884790261    1.18028933064515   -3.31713425613391
C         1.23413619026027    0.01640064534624   -3.32024244861737
C         0.38422446197273   -1.14897847651942   -3.31827523062867
Cl       -2.08893558037869    0.29666317327598    5.20154240621333
Cl       -0.34089429193894   -2.12162173695292    5.18673672865367