63
 energy: -142.081502668737 gnorm: 0.136836796465 xtb: 6.4.1 (a3dbbd7)
C        -1.29585809763920    0.00401118881931    3.54517689231029
C        -0.36796043466059   -1.17243305044266    3.30515820987539
C         0.98298838984909   -0.72191219210780    3.27512267957929
C         0.98156472691728    0.71960753564614    3.26971969840148
C        -0.37066843430553    1.17924059866277    3.30150764324135
C         2.33648296598357   -2.58548060321166    0.57950289371033
C         3.18657767566203   -1.41946403917212    0.57781419536533
C         2.94957050634668   -0.69854930588343    1.80123308089156
C         1.95308396825138   -1.41752165469557    2.55613481597303
C         1.57961582984989   -2.57968580834158    1.80518673258983
C         3.18767024138397    1.40991878537575    0.57593180017933
C         2.33807592119235    2.57402574463448    0.57591940987423
C         1.57683795447400    2.56605672116665    1.79975339077111
C         1.95304946478205    1.40835201085528    2.55205927541471
C         2.95072023090319    0.68875745027160    1.80098024590342
C        -0.36516779392141    3.42666371311492    0.57921714402649
C        -1.72924376731069    3.01648005687427    0.58287705229366
C        -2.09463355901587    2.46231282969886    1.94730853737491
C        -0.73027134368917    2.28553619224850    2.58224921046650
C         0.24829448370074    2.97593693088527    1.80334175247540
C        -3.37466967439567    0.70300551329579    0.57574930039426
C        -3.39003092771629   -0.73268815670587    0.56838248256510
C        -2.76818811346571   -1.16356142396752    1.78871572205038
C        -2.38904763717889    0.02437925858140    2.53264263708558
C        -2.74834472581071    1.12995086235998    1.81420011509538
C        -1.73481952354600   -3.00995345707075    0.57938225067925
C        -0.36149853487188   -3.44686666226009    0.58178847329193
C         0.25217194576597   -2.99475012297255    1.80551622011247
C        -0.72930832450935   -2.27346636848304    2.56467955460776
C        -1.97147545437730   -2.28746259180062    1.79868366143107
C        -0.24419850633136   -3.01431906314620   -1.82647673825261
C         0.74940205395547   -2.29291975806330   -2.58286291039202
C         1.97453700920709   -2.29239152825096   -1.82543977569151
C         1.74139873391846   -3.01127177396538   -0.59946235539016
C         0.36858334361035   -3.45436466601281   -0.59762914030018
C         2.79442417375665   -1.17031401238235   -1.82833550582627
C         2.41574661868216   -0.00512369138436   -2.58546959698227
C         2.79806943058290    1.16104826437995   -1.83045397159780
C         3.41356646756867    0.71553904959985   -0.60565027126811
C         3.41126633543504   -0.72579612437446   -0.60436594375932
C         1.98256115237360    2.28538932475628   -1.82964816243890
C         0.75350030248264    2.28551308222168   -2.58573232043658
C        -0.23508280223273    3.00436687434747   -1.82344140510130
C         0.37359850933878    3.44286488634390   -0.60220138875814
C         1.74684322375821    3.00246743965493   -0.60372642363152
C        -1.55566653240424    2.56818250404503   -1.80941223602174
C        -1.93859434660526    1.40592010808590   -2.57168095899201
C        -2.93551210472019    0.68461262540438   -1.82146846795257
C        -3.16898901543324    1.39767486955451   -0.59605965569985
C        -2.30435127708354    2.57332623889815   -0.58497549494069
C        -2.94114405324375   -0.70773319319533   -1.83440725651199
C        -1.94505174587464   -1.42387954866205   -2.59102123509086
C        -1.56548890453788   -2.59170746569988   -1.83211639417485
C        -2.32839595521473   -2.59312664308342   -0.60918315809929
C        -3.17773883520354   -1.43218193780650   -0.61434027481289
C        -0.98775846768414   -0.72638522805960   -3.31322849835342
C        -0.98659864734294    0.71557045446948   -3.30737103344774
C         0.38544609972999    1.16109326157285   -3.31071431262535
C         1.23106807690940   -0.00470839623161   -3.31198800118088
C         0.38446650877846   -1.17000629315169   -3.31255499434049
Cl       -1.95494402211016   -0.00808767691631    5.23350834623694
Cl       -3.13453400293270    3.62205440046694    2.87428256889563
Cl        2.61803197003161   -4.56195791453943   -0.92037770680443
63
 energy: -142.105645672259 gnorm: 0.058417178466 xtb: 6.4.1 (a3dbbd7)
C        -1.29710815095738    0.00592309299930    3.54692012118543
C        -0.36782518332327   -1.16896918026651    3.30938975575914
C         0.98240437938457   -0.71634165375402    3.28319156001539
C         0.98026186005454    0.72433891115533    3.27424501645611
C        -0.37251602446771    1.18176127552176    3.30351356261083
C         2.35257013539966   -2.58369249064973    0.60021923262567
C         3.17668537700029   -1.41227347519107    0.58593632363229
C         2.94964847208639   -0.69043208200709    1.81237458385381
C         1.95534682230534   -1.40820764027290    2.56713961614586
C         1.57991043646932   -2.56480482985629    1.80665542533918
C         3.18794540933071    1.41361694178490    0.57910355792434
C         2.33811500462621    2.57463338176500    0.57716512284956
C         1.57580146578166    2.56841996087549    1.80125442691386
C         1.95179090321158    1.41310104458572    2.55622637133703
C         2.95105359762568    0.69508078144569    1.80661680025293
C        -0.36581758421510    3.42725964665973    0.57929902335093
C        -1.72925233236873    3.01717095876381    0.58289226948789
C        -2.09538645641234    2.46335878032018    1.94731262092497
C        -0.73144673661998    2.28703244032283    2.58289210422258
C         0.24741833632998    2.97708702668602    1.80385101368242
C        -3.37549665366592    0.70409748169518    0.57597486163825
C        -3.39112713315722   -0.73100825511623    0.56819793100162
C        -2.76828738906561   -1.16204708015765    1.78867550347063
C        -2.38942589137691    0.02551637566726    2.53312363885340
C        -2.74867499863928    1.13078562742792    1.81430108806955
C        -1.74082044540002   -3.00881006660689    0.57882159170985
C        -0.36710988367421   -3.43431623072193    0.57849478303241
C         0.25171559781327   -2.98835492534492    1.80714971336683
C        -0.72846441381281   -2.27065787790696    2.56403333857092
C        -1.97161708191464   -2.28525984742127    1.79814354563688
C        -0.24867085982903   -3.00413810714465   -1.82183248053041
C         0.74598386700505   -2.28194041408476   -2.57955154010469
C         1.96779353815985   -2.27857770131721   -1.83305298076603
C         1.79362345217506   -3.10494856401251   -0.62059401137831
C         0.35455699255744   -3.44609927409884   -0.59853674565247
C         2.78279577859602   -1.16105442978404   -1.82823039649157
C         2.41345225846085    0.00002175752692   -2.59087068270395
C         2.79548138607233    1.16190068480191   -1.83075906063227
C         3.41181767719099    0.71535912618472   -0.60477601609103
C         3.40867413249209   -0.72059129125884   -0.60222382264473
C         1.98089902887751    2.28606529456808   -1.82968307673513
C         0.75199408018001    2.28704287501999   -2.58656234866931
C        -0.23562247338499    3.00513759644178   -1.82376182411619
C         0.37376920971971    3.44303117690943   -0.60202741506508
C         1.74618354445719    3.00350072548852   -0.60364810407913
C        -1.55666927144612    2.56957615205335   -1.80965304573033
C        -1.94033092824705    1.40825553282095   -2.57224361299939
C        -2.93720229950982    0.68685500311229   -1.82167722854048
C        -3.16962040063861    1.39934349130027   -0.59626855449349
C        -2.30519666237774    2.57451703556013   -0.58534519318286
C        -2.94471718097272   -0.70533210901975   -1.83572913260139
C        -1.94940680726355   -1.42079219746042   -2.59281064723830
C        -1.57359856283103   -2.58863794689082   -1.83275498089527
C        -2.33490273922621   -2.59193640387950   -0.61121575250664
C        -3.18115109944457   -1.42995051532150   -0.61531249513563
C        -0.99137954893072   -0.72287867392832   -3.31562012971012
C        -0.98949572287921    0.71881833661662   -3.30970523937996
C         0.38268284429851    1.16426666814337   -3.31371778601624
C         1.22802848407538   -0.00033341192329   -3.31884625846226
C         0.38126366561105   -1.16298709094638   -3.31812691470892
Cl       -1.95736541257128   -0.00731761246163    5.23474465425197
Cl       -3.13552519533533    3.62270929757328    2.87422050595845
Cl        2.68554253642327   -4.69310467874045   -0.95501178258175
63
 energy: -142.111579454174 gnorm: 0.013358973141 xtb: 6.4.1 (a3dbbd7)
C        -1.29867315246433    0.00909086819540    3.54859112583332
C        -0.36863270340094   -1.16511551851883    3.31137003206059
C         0.98052450900759   -0.71212536278675    3.28446043173850
C         0.97868277676394    0.72877278585745    3.27791679301517
C        -0.37457958482020    1.18584784941089    3.30606051159064
C         2.35299292416168   -2.57960638808684    0.60252165647127
C         3.16571832021112   -1.41395250092515    0.58472324149228
C         2.94437595496104   -0.68701087013391    1.81236103333473
C         1.95272280149909   -1.40349566555670    2.56627809209364
C         1.57961382174522   -2.55878396331394    1.79831220717266
C         3.18597480357703    1.41724128350165    0.58100939778958
C         2.33647799572322    2.57611716362722    0.57822909515272
C         1.57385220669032    2.57199937279996    1.80304064876705
C         1.95028443066784    1.41763318216723    2.55932543861288
C         2.94786324519626    0.69838886713524    1.80786205589700
C        -0.36786423325754    3.42990366706231    0.58018407754486
C        -1.73066955475618    3.01994377186277    0.58363840247426
C        -2.09707137174886    2.46667191418543    1.94820514182371
C        -0.73336712663348    2.29050162146048    2.58443448367057
C         0.24563551188295    2.98013729289501    1.80498251849850
C        -3.37624631575892    0.70677164547208    0.57647268728737
C        -3.39251170669411   -0.72788113114452    0.56830977969420
C        -2.76796859994675   -1.15897256005692    1.78858088051952
C        -2.39020690057383    0.02871286265873    2.53386413976368
C        -2.74943714006724    1.13370124134018    1.81491734972903
C        -1.73621303182251   -3.00175343548274    0.57645227723108
C        -0.36367697387202   -3.43109098766500    0.57322045260029
C         0.25257393611320   -2.98791692750259    1.80822355666295
C        -0.72564778795370   -2.26705978734704    2.56082936234648
C        -1.96950720290131   -2.28060967693902    1.79647088100858
C        -0.24564402115944   -2.99767204531278   -1.81220848817444
C         0.74911070024666   -2.27541926803833   -2.57012847514666
C         1.97007584573859   -2.28088183050434   -1.83729289808398
C         1.83783434368095   -3.18734666805818   -0.64148346166445
C         0.35415977989171   -3.45058926987969   -0.60008553781012
C         2.77666923284991   -1.16370481433561   -1.82699441110810
C         2.40680578242545   -0.00009155851829   -2.58586199537471
C         2.79096841897336    1.16233688978727   -1.82861430465263
C         3.40763369382747    0.71323431973639   -0.60297818406942
C         3.40974605752342   -0.71935374217288   -0.60212924160852
C         1.97839226330348    2.28769210533012   -1.82881155279234
C         0.74958683778306    2.28992737518875   -2.58670069214610
C        -0.23741655513863    3.00730309078444   -1.82320880275177
C         0.37234030275937    3.44489149389991   -0.60103475052059
C         1.74393053164480    3.00608914800975   -0.60298864634713
C        -1.55905843753672    2.57286576229285   -1.80920856379903
C        -1.94313228111974    1.41219555133783   -2.57225398924177
C        -2.93984459668529    0.69070478065688   -1.82141441521088
C        -3.17116406677971    1.40273955933348   -0.59598370885387
C        -2.30735596982586    2.57790209331046   -0.58492214038853
C        -2.94734875538720   -0.70177171949738   -1.83604429715161
C        -1.95113773932027   -1.41736389855800   -2.59173342169325
C        -1.57405712469806   -2.58415112672115   -1.83014368868063
C        -2.33506918121587   -2.58668569440725   -0.61209793418121
C        -3.18426829216050   -1.42683040790643   -0.61567149180352
C        -0.99299816288886   -0.71943151915688   -3.31447716292239
C        -0.99256164498701    0.72256427595974   -3.31024524028023
C         0.37981052705438    1.16814233518682   -3.31559851012885
C         1.22362341682017    0.00237326008109   -3.31796738920743
C         0.37999876986182   -1.15876845876458   -3.31544894972406
Cl       -1.96145789573503   -0.00418166261510    5.23573776214990
Cl       -3.13827321975732    3.62554900837523    2.87424465562634
Cl        2.73906033829472   -4.78853955474485   -0.97516741984744
63
 energy: -142.111889240657 gnorm: 0.007962033108 xtb: 6.4.1 (a3dbbd7)
C        -1.29948226377206    0.01032229718044    3.54902693803041
C        -0.36929398626991   -1.16406276322659    3.31184014887807
C         0.97958966583732   -0.71113474075280    3.28318120106638
C         0.97796802128313    0.72992185259648    3.27858032388012
C        -0.37540104238067    1.18748674798777    3.30716132450953
C         2.35032123392611   -2.57970340538209    0.59832148686173
C         3.16342435220900   -1.41704044123038    0.58184269071101
C         2.94109697391835   -0.68693114300463    1.80938358534680
C         1.95049145169424   -1.40298874807767    2.56297882137343
C         1.57988183581772   -2.56037545400985    1.79423494474899
C         3.18465875091375    1.41820849328425    0.58100126076998
C         2.33542868999001    2.57674648856536    0.57838332610103
C         1.57305924291354    2.57341285102410    1.80364740229887
C         1.94954930196232    1.41873289526575    2.55976897386766
C         2.94579563279062    0.69857238985984    1.80710617115619
C        -0.36889828483788    3.43151187921126    0.58080853577985
C        -1.73161634489059    3.02167076685158    0.58420609069820
C        -2.09805915778029    2.46861050425498    1.94893249953018
C        -0.73425939917498    2.29225747363038    2.58546366768921
C         0.24487978821686    2.98173891805460    1.80569946222289
C        -3.37699464133868    0.70853567448674    0.57681435413173
C        -3.39257786218668   -0.72600679172658    0.56845884815734
C        -2.76721043312819   -1.15735940122508    1.78823828799085
C        -2.39068152629691    0.03041094195615    2.53409136728418
C        -2.75014902042454    1.13548224235520    1.81536664231815
C        -1.73160122998007   -2.99818929550987    0.57490362598239
C        -0.36033290657984   -3.43422542994890    0.57165285459433
C         0.25282559835528   -2.98986529858526    1.80931555093802
C        -0.72435615698697   -2.26611868385540    2.56005486238819
C        -1.96717789702488   -2.27795442198025    1.79496557576361
C        -0.24294511714478   -2.99791786809130   -1.80922546789307
C         0.75176885849629   -2.27562500899489   -2.56720624788087
C         1.97554151302740   -2.28902123361883   -1.83975297117038
C         1.84803283961910   -3.20799799721537   -0.64806197908841
C         0.35871210267520   -3.45951420989452   -0.60159359254760
C         2.77786392592150   -1.16798336154013   -1.82744819788677
C         2.40354798485334   -0.00194315240384   -2.58207298149768
C         2.78817494902136    1.16161381979656   -1.82691648063646
C         3.40620800893029    0.71238390147522   -0.60238236364705
C         3.41195606810960   -0.71954680214487   -0.60315546072017
C         1.97687811296956    2.28798459384886   -1.82799538212016
C         0.74817985687498    2.29122006805381   -2.58617911716245
C        -0.23862238950618    3.00894164857455   -1.82285876799594
C         0.37133786174938    3.44623404550405   -0.60051121339690
C         1.74270592095726    3.00735847231254   -0.60266707431502
C        -1.56056157369545    2.57501909212330   -1.80901797008570
C        -1.94463428944208    1.41434154060213   -2.57224149253797
C        -2.94136116822261    0.69273002711244   -1.82119422659041
C        -3.17255250437652    1.40479875419427   -0.59575913615555
C        -2.30865474902120    2.57996031070311   -0.58452130586308
C        -2.94800386108028   -0.69998171925761   -1.83560908019260
C        -1.95066243584488   -1.41557441570527   -2.59001291510824
C        -1.57156153906536   -2.58187446498073   -1.82860065906481
C        -2.33307534820663   -2.58387120619635   -0.61199714965202
C        -3.18465203740190   -1.42515485628077   -0.61540150239826
C        -0.99297726420744   -0.71788279579118   -3.31241705740170
C        -0.99375273208376    0.72427968368527   -3.30979707607345
C         0.37863865557513    1.16965244666577   -3.31539307682332
C         1.22184627100606    0.00275442522986   -3.31569415314386
C         0.37967848890165   -1.15830134973992   -3.31194311778214
Cl       -1.96437154173010   -0.00213615907656    5.23556024545081
Cl       -3.13995133343078    3.62765220114199    2.87403381904737
Cl        2.75036882880916   -4.80447640388976   -0.97546726844780
63
 energy: -142.111982629445 gnorm: 0.004638002806 xtb: 6.4.1 (a3dbbd7)
C        -1.29987935754177    0.01053301654450    3.54923545146027
C        -0.36976895881303   -1.16400766255974    3.31243749720364
C         0.97919681067951   -0.71105994792754    3.28246841617382
C         0.97784131979505    0.72993760240642    3.27856951611053
C        -0.37556279932689    1.18775768929954    3.30757465766635
C         2.34727509737813   -2.57876789878935    0.59498951195952
C         3.16229714184057   -1.41870276460635    0.57973574494049
C         2.93909310794349   -0.68696236278483    1.80739830662473
C         1.94911888762352   -1.40281263150113    2.56079536792580
C         1.57968548467506   -2.56167245248277    1.79199871758182
C         3.18440076451405    1.41870099136393    0.58073153338038
C         2.33524884779122    2.57690847854188    0.57824377623589
C         1.57303739395679    2.57377219212128    1.80377492014014
C         1.94943856853071    1.41877941191023    2.55969210005015
C         2.94507638690133    0.69841592744096    1.80655851306570
C        -0.36910207095008    3.43181020018267    0.58097560112791
C        -1.73174363902530    3.02191042755240    0.58436371583702
C        -2.09830638214277    2.46904709360169    1.94920405597141
C        -0.73440512147111    2.29258972629674    2.58586273460708
C         0.24485042931145    2.98204351809364    1.80592767134582
C        -3.37743531323995    0.70913478807436    0.57697198758634
C        -3.39260989119312   -0.72528026454379    0.56853428517746
C        -2.76709609069865   -1.15697196938057    1.78815304246335
C        -2.39087360298156    0.03080655623051    2.53414787925917
C        -2.75048947521091    1.13595201765243    1.81559548955680
C        -1.72923617656960   -2.99634349581994    0.57397254081585
C        -0.35879961742371   -3.43564011617421    0.57113799498792
C         0.25236135946903   -2.99121121374487    1.81062952705206
C        -0.72409570357723   -2.26612603381668    2.56029516123243
C        -1.96595305558452   -2.27668790469526    1.79414938214883
C        -0.24172963891023   -2.99758929619686   -1.80742606168931
C         0.75299637270403   -2.27526196948605   -2.56541778304223
C         1.97862066492077   -2.29338594459917   -1.84055057485380
C         1.85190971248220   -3.21622509533163   -0.65089290310661
C         0.36148426067682   -3.46411787995950   -0.60206227152457
C         2.77864934570684   -1.16984821325258   -1.82761016546062
C         2.40189380377299   -0.00299818147378   -2.58022801872693
C         2.78685309776876    1.16114861476226   -1.82610559443563
C         3.40620093913782    0.71230970839364   -0.60234890955453
C         3.41384440170130   -0.71906101074019   -0.60397768766825
C         1.97644261126331    2.28810481868851   -1.82781078914566
C         0.74762369476920    2.29175300585663   -2.58596558713014
C        -0.23907318402472    3.00965453797539   -1.82283808177526
C         0.37107771162161    3.44668999398490   -0.60042151851279
C         1.74241752813510    3.00788872227508   -0.60271235449451
C        -1.56118383870229    2.57583914895758   -1.80908652624492
C        -1.94534789930757    1.41522626330439   -2.57246651126379
C        -2.94222657556976    0.69348845586896   -1.82124730088637
C        -3.17327414343149    1.40549715122810   -0.59575998696643
C        -2.30908865689545    2.58054607832785   -0.58441554530524
C        -2.94854797651616   -0.69933504959486   -1.83538536204310
C        -1.95034897750069   -1.41463825455482   -2.58903853934126
C        -1.57008505986783   -2.58035784631818   -1.82773312363671
C        -2.33221678384538   -2.58259630325739   -0.61185351265521
C        -3.18508509270867   -1.42446763240331   -0.61527383314652
C        -0.99291060540186   -0.71708008029845   -3.31120449321610
C        -0.99418892081609    0.72512648218671   -3.30977151515256
C         0.37817431956348    1.17047518804307   -3.31542547144738
C         1.22116331209397    0.00300911719107   -3.31464918506826
C         0.37935728237806   -1.15797408011184   -3.30968439732811
Cl       -1.96593856693292   -0.00139579063014    5.23546390986337
Cl       -3.14030810108589    3.62848115088192    2.87369608986845
Cl        2.75325936797341   -4.80497030395206   -0.97199109031005
63
 energy: -142.112022001938 gnorm: 0.002491461630 xtb: 6.4.1 (a3dbbd7)
C        -1.29991031981115    0.01026318863142    3.54928857287724
C        -0.36997873209683   -1.16436164253357    3.31285135483033
C         0.97916360255079   -0.71138092815684    3.28233224692790
C         0.97796204264959    0.72951488696683    3.27835485126627
C        -0.37542586441247    1.18743328789596    3.30758795367860
C         2.34489576869231   -2.57731380109138    0.59318786392230
C         3.16155335489451   -1.41910799696210    0.57870807486329
C         2.93830438377954   -0.68699760877785    1.80668134326729
C         1.94866138017682   -1.40277112543707    2.55997084700666
C         1.57929963478242   -2.56202269526367    1.79102922537599
C         3.18465919997062    1.41884281146777    0.58047885038964
C         2.33546522936998    2.57675134815914    0.57808757581004
C         1.57325880466105    2.57355990131730    1.80370625053819
C         1.94957853085386    1.41840879035458    2.55949784242209
C         2.94517172717491    0.69820900358433    1.80635700769757
C        -0.36891377528319    3.43149860218734    0.58095528851755
C        -1.73149420213110    3.02154395648689    0.58434531887548
C        -2.09812513921270    2.46877039474703    1.94921514428491
C        -0.73421272141018    2.29227982913486    2.58590774565561
C         0.24508639610305    2.98172455911157    1.80591900206319
C        -3.37747182476716    0.70905077100407    0.57702936843117
C        -3.39259834304051   -0.72526418106263    0.56852652142298
C        -2.76728116076602   -1.15722845186966    1.78821215933724
C        -2.39083288490622    0.03057005574367    2.53413716192707
C        -2.75044889869634    1.13575503139669    1.81567455570890
C        -1.72864221242525   -2.99584106683512    0.57354971260263
C        -0.35856902672897   -3.43560683279590    0.57099006136056
C         0.25180864831488   -2.99176514636664    1.81143396291074
C        -0.72429029135811   -2.26654948921760    2.56070651389046
C        -1.96566756587058   -2.27649550214351    1.79390677425855
C        -0.24156393234841   -2.99697301689396   -1.80662355920241
C         0.75319818144435   -2.27462244786782   -2.56460497618999
C         1.97934859915480   -2.29432383987513   -1.84039214239677
C         1.85313509631729   -3.21873080992928   -0.65165413161857
C         0.36232636111414   -3.46494466590717   -0.60198037475780
C         2.77862989736245   -1.17002672196026   -1.82759272363164
C         2.40138106408198   -0.00334805413161   -2.57987041256035
C         2.78664222759818    1.16098488260200   -1.82604631291295
C         3.40672876325600    0.71246679982644   -0.60260841478771
C         3.41480057491246   -0.71848690831635   -0.60444092782153
C         1.97660789543454    2.28811813206957   -1.82796888696908
C         0.74757948035306    2.29176961501601   -2.58596178270341
C        -0.23904025634139    3.00967424509435   -1.82287903802840
C         0.37121620562794    3.44659083145885   -0.60046496913522
C         1.74258252702096    3.00789204476114   -0.60285331417316
C        -1.56120101531856    2.57580227832547   -1.80913738030983
C        -1.94546454855447    1.41530463824586   -2.57262553903157
C        -2.94245750180826    0.69350052615726   -1.82132273903123
C        -3.17334521876257    1.40540803452275   -0.59579764901894
C        -2.30901590258540    2.58039665383305   -0.58440586397603
C        -2.94886744020368   -0.69935635580337   -1.83535083330091
C        -1.95028525760421   -1.41441313195061   -2.58879598805957
C        -1.56968567308910   -2.57976961755861   -1.82754353786600
C        -2.33223131134058   -2.58241836025923   -0.61182317631851
C        -3.18546401842737   -1.42442928937046   -0.61530925899415
C        -0.99289137611505   -0.71687321539719   -3.31087062201912
C        -0.99420890327340    0.72534095512227   -3.30994101239541
C         0.37810022591525    1.17075862817987   -3.31565301892496
C         1.22108492733099    0.00315685783953   -3.31460585827286
C         0.37912389737629   -1.15780924290836   -3.30894572899527
Cl       -1.96643472729693   -0.00127843676184    5.23542953271294
Cl       -3.13995360214482    3.62851238970208    2.87347840793717
Cl        2.75259776966835   -4.79955492328978   -0.96753651507956
63
 energy: -142.112034328762 gnorm: 0.001379153929 xtb: 6.4.1 (a3dbbd7)
C        -1.29976238387854    0.00998462618506    3.54924070427912
C        -0.36995694067749   -1.16464129376538    3.31289871249504
C         0.97925975221823   -0.71166112624973    3.28250298656076
C         0.97809611560773    0.72921055878451    3.27824307398114
C        -0.37526680676234    1.18710672531123    3.30744844484802
C         2.34406951253590   -2.57638772389285    0.59300128454550
C         3.16129103361347   -1.41877278434453    0.57870508911319
C         2.93848574986130   -0.68703884848049    1.80692579061667
C         1.94887171917372   -1.40283302039201    2.56021616429879
C         1.57903702583126   -2.56171526898651    1.79105105731213
C         3.18495506736233    1.41875606315110    0.58038794154804
C         2.33569382251004    2.57654627181704    0.57804294572734
C         1.57341176243549    2.57326819988083    1.80363224170468
C         1.94972320292360    1.41813246031403    2.55941870361430
C         2.94551120419407    0.69811176998868    1.80639880708818
C        -0.36871067164096    3.43121142347282    0.58092224025169
C        -1.73128121564557    3.02125455074723    0.58431784113329
C        -2.09791054473380    2.46845669905528    1.94916738986160
C        -0.73402645419717    2.29196587847887    2.58582484386751
C         0.24526152241154    2.98140945605185    1.80586581558146
C        -3.37733327435462    0.70879935700479    0.57702758622011
C        -3.39259030383332   -0.72549548370611    0.56847533398037
C        -2.76746571337736   -1.15754618248731    1.78827606671072
C        -2.39075356825354    0.03027624974938    2.53413650078568
C        -2.75029385276321    1.13547334786137    1.81567745002892
C        -1.72907637406952   -2.99615965650763    0.57353773847355
C        -0.35897555436807   -3.43517899947969    0.57096107617554
C         0.25157235459981   -2.99172792503687    1.81147110765167
C        -0.72452794407881   -2.26689535684759    2.56084794475140
C        -1.96595601639626   -2.27685285535109    1.79402423534605
C        -0.24188416667187   -2.99673005163776   -1.80675692382617
C         0.75292629707314   -2.27436119746317   -2.56474058083063
C         1.97876066566677   -2.29348094711622   -1.84014115152170
C         1.85319526902801   -3.21859930835712   -0.65140016646979
C         0.36186058664096   -3.46397389991599   -0.60185046843095
C         2.77832297637995   -1.16957839219869   -1.82762703001939
C         2.40158255710983   -0.00324204429314   -2.58030027341605
C         2.78699827877087    1.16104209184994   -1.82635372738733
C         3.40712285011830    0.71254293425621   -0.60285641870973
C         3.41481933198474   -0.71830625966930   -0.60454066307830
C         1.97687193363918    2.28807762966990   -1.82814443309058
C         0.74772933498218    2.29159857507156   -2.58604234711815
C        -0.23885327759890    3.00944050871797   -1.82288698378005
C         0.37141684908674    3.44636264296180   -0.60049052376884
C         1.74280749598113    3.00771081347403   -0.60292164345069
C        -1.56099771100576    2.57552087797872   -1.80911690673629
C        -1.94529940218978    1.41508770376275   -2.57262786170327
C        -2.94230371231285    0.69328899511161   -1.82133364225559
C        -3.17313238538370    1.40513822346858   -0.59580586898262
C        -2.30882469988065    2.58013870625165   -0.58440578037052
C        -2.94890159279595   -0.69956223807324   -1.83542562685999
C        -1.95038350469768   -1.41458573828371   -2.58901800077892
C        -1.56997881616262   -2.57994630997224   -1.82778396081676
C        -2.33257917709597   -2.58274713947245   -0.61190013357795
C        -3.18559982147642   -1.42463211234996   -0.61542051346087
C        -0.99292607448217   -0.71700765533190   -3.31111752001250
C        -0.99409885224567    0.72521340810801   -3.31006947231872
C         0.37818278588795    1.17067363419824   -3.31583546226708
C         1.22123860576425    0.00317269036449   -3.31499168162071
C         0.37906859480536   -1.15782998266091   -3.30933326160345
Cl       -1.96605546250943   -0.00144984939623    5.23550177592530
Cl       -3.13959912650184    3.62823989987695    2.87352110999457