63
 energy: -142.055526540084 gnorm: 0.133683335477 xtb: 6.4.1 (a3dbbd7)
C        -1.29750015586385   -0.00332986390914    3.53259128384291
C        -0.36662330751186   -1.17665276848352    3.30664507069186
C         0.98616964776834   -0.71907897730420    3.28345800331063
C         0.97960460534774    0.72298388992876    3.28116382332211
C        -0.37123063139343    1.17283027203526    3.30703999424566
C         2.33902808225222   -2.57287964708243    0.59282134541102
C         3.18775381441874   -1.40592934941989    0.58930269986468
C         2.95375934983025   -0.68600072575484    1.81413225258493
C         1.96120405920183   -1.41040140165925    2.57054878390017
C         1.59036597905156   -2.57351223230031    1.81677968982536
C         3.18509045263714    1.42556506459426    0.58677401618036
C         2.33644918538866    2.58955715701350    0.58712295456856
C         1.57732702745437    2.58269052266160    1.81121996042124
C         1.95121649520604    1.42062240906665    2.56339217358200
C         2.94734969899541    0.70178584035143    1.81241871801286
C        -0.36230865601760    3.44984460076387    0.58649915495812
C        -1.73568065385573    3.00856312776383    0.58620129080773
C        -1.97466648707238    2.29051782036392    1.80819368403138
C        -0.73502216685138    2.27460254582232    2.56651749222581
C         0.25013328780141    2.99673212004624    1.80718987334861
C        -3.40556373000186    0.73624756401696    0.57396823263447
C        -3.39656113686751   -0.70087893853968    0.57336766874418
C        -2.76869398640548   -1.13743152688347    1.81131829425690
C        -2.41606481668825   -0.00935770106357    2.54947016075177
C        -2.77763293498784    1.16181023849822    1.80199827311876
C        -1.73897950039868   -3.00369688886198    0.61027095302842
C        -0.34675175341818   -3.43911314840585    0.58927014667112
C         0.26540959524459   -2.99405405130769    1.81086784239501
C        -0.72448106648574   -2.27696612285733    2.56655534431523
C        -1.96661719091772   -2.30337153119419    1.80189055009829
C        -0.25303910441721   -3.21697439825626   -1.93515078628168
C         0.75308145440921   -2.28653916290657   -2.57867440920420
C         1.95238411039292   -2.27005430543362   -1.81108187299871
C         1.72490810125568   -2.99201887192918   -0.58363119559495
C         0.37557574680441   -3.46024706207600   -0.57873868952343
C         2.78760429110383   -1.15277384641970   -1.81491371839878
C         2.41431409213368    0.00739165047242   -2.57035366353322
C         2.79604684339575    1.17540453813949   -1.81886357647572
C         3.41064679229982    0.73155426330899   -0.59398339018568
C         3.40671134080570   -0.71156461677298   -0.59219407131255
C         1.97416914155198    2.29602882113511   -1.81673739726529
C         0.74456425139311    2.29447798281708   -2.57376768155679
C        -0.24519477981105    3.02272291127020   -1.82308616330370
C         0.36643514376396    3.45792956944505   -0.59428177351760
C         1.74064009670815    3.01454722219930   -0.59425933402647
C        -1.56829205833959    2.59366542792251   -1.82366590722493
C        -1.95096538781572    1.43092752853070   -2.58180486333857
C        -2.95240685827341    0.71446038976117   -1.82971357566041
C        -3.18630415806833    1.43422379644892   -0.60509868332397
C        -2.32927637798178    2.59497169040384   -0.60132137479790
C        -2.94754506526652   -0.67313005777755   -1.82391405444887
C        -1.94410239546657   -1.40286442546858   -2.56150397187270
C        -1.58527622402766   -2.56555974461748   -1.79963026731950
C        -2.30667368088430   -2.55904727586024   -0.60742050910323
C        -3.17269142016400   -1.38977890440225   -0.59872192408106
C        -0.99841208662573   -0.71329160109820   -3.30239014224414
C        -0.99320180548013    0.72405697444618   -3.30061797729521
C         0.37942274041569    1.16763777902732   -3.29646704633613
C         1.22337490988637    0.00222195938508   -3.28765862798480
C         0.38284144139822   -1.16484842740713   -3.28531009498081
Cl       -1.93980801969369   -0.00660548094091    5.24287063977443
Cl       -0.38906216058057   -4.77802061432624   -2.87495725020283
Cl        2.40583694013969   -3.89370253129692    2.74855470883867
63
 energy: -142.079401725438 gnorm: 0.056113711818 xtb: 6.4.1 (a3dbbd7)
C        -1.29839640221397   -0.00140173800779    3.53100741360145
C        -0.36971790387795   -1.17499204358014    3.30668400225921
C         0.98334047391840   -0.70926691092705    3.27351520563503
C         0.97900907162105    0.73022988028850    3.28143833429663
C        -0.37229507677110    1.17582831897930    3.30612224359754
C         2.34113770530214   -2.56433610197021    0.58033344628731
C         3.17768265082958   -1.40037319973967    0.58257173521334
C         2.94326899743527   -0.67913919915883    1.80964141883344
C         1.96114802372077   -1.39517695895301    2.56946464003717
C         1.63993273675783   -2.65295045135071    1.87293536352869
C         3.18456206662535    1.43017764027002    0.58472309711354
C         2.33673279029555    2.59408507798447    0.58544558401963
C         1.57730026544571    2.58732056419180    1.80933557704634
C         1.95242421997018    1.42745061019007    2.56310734437829
C         2.94657648968239    0.71049628335187    1.81228939849695
C        -0.36288173101217    3.45195408244500    0.58541256192402
C        -1.73600507957198    3.00979048391100    0.58539826095572
C        -1.97528590469253    2.29245975846866    1.80759398284787
C        -0.73605803890446    2.27731289852786    2.56531453745728
C         0.24954424120458    2.99931160433232    1.80577334396224
C        -3.40642433664595    0.73807889258946    0.57304773621023
C        -3.39986801082536   -0.69881698955197    0.57168463435899
C        -2.77498651907442   -1.13542645710464    1.81055948704038
C        -2.41793793843118   -0.00755443828048    2.54840315413892
C        -2.77868008745719    1.16327362968315    1.80127571902292
C        -1.74988324422748   -3.00203658505659    0.60750680681978
C        -0.35531804073857   -3.42850981759626    0.58839729302008
C         0.24519980380992   -3.00750698546675    1.81490848761244
C        -0.73109948878161   -2.27231079463629    2.55554238325510
C        -1.97743344767379   -2.30193679057989    1.79869308123101
C        -0.25399772961455   -3.21482222179225   -1.93633751141723
C         0.75231296325991   -2.28445551718429   -2.58114405491032
C         1.95305423872010   -2.26674552162644   -1.81752880623889
C         1.72106063459205   -2.97910565941857   -0.58831440765263
C         0.37292826361123   -3.45999796978824   -0.58103513878811
C         2.78976313575246   -1.14890700795034   -1.82024720927189
C         2.41451767903141    0.01130640101492   -2.57344747363739
C         2.79658770504610    1.17914855234807   -1.82188406431209
C         3.41032617389172    0.73552554574115   -0.59713224508006
C         3.40734800255033   -0.70721316992247   -0.59975530473419
C         1.97351579036516    2.29925654706544   -1.81872941460000
C         0.74408420041904    2.29652482290828   -2.57501961060467
C        -0.24568555572506    3.02424894658896   -1.82408564138144
C         0.36596958192179    3.45994041978355   -0.59560431595275
C         1.73999864954369    3.01775299906973   -0.59629195578944
C        -1.56841306698701    2.59470018844105   -1.82429556405684
C        -1.95111148907286    1.43199201932617   -2.58241326341027
C        -2.95289490030123    0.71597130698835   -1.83061895724525
C        -3.18679128009890    1.43567714661855   -0.60611437508198
C        -2.32941138620522    2.59599340436841   -0.60200278613080
C        -2.94830009190514   -0.67156826143547   -1.82529397904070
C        -1.94505695552369   -1.40169977355836   -2.56272487684343
C        -1.58705645112333   -2.56406945465138   -1.80120710972742
C        -2.31251249380012   -2.55843745005604   -0.61052882269299
C        -3.17594476768405   -1.38784885348384   -0.60062295984378
C        -0.99885460906491   -0.71190645464853   -3.30395467770899
C        -0.99353556507129    0.72529844908703   -3.30139301280838
C         0.37892117754601    1.16951033840359   -3.29792070688966
C         1.22283915841192    0.00461450134878   -3.28936887606798
C         0.38195451364839   -1.16264522771732   -3.28737077122085
Cl       -1.93929088862941   -0.00698817126783    5.24216702346995
Cl       -0.38882755020701   -4.77747289747314   -2.87413344394572
Cl        2.47970358780616   -4.00271276475769    2.82672912578404
63
 energy: -142.085264805240 gnorm: 0.012413422858 xtb: 6.4.1 (a3dbbd7)
C        -1.29845751008550   -0.00206171505793    3.52746041964279
C        -0.36922760905484   -1.17723326809675    3.31086185902502
C         0.98506963572091   -0.71163758661524    3.26788225819140
C         0.97588524793692    0.72830043894332    3.27300792068212
C        -0.37415356405851    1.17609212667898    3.30147998383585
C         2.34512645493974   -2.56797215002704    0.58086743515376
C         3.16327895670771   -1.40217459263333    0.58031962989810
C         2.92871640631515   -0.68046526907405    1.80821423873374
C         1.96448920844204   -1.39681003256236    2.57343889060574
C         1.68609782865888   -2.72143637756267    1.92200638429809
C         3.18069958877148    1.43216572230549    0.58293689815613
C         2.33502850662181    2.59759779494599    0.58300661843638
C         1.57591431202943    2.59171064600505    1.80714578554238
C         1.94954774201982    1.42921563115441    2.55825639545379
C         2.94088248946006    0.71217887157946    1.81013736221143
C        -0.36441139317072    3.45513920470068    0.58324325032600
C        -1.73756832575933    3.01280868963560    0.58318437253982
C        -1.97685540893242    2.29578979869699    1.80553320126295
C        -0.73788495839165    2.27959497938412    2.56277591550535
C         0.24788627651979    3.00279870599722    1.80365185850781
C        -3.40804035473793    0.74126055633520    0.57076939707618
C        -3.40227565701165   -0.69571243638957    0.56956732242416
C        -2.77547404275914   -1.13200064628751    1.80786623315645
C        -2.41950219018035   -0.00426583213328    2.54628759586543
C        -2.78001998392126    1.16608095390453    1.79914762212837
C        -1.74729008269724   -2.99516354064694    0.60471956346628
C        -0.35091958481961   -3.41989896744226    0.59212235714549
C         0.24326145264133   -3.00787275965258    1.81474815281597
C        -0.72449419470691   -2.27046150089010    2.54776047383617
C        -1.97462574502407   -2.29568985442765    1.79480293689051
C        -0.25513794000236   -3.21218672930084   -1.93422932382777
C         0.74931272927448   -2.28069381262120   -2.57982299758058
C         1.94743573144851   -2.26103387459102   -1.81297402145511
C         1.72074418273611   -2.97520685099703   -0.58329798254056
C         0.37418467259873   -3.46462328144738   -0.58087176811977
C         2.78597193291495   -1.14435502673826   -1.82036081294394
C         2.41330973369998    0.01513928334399   -2.57657750532162
C         2.79487038212851    1.18270869144079   -1.82425021651917
C         3.40649469302996    0.73741831921658   -0.59908775006292
C         3.40162287364460   -0.70545535802081   -0.60179086155839
C         1.97176170139815    2.30345813178232   -1.82148981281105
C         0.74259958047304    2.30023385638721   -2.57747363331696
C        -0.24730346873263    3.02794843774622   -1.82657439441003
C         0.36448892698741    3.46364156372918   -0.59807716590790
C         1.73825898322544    3.02192071950370   -0.59911340611495
C        -1.56967844549947    2.59780898315517   -1.82636091976655
C        -1.95253997822964    1.43510667843482   -2.58444606217130
C        -2.95449522558629    0.71916768133207   -1.83275944962496
C        -3.18839060262642    1.43884067536444   -0.60832159910179
C        -2.33082257774551    2.59904665980687   -0.60414326091943
C        -2.94993119520231   -0.66830207539295   -1.82742952715536
C        -1.94645635032437   -1.39871377332348   -2.56453896029208
C        -1.58859175901892   -2.56089170912300   -1.80349355968761
C        -2.31315393462040   -2.55452358285835   -0.61237906795949
C        -3.17829600200126   -1.38488566797255   -0.60297657546397
C        -1.00037367484210   -0.70874143013322   -3.30630645873014
C        -0.99514004448847    0.72843400435170   -3.30340057562459
C         0.37739073994282    1.17268899991085   -3.30007195743203
C         1.22124394244100    0.00788644713896   -3.29183424081752
C         0.37988056183790   -1.15964657919835   -3.28867854291898
Cl       -1.93894064757422   -0.00548093658065    5.23933852829417
Cl       -0.38905640631616   -4.77421786487240   -2.87403318622934
Cl        2.53084234437775   -4.08546869461817    2.88512582164743
63
 energy: -142.085572159609 gnorm: 0.007540422679 xtb: 6.4.1 (a3dbbd7)
C        -1.29832471842735   -0.00220496542840    3.52648079515759
C        -0.36863313211591   -1.17832575880270    3.31445698019482
C         0.98719444252477   -0.71591355452878    3.27005476859483
C         0.97473438861845    0.72505347921080    3.26826086746141
C        -0.37430609996089    1.17489141559039    3.29800878274796
C         2.34943923450946   -2.57615654798399    0.58550073542068
C         3.15887450953275   -1.40530724046130    0.58109898935675
C         2.92425314973979   -0.68340783139341    1.80931941475191
C         1.96852812177450   -1.40414367865592    2.57952666807982
C         1.69888895857973   -2.73821019662119    1.93430823606680
C         3.17750820407744    1.43188029058687    0.58211903623651
C         2.33352448990758    2.59862233055233    0.58180475919268
C         1.57462962813491    2.59276677691432    1.80589383784755
C         1.94737306987787    1.42828237496294    2.55533263462876
C         2.93723772005771    0.71029581946297    1.80825062209489
C        -0.36551166304767    3.45707025712509    0.58202534952852
C        -1.73871182340052    3.01462579830278    0.58202520823524
C        -1.97777926321704    2.29747963185542    1.80458231246036
C        -0.73847501923346    2.27986415209469    2.56115420716451
C         0.24678291354034    3.00401923160401    1.80224158881431
C        -3.40857125973127    0.74268740906868    0.56991634700939
C        -3.40187097780618   -0.69433834046781    0.56878781877090
C        -2.77328720063243   -1.13048930111786    1.80638395540816
C        -2.41919125377636   -0.00287995502366    2.54529010749375
C        -2.78050303917965    1.16751125826367    1.79841156365960
C        -1.74259139885440   -2.99160650734789    0.60393396312298
C        -0.34605695290570   -3.41940526715465    0.59442798574032
C         0.24806196145608   -3.00669991122508    1.81497322880465
C        -0.71916823388740   -2.27138535697469    2.54764934073763
C        -1.96981293436530   -2.29247690697541    1.79342364023592
C        -0.25530729350112   -3.21142594930065   -1.93364408261257
C         0.74801368567499   -2.27837187981861   -2.57729388231477
C         1.94450038670508   -2.25880408955601   -1.80840343705487
C         1.72265723864912   -2.97884530766445   -0.58004228647946
C         0.37556360637745   -3.46813948365753   -0.58138708034747
C         2.78294773454965   -1.14268598983283   -1.81885426870900
C         2.41191667867340    0.01652450787316   -2.57726564269433
C         2.79327960907221    1.18400182890708   -1.82499653022040
C         3.40319792918829    0.73745595626230   -0.59935723968009
C         3.39733857564691   -0.70538076596902   -0.60034799790350
C         1.97071690012461    2.30545494178623   -1.82295752586685
C         0.74161908387371    2.30238976622104   -2.57910202912051
C        -0.24845217897473    3.03015949933124   -1.82809368838926
C         0.36345976463273    3.46594643951144   -0.59945376944529
C         1.73718760371473    3.02400001202778   -0.60044140027696
C        -1.57075851083727    2.59964803868126   -1.82764781750839
C        -1.95365604769909    1.43683676662611   -2.58577353917628
C        -2.95540699945780    0.72062306550729   -1.83387910761709
C        -3.18932797293280    1.44037285539545   -0.60931330349884
C        -2.33196654455316    2.60085959560409   -0.60533221745077
C        -2.95043565392559   -0.66695089142002   -1.82840980135764
C        -1.94688361804963   -1.39745425077335   -2.56556134492435
C        -1.58834820333359   -2.55930125197057   -1.80414040883684
C        -2.31124403454996   -2.55215283120061   -0.61239934259221
C        -3.17790217574794   -1.38347066759371   -0.60368555985152
C        -1.00123651442450   -0.70724028667840   -3.30757666865823
C        -0.99624741794930    0.73014033930784   -3.30474431765979
C         0.37632713338748    1.17450931390165   -3.30147140081445
C         1.22000656142655    0.00951447305387   -3.29254242738191
C         0.37891628242278   -1.15823182036734   -3.28834433468426
Cl       -1.93944621167768   -0.00139681385536    5.23853110805361
Cl       -0.38911774854343   -4.77155881963937   -2.87728196343385
Cl        2.53664149107075   -4.10222573050917    2.89607064985837
63
 energy: -142.085660812816 gnorm: 0.004570453260 xtb: 6.4.1 (a3dbbd7)
C        -1.29836429645656   -0.00176116335546    3.52651273736263
C        -0.36885674943906   -1.17825463455949    3.31701045273506
C         0.98800246587286   -0.71796678299490    3.27165291591073
C         0.97440502713882    0.72336406207554    3.26595131518123
C        -0.37402496246739    1.17417838007605    3.29624298703114
C         2.35134643343903   -2.58074049338329    0.58805838571770
C         3.15612259591143   -1.40671263071921    0.58123481054992
C         2.92145669018522   -0.68467140833096    1.80969766122071
C         1.97029879458770   -1.40830139238266    2.58281407156010
C         1.70408492288282   -2.74462739505786    1.93907248664854
C         3.17590455045324    1.43166945307311    0.58170347911868
C         2.33295375452240    2.59916930225558    0.58148621050409
C         1.57409042061397    2.59333367712086    1.80548090095914
C         1.94636439131114    1.42788568604517    2.55406519633421
C         2.93513985348287    0.70920436688434    1.80692109063157
C        -0.36599378901921    3.45783582966170    0.58169658815682
C        -1.73919187963760    3.01522974900286    0.58180938297245
C        -1.97823029759167    2.29810323355400    1.80457579712632
C        -0.73864015842858    2.27999938831172    2.56081932069466
C         0.24629936090056    3.00442231940595    1.80175059984801
C        -3.40874848569982    0.74303781525843    0.56997014398112
C        -3.40127594911942   -0.69396680749422    0.56864801787441
C        -2.77185778890269   -1.12991653214854    1.80588659838299
C        -2.41896215752234   -0.00246391542170    2.54522681081997
C        -2.78083652259080    1.16806092075095    1.79862570290637
C        -1.73971502033540   -2.98962583145979    0.60357285117028
C        -0.34306218781393   -3.41909715357634    0.59533629668356
C         0.25127994504705   -3.00426467519348    1.81415558413485
C        -0.71602976994839   -2.27151632604656    2.54780612606729
C        -1.96686554681914   -2.29071079462813    1.79269278544976
C        -0.25526442270107   -3.21125420557430   -1.93405575608325
C         0.74767702753578   -2.27718338858024   -2.57582141256093
C         1.94327268106207   -2.25773662958190   -1.80602228063172
C         1.72352784222108   -2.98109846665114   -0.57878491298901
C         0.37606961577104   -3.47031651182897   -0.58265088072942
C         2.78157535759438   -1.14196934899766   -1.81822538392621
C         2.41138320700492    0.01707201241830   -2.57770952129840
C         2.79273995351088    1.18445462542895   -1.82547554863941
C         3.40152933216561    0.73744495037592   -0.59943329981391
C         3.39480453523294   -0.70513491000460   -0.59940208389683
C         1.97048581054246    2.30623707695272   -1.82360983178901
C         0.74133912462582    2.30307824623451   -2.57972586257299
C        -0.24883237431439    3.03077135468881   -1.82852606463857
C         0.36313368109665    3.46677614910662   -0.59983781912217
C         1.73691517033518    3.02490930905016   -0.60087788939953
C        -1.57104502608383    2.59996499554848   -1.82788899427763
C        -1.95400302142608    1.43714464905492   -2.58612214680146
C        -2.95564082990924    0.72077940782651   -1.83410439746546
C        -3.18958619786047    1.44060451208817   -0.60941117247720
C        -2.33234194630487    2.60125353755242   -0.60553525471468
C        -2.95053068690854   -0.66685089948743   -1.82878128440201
C        -1.94704965194123   -1.39741660950432   -2.56621700089057
C        -1.58808063550727   -2.55900105403099   -1.80440206028395
C        -2.30993290926404   -2.55121080292498   -0.61226983867731
C        -3.17731553745576   -1.38306967760302   -0.60377515988618
C        -1.00156341764455   -0.70699768378962   -3.30823094971171
C        -0.99666303995388    0.73054689980169   -3.30529500271267
C         0.37590490921562    1.17509258054789   -3.30210823533761
C         1.21947830921924    0.01005386907434   -3.29279745675041
C         0.37868995829975   -1.15790807628049   -3.28835532846018
Cl       -1.93981750250809    0.00250015564886    5.23877770616256
Cl       -0.38878225353014   -4.76986951773727   -2.88080510313621
Cl        2.53361825414563   -4.10566331992299    2.89750400654917
63
 energy: -142.085699524249 gnorm: 0.002604032814 xtb: 6.4.1 (a3dbbd7)
C        -1.29833253451353   -0.00142793710842    3.52690412855765
C        -0.36926076069504   -1.17788975916154    3.31842977388601
C         0.98807740670226   -0.71839496549489    3.27212702714888
C         0.97453557299715    0.72284217982665    3.26533972325757
C        -0.37368388151726    1.17386555620984    3.29572131998114
C         2.35159735356145   -2.58196631901301    0.58876236271052
C         3.15473828623595   -1.40688448767751    0.58097108513800
C         2.92004434375790   -0.68475720351837    1.80957941406592
C         1.97053139501562   -1.40947167391248    2.58361334075103
C         1.70575051957199   -2.74675646038939    1.94064182457021
C         3.17551189663403    1.43162604605294    0.58158831776986
C         2.33293090591000    2.59939559379653    0.58159816963149
C         1.57406065699077    2.59359322263162    1.80554615793516
C         1.94621754735495    1.42790837037521    2.55388213275944
C         2.93451521868884    0.70892376112879    1.80633529187946
C        -0.36609814320676    3.45781763063188    0.58179653071364
C        -1.73926694777808    3.01509167046077    0.58199251861009
C        -1.97833169037619    2.29804850934561    1.80488595089728
C        -0.73862047928436    2.28005864073185    2.56111371748047
C         0.24621627926410    3.00437698910292    1.80177127711533
C        -3.40874169285635    0.74286141342067    0.57032787460757
C        -3.40085210211715   -0.69410048769982    0.56879733787126
C        -2.77126424434367   -1.12990155487759    1.80596025160392
C        -2.41883023146611   -0.00256231206511    2.54558317309808
C        -2.78100736380244    1.16806507782732    1.79912564367999
C        -1.73867839659493   -2.98897633158781    0.60350607429148
C        -0.34178859815414   -3.41849808051977    0.59541081578092
C         0.25266776517054   -3.00170251189048    1.81291440363833
C        -0.71470636156749   -2.27107225570733    2.54761232956800
C        -1.96579754140651   -2.29016344299965    1.79245441409397
C        -0.25507088429872   -3.21142125734061   -1.93450856637245
C         0.74780794741426   -2.27684052987538   -2.57522804280942
C         1.94314267818508   -2.25745650148424   -1.80526805372035
C         1.72366093146624   -2.98170363664511   -0.57861056205258
C         0.37614105376996   -3.47140588920564   -0.58370566679942
C         2.78139025375649   -1.14182719821739   -1.81820382980906
C         2.41141550179841    0.01714103443663   -2.57796815683049
C         2.79278689558111    1.18446848584742   -1.82572598553883
C         3.40112026793409    0.73745489439469   -0.59945666147484
C         3.39400585096989   -0.70488038562075   -0.59907504671449
C         1.97056909015996    2.30629643283481   -1.82372514976267
C         0.74135333665481    2.30294940000581   -2.57969867956250
C        -0.24886435875166    3.03055220756656   -1.82840245435937
C         0.36313293812807    3.46669083430370   -0.59973452287969
C         1.73697118690786    3.02505043890032   -0.60085377230282
C        -1.57098173162181    2.59959319262701   -1.82765884783133
C        -1.95396485594168    1.43679649589413   -2.58593861694651
C        -2.95556518782129    0.72039478385829   -1.83389228072455
C        -3.18951767282496    1.44024290407374   -0.60916044423275
C        -2.33231244790029    2.60092879793643   -0.60531176614466
C        -2.95045316253309   -0.66724334773074   -1.82879205358853
C        -1.94707149509760   -1.39786834158599   -2.56649356312085
C        -1.58787013681923   -2.55932612103207   -1.80443876746288
C        -2.30934889881493   -2.55117225067719   -0.61215427451981
C        -3.17689309939446   -1.38319651867251   -0.60361408780477
C        -1.00158012591041   -0.70730566983640   -3.30834954832396
C        -0.99670479735419    0.73031020098840   -3.30527988230615
C         0.37583060030719    1.17498342957232   -3.30216372111476
C         1.21939735495321    0.01000064727040   -3.29278917836942
C         0.37880163674300   -1.15812638460409   -3.28853205577065
Cl       -1.94002039669094    0.00547177167883    5.23935794145322
Cl       -0.38834579999199   -4.76889253233291   -2.88363401086500
Cl        2.52769230968481   -4.10370878962491    2.89521901193902
63
 energy: -142.085713690247 gnorm: 0.001477026143 xtb: 6.4.1 (a3dbbd7)
C        -1.29821062072456   -0.00143414744248    3.52720799986414
C        -0.36941797507590   -1.17771320523476    3.31874307543256
C         0.98797222758623   -0.71800784332537    3.27190157876648
C         0.97481001546892    0.72302670479560    3.26568750642075
C        -0.37350150514795    1.17385810345976    3.29593991346384
C         2.35124387945746   -2.58119809533388    0.58833304369447
C         3.15477871161433   -1.40651633772495    0.58073091000834
C         2.92007585306311   -0.68436219502156    1.80938693240239
C         1.97020314952670   -1.40878074640199    2.58305576163193
C         1.70569520705351   -2.74692603188662    1.94073068012966
C         3.17584102334673    1.43171982384310    0.58164340330285
C         2.33310904013664    2.59939108983913    0.58175678554523
C         1.57425837908507    2.59359733221229    1.80572461212832
C         1.94652451159699    1.42808254119427    2.55418084975942
C         2.93493365131862    0.70915683453520    1.80641540377116
C        -0.36602099741541    3.45750926247029    0.58196676732176
C        -1.73916923359102    3.01473825448136    0.58219353336449
C        -1.97823654137764    2.29773635040162    1.80509862020641
C        -0.73853795842422    2.28004075762317    2.56143792121785
C         0.24633937303933    3.00420393108240    1.80194462870216
C        -3.40867482580369    0.74256839967896    0.57058266871070
C        -3.40077639531686   -0.69437180952023    0.56898178732499
C        -2.77132308977352   -1.13012162012364    1.80621796879475
C        -2.41878105083578   -0.00281963505494    2.54590542430254
C        -2.78100333415085    1.16782621601835    1.79942699666144
C        -1.73898954488707   -2.98927988608256    0.60361947954765
C        -0.34187543700870   -3.41797666759176    0.59509062527829
C         0.25255320287761   -3.00028971326509    1.81206283497958
C        -0.71479186450847   -2.27055303991345    2.54728918401444
C        -1.96610916392273   -2.29045942823029    1.79257675944825
C        -0.25487346981989   -3.21167304223029   -1.93461221211661
C         0.74803973214093   -2.27700127691233   -2.57526975069931
C         1.94352833590860   -2.25761436464222   -1.80550489628012
C         1.72356121415951   -2.98133443691245   -0.57886870506965
C         0.37610692330462   -3.47160994008924   -0.58403973512099
C         2.78179152455781   -1.14194257779045   -1.81839926298800
C         2.41165300639369    0.01702433186453   -2.57799617727896
C         2.79299909868040    1.18436122510710   -1.82574268197964
C         3.40146148244896    0.73751148169956   -0.59946658589951
C         3.39446189697920   -0.70476132587196   -0.59919176128572
C         1.97066389027725    2.30609565972323   -1.82359068666400
C         0.74141720630653    2.30263034972989   -2.57945984265526
C        -0.24881039269161    3.03019277673541   -1.82818217014421
C         0.36320811461907    3.46633810548530   -0.59955480428564
C         1.73706568532445    3.02485067442609   -0.60071730330604
C        -1.57089762195004    2.59921505290114   -1.82742078804087
C        -1.95386554023965    1.43642188417408   -2.58567504131420
C        -2.95546554560073    0.72003274896574   -1.83363739402966
C        -3.18941193107243    1.43986250225089   -0.60893688123776
C        -2.33220587060695    2.60053398537055   -0.60508339929824
C        -2.95036785693754   -0.66759483549336   -1.82863533360876
C        -1.94702310070675   -1.39824279555439   -2.56642157538369
C        -1.58777790816392   -2.55972308637094   -1.80435095799619
C        -2.30936845655881   -2.55150909203412   -0.61209611124786
C        -3.17681580083638   -1.38347533366019   -0.60344203588633
C        -1.00148310891671   -0.70762771437600   -3.30815496759660
C        -0.99661468572742    0.72997754536730   -3.30504332533997
C         0.37590102081072    1.17469499277704   -3.30195905100122
C         1.21953449244293    0.00978581348121   -3.29268661659779
C         0.37896587816649   -1.15839779484449   -3.28863932562538
Cl       -1.94012079798117    0.00656438340318    5.23974648684709
Cl       -0.38815096466416   -4.76869375465877   -2.88476813855331