108
 energy: -324.501488633191 gnorm: 0.070006201270 xtb: 6.4.1 (a3dbbd7)
C        -1.34376145995417    0.03364359794945    3.59527818647343
C        -0.41921742795561   -1.25366461529975    3.60056438772181
C         0.96458201676784   -0.71460811304737    3.31006207710937
C         1.04794644355385    0.76847176403401    3.55256188026400
C        -0.38444159804676    1.17522752053851    3.30874981277398
C         2.31057338964475   -2.56569730170424    0.58651834613636
C         3.40773017071004   -1.51103412405579    0.66105907863194
C         2.95268142264326   -0.68349517317214    1.84775434762713
C         1.87896030027211   -1.36003405393448    2.52744631901200
C         1.56067443003751   -2.53997955237387    1.75355377724034
C         3.41118352928267    1.53912710558761    0.66140790990868
C         2.33569567202278    2.59460443791155    0.60096221272585
C         1.55501714339005    2.52893513373859    1.74374728350367
C         1.94329106633574    1.39534644532569    2.52544679496022
C         2.92045976154544    0.69220999966146    1.82858551522748
C        -0.36062879815961    3.43614899431681    0.55636969967587
C        -1.75735790006361    3.01656242902999    0.59651438509751
C        -1.97521631290836    2.30053003812844    1.78766564443470
C        -0.72312448438877    2.24682721231909    2.53623104305731
C         0.23798924946802    3.01851463332355    1.79705620440335
C        -3.44000873324347    0.72662257969417    0.59155783323691
C        -3.45364219092897   -0.70679495347506    0.60650110646617
C        -2.82528588664198   -1.12257244478082    1.81950090781146
C        -2.41319451277831    0.02140265119683    2.53495174402914
C        -2.79920377434106    1.16688929423100    1.81232023334560
C        -1.85548601815512   -3.18172919549893    0.63132697999935
C        -0.37471734381947   -3.45040758640228    0.58560399761664
C         0.19639307585551   -2.93148702920637    1.71711364729450
C        -0.78270116683217   -2.21268631409075    2.50018601849782
C        -1.96831954672615   -2.24205384713315    1.82692442304657
C        -0.27684943710912   -2.98121241192017   -1.82585235364099
C         0.69607569891899   -2.20020833905587   -2.56483692696283
C         1.93226218264095   -2.25468877836096   -1.79656961730387
C         1.73860800954345   -2.98434709051380   -0.62094075797764
C         0.39511918401567   -3.70616531697159   -0.66606001834350
C         2.74323059643793   -1.11032566824370   -1.79940669362661
C         2.37460469879976    0.00592460006521   -2.53309789062178
C         2.72367864224958    1.15868485515909   -1.78378216154493
C         3.36759804527308    0.70083220833139   -0.56667485582161
C         3.37175634423263   -0.65872689657389   -0.56536576134042
C         1.93635403237366    2.29315491765301   -1.81891050323073
C         0.73359710765420    2.27964249948500   -2.55777390914285
C        -0.27264319846760    3.23331063004368   -1.95037456230288
C         0.35359746624195    3.52063218431741   -0.59993741424698
C         1.85127330067227    3.25700462419974   -0.64944516468540
C        -1.59650320430355    2.54286384920565   -1.78773564814365
C        -1.94434958265403    1.41053188252035   -2.55608209005394
C        -2.97156662719347    0.68312334569509   -1.81580958191214
C        -3.20859458520259    1.40689626590016   -0.58939792273722
C        -2.33957344897623    2.56173058619601   -0.59844212957231
C        -2.95427183406818   -0.67320932023970   -1.81745171644800
C        -2.15478433460918   -1.53672979731013   -2.78226660265943
C        -1.55276264079518   -2.51796560410099   -1.78137839953216
C        -2.33854123495479   -2.52288278976466   -0.60830749599726
C        -3.17014014914917   -1.39751149916353   -0.59002407138695
C        -1.08833250142899   -0.74749126832357   -3.65502598522339
C        -0.99347204446337    0.72712447667469   -3.29078263042794
C         0.34737371629661    1.16575704846559   -3.28612684732355
C         1.29073581654521    0.01764137766845   -3.57949703476454
C         0.35464469186920   -1.15953915959168   -3.36442475124264
C        -2.11284824398051    0.26288779361355    4.92445847386567
F        -1.35273524715719    0.39146482406566    5.98825809108418
F        -2.94931239834803   -0.75841897715999    5.12741581048887
F        -2.83718293347518    1.38361195764925    4.82613599266772
C        -0.42799039607429   -2.07325510719447    4.92214731183690
F        -0.05268561399939   -1.39904982167261    5.99006350255227
F        -1.65208727949337   -2.55899533028210    5.14074863134889
F         0.41644998601307   -3.10449258468317    4.79734449230250
C         0.63035758987154   -5.20847809559355   -0.94790852183618
F         1.38547923642915   -5.37495262029354   -2.03292694991973
F        -0.50686728927708   -5.86652234458716   -1.14956554700519
F         1.25607353814892   -5.77715352323750    0.08429857911703
C         1.62415684509696    1.17992054425694    4.94355374729144
F         0.97279659191270    0.70984973751856    5.99394692230345
F         2.88733272585054    0.75911865002268    5.02868122000442
F         1.61888592876778    2.51130524217408    5.02858566895961
C         4.76982953894222   -2.19102386532678    0.89565811240307
F         4.73932426803080   -2.92393777336183    2.00889248940920
F         5.07783217248877   -2.99612373349179   -0.12131163047654
F         5.75523408548899   -1.31175267363063    1.02125700946646
C         4.82083699150326    2.09315616224768    0.97735566374784
F         4.76153958701437    2.90299315043981    2.03551317015496
F         5.35603095188241    2.75382214402551   -0.04306477776947
F         5.67272626656785    1.11096985564520    1.25921656148783
C        -0.54511096152744    4.49393574530993   -2.81857821690506
F         0.53515429814691    5.17209586927450   -3.17318593367540
F        -1.16145435437805    4.13771648963279   -3.94875564390957
F        -1.34080719066621    5.32509762595404   -2.14503641182438
C         2.65866975999537    4.57870989623278   -0.83300389183991
F         2.35855578417223    5.24819351729841   -1.93330416596917
F         3.96184614674396    4.35272928379909   -0.89649269796900
F         2.41893881962257    5.36709995786434    0.21434877119214
C        -3.24393878510781   -2.38593795732953   -3.54823197469617
F        -4.02575705350200   -3.03587138469152   -2.63479731153981
F        -4.08142422934676   -1.65566218171388   -4.22878899286043
F        -2.73855768597636   -3.30490517876970   -4.31332181983253
C        -1.41448897138099   -0.87853829866448   -5.17894916684628
F        -0.67071193634441   -0.14101361220332   -6.01211065775544
F        -2.63255020560285   -0.44431846036408   -5.40959825739314
F        -1.19563960264296   -2.13246248162903   -5.53110435329254
C        -2.66101302757997   -4.47026562753468    0.93712887924086
F        -2.18628731184006   -5.06775160109922    2.02740978514343
F        -2.60422988688725   -5.33739497224158   -0.06478184021556
F        -3.94249874013349   -4.18391837213574    1.14566674651063
C         2.08323285644793    0.08106562048683   -4.92379928522589
F         1.41163130890636    0.27234387521089   -6.04254934302421
F         2.95405177744568    1.10411040493027   -4.86490384805111
F         2.76487894724223   -1.05581010302711   -5.05990909940900
