108
 energy: -319.768173955547 gnorm: 3.381868642423 xtb: 6.4.1 (a3dbbd7)
C        -1.23626340000000    0.00000000000000    3.32997640000000
C        -0.38202640000000   -1.17575640000000    3.32997640000000
C         1.00015810000000   -0.72665740000000    3.32997640000000
C         1.00015810000000    0.72665740000000    3.32997640000000
C        -0.38202640000000    1.17575640000000    3.32997640000000
C         2.34433560000000   -2.60145750000000    0.59464210000000
C         3.19857260000000   -1.42570110000000    0.59464210000000
C         2.96246730000000   -0.69904370000000    1.83090550000000
C         1.96230920000000   -1.42570110000000    2.59495830000000
C         1.58028280000000   -2.60145750000000    1.83090550000000
C         3.19857260000000    1.42570110000000    0.59464210000000
C         2.34433560000000    2.60145750000000    0.59464210000000
C         1.58028280000000    2.60145750000000    1.83090550000000
C         1.96230920000000    1.42570110000000    2.59495830000000
C         2.96246730000000    0.69904370000000    1.83090550000000
C        -0.36750900000000    3.48258920000000    0.59464210000000
C        -1.74969350000000    3.03349030000000    0.59464210000000
C        -1.98579880000000    2.30683290000000    1.83090550000000
C        -0.74953540000000    2.30683290000000    2.59495830000000
C         0.25062270000000    3.03349030000000    1.83090550000000
C        -3.42570570000000    0.72665740000000    0.59464210000000
C        -3.42570570000000   -0.72665740000000    0.59464210000000
C        -2.80757400000000   -1.17575640000000    1.83090550000000
C        -2.42554760000000    0.00000000000000    2.59495830000000
C        -2.80757400000000    1.17575640000000    1.83090550000000
C        -1.74969350000000   -3.03349030000000    0.59464210000000
C        -0.36750900000000   -3.48258920000000    0.59464210000000
C         0.25062270000000   -3.03349030000000    1.83090550000000
C        -0.74953540000000   -2.30683290000000    2.59495830000000
C        -1.98579880000000   -2.30683290000000    1.83090550000000
C        -0.25062270000000   -3.03349030000000   -1.83090550000000
C         0.74953540000000   -2.30683290000000   -2.59495830000000
C         1.98579880000000   -2.30683290000000   -1.83090550000000
C         1.74969350000000   -3.03349030000000   -0.59464210000000
C         0.36750900000000   -3.48258920000000   -0.59464210000000
C         2.80757400000000   -1.17575640000000   -1.83090550000000
C         2.42554760000000    0.00000000000000   -2.59495830000000
C         2.80757400000000    1.17575640000000   -1.83090550000000
C         3.42570570000000    0.72665740000000   -0.59464210000000
C         3.42570570000000   -0.72665740000000   -0.59464210000000
C         1.98579880000000    2.30683290000000   -1.83090550000000
C         0.74953540000000    2.30683290000000   -2.59495830000000
C        -0.25062270000000    3.03349030000000   -1.83090550000000
C         0.36750900000000    3.48258920000000   -0.59464210000000
C         1.74969350000000    3.03349030000000   -0.59464210000000
C        -1.58028280000000    2.60145750000000   -1.83090550000000
C        -1.96230920000000    1.42570110000000   -2.59495830000000
C        -2.96246730000000    0.69904370000000   -1.83090550000000
C        -3.19857260000000    1.42570110000000   -0.59464210000000
C        -2.34433560000000    2.60145750000000   -0.59464210000000
C        -2.96246730000000   -0.69904370000000   -1.83090550000000
C        -1.96230920000000   -1.42570110000000   -2.59495830000000
C        -1.58028280000000   -2.60145750000000   -1.83090550000000
C        -2.34433560000000   -2.60145750000000   -0.59464210000000
C        -3.19857260000000   -1.42570110000000   -0.59464210000000
C        -1.00015810000000   -0.72665740000000   -3.32997640000000
C        -1.00015810000000    0.72665740000000   -3.32997640000000
C         0.38202640000000    1.17575640000000   -3.32997640000000
C         1.23626340000000    0.00000000000000   -3.32997640000000
C         0.38202640000000   -1.17575640000000   -3.32997640000000
C        -1.76086815247998    0.00000000000000    4.78849957557021
F        -0.76911826531252    0.00000000000000    5.67468926254662
F        -2.50968386795825   -1.06794314680471    5.04863888333743
F        -2.50968386795825    1.06794314680471    5.04863888333743
C        -0.54413818249354   -1.67468516033722    4.78849957845317
F        -0.23767107904745   -0.73147481112462    5.67468925997942
F        -1.79120914301982   -2.05683909935453    5.04863874564184
F         0.24013968171955   -2.71686350152345    5.04863903502921
C         0.53602450593361   -4.99908416128281   -0.86730591619822
F         1.22448605650957   -5.23152837615597   -1.98125850960180
F        -0.63540201352706   -5.61404743764837   -1.00324736766175
F         1.18149064144157   -5.61404773804446    0.11965571789346
C         1.42457227037960    1.03501233722714    4.78849957248258
F         0.62223011468481    0.45207589682711    5.67468926529602
F         2.65809836182651    0.61117154425495    5.04863869666891
F         1.40265511061956    2.33913928186680    5.04863905501621
C         4.58877084110522   -2.05459160147071    0.86730597290559
F         4.59709252483521   -2.78118520641283    1.98125951001435
F         4.97417519512416   -2.85850196315549   -0.11965482382298
F         5.53562669678859   -1.13053295630600    1.00324569798425
C         4.58877084110522    2.05459160147071    0.86730597290559
F         4.59709252483521    2.78118520641283    1.98125951001435
F         4.97417519512416    2.85850196315549   -0.11965482382298
F         5.53562669678859    1.13053295630600    1.00324569798425
C        -0.34440953624153    4.35941144868709   -2.62817404748705
F         0.83992598883967    4.95213069234126   -2.75037577510431
F        -0.80829780400759    4.16837989546168   -3.85992670963205
F        -1.15529636597892    5.23632261667420   -2.04303359185445
C         2.50473491433418    4.35941144902977   -0.86730593917895
F         2.08438487052912    4.95213043104453   -1.98125838386969
F         3.81390519137296    4.16837996597314   -1.00324768478856
F         2.34400857369757    5.23632280881804    0.11965581818547
C        -2.82790274436383   -2.05459160758554   -3.71645040671519
F        -3.82797483682855   -2.78118494419178   -3.22571836876305
F        -3.37293748548841   -1.13053297859378   -4.50255013394648
F        -2.11749631416700   -2.85850222732984   -4.50254863174647
C        -1.42457227037960   -1.03501233722714   -4.78849957248258
F        -0.62223011468481   -0.45207589682711   -5.67468926529602
F        -2.65809836182651   -0.61117154425495   -5.04863869666891
F        -1.40265511061956   -2.33913928186680   -5.04863905501621
C        -2.50473491433418   -4.35941144902977    0.86730593917895
F        -2.08438487052912   -4.95213043104453    1.98125838386969
F        -2.34400857369757   -5.23632280881804   -0.11965581818547
F        -3.81390519137296   -4.16837996597314    1.00324768478856
C         1.76086815247998    0.00000000000000   -4.78849957557021
F         0.76911826531252    0.00000000000000   -5.67468926254662
F         2.50968386795825    1.06794314680471   -5.04863888333743
F         2.50968386795825   -1.06794314680471   -5.04863888333743
108
 energy: -321.336622029825 gnorm: 1.891505423250 xtb: 6.4.1 (a3dbbd7)
C        -1.23975825651039    0.00525244622926    3.32769911950485
C        -0.37751355650114   -1.18076895097817    3.32855462136669
C         1.00697143498631   -0.73165810244039    3.33395852639886
C         1.00184281980975    0.72857086101887    3.33312120662272
C        -0.38495978153866    1.18321736090668    3.33248822647478
C         2.33492296788467   -2.60233326848751    0.59744141484411
C         3.21076932638961   -1.43228783375731    0.59858326322421
C         2.95526965609817   -0.69587359520834    1.83519432138707
C         1.96126726302403   -1.42402682988029    2.58967904145384
C         1.58372182100572   -2.60070337552917    1.82755504363502
C         3.21036624124416    1.43143269510049    0.59897023274732
C         2.33788278520296    2.59597567387920    0.60627019935817
C         1.58118053522622    2.59885764941552    1.82726002936623
C         1.97079484295837    1.42915907523120    2.58167795101976
C         2.95363194309532    0.69562760638231    1.83482169643180
C        -0.36609890173278    3.48065526982081    0.59451059585896
C        -1.75068501080569    3.03184803750688    0.59686165502634
C        -1.98479612543476    2.30857162067786    1.82806489718634
C        -0.74798089339060    2.30693425489597    2.58983802116621
C         0.24860938701582    3.03534635641140    1.83092640146077
C        -3.42492766589665    0.72456438050000    0.59512677860015
C        -3.42505454471872   -0.72504400923131    0.59622155446071
C        -2.80747567698489   -1.17275943416023    1.82844162078671
C        -2.43488631403969    0.00135227585138    2.58356057238370
C        -2.80653399316821    1.17249321561659    1.82915166642774
C        -1.75473575719181   -3.04480677451649    0.59900267482140
C        -0.36403393416780   -3.48351149731088    0.60742755186886
C         0.24671329403657   -3.03218104349254    1.82544250239144
C        -0.75396590633976   -2.31389994589100    2.58323847835910
C        -1.98114616217167   -2.29947191449730    1.83503791901516
C        -0.24889301012137   -3.02672969704244   -1.83545336345417
C         0.74782292256643   -2.30951736645259   -2.58888591173681
C         1.98392774424929   -2.30710549972918   -1.82849608924316
C         1.75473200281381   -3.02499425212098   -0.59753089062724
C         0.37095740887306   -3.48913109334740   -0.59833399207007
C         2.80698740887601   -1.17084743408758   -1.83051313056052
C         2.43366111902138   -0.00116571435275   -2.58283673113130
C         2.80685982815890    1.17157433618749   -1.82953333494820
C         3.42065214007410    0.71590000171081   -0.60426779240988
C         3.42151528879013   -0.71561879540347   -0.60436803507121
C         1.98127553699176    2.29919001619532   -1.83618370027645
C         0.75558905810704    2.29883582494033   -2.59282844583499
C        -0.25027273199150    3.04541977457011   -1.83442097525854
C         0.36117777507649    3.47712210363015   -0.58549126781236
C         1.75391642182226    3.04391778658079   -0.59801529187233
C        -1.59093632779850    2.59137405730141   -1.83150926694004
C        -1.96512925819973    1.42806865829498   -2.58994572199131
C        -2.96294238174905    0.70331700063258   -1.82926064913892
C        -3.19778853908890    1.42537581048227   -0.59585658523283
C        -2.34377565764806    2.59990851403135   -0.59611908037641
C        -2.96579299109240   -0.69790043856897   -1.82601021053964
C        -1.96150939203836   -1.42425867178694   -2.57442969829887
C        -1.57981266205920   -2.60377927129038   -1.82440148004217
C        -2.34785600668867   -2.59170978122887   -0.60360462488956
C        -3.19490415011420   -1.42648988412552   -0.59451655970020
C        -0.98496743180369   -0.71758308789449   -3.31479086870498
C        -0.99600475223834    0.73371859962649   -3.33199410090210
C         0.37678693678543    1.17944222896222   -3.33078651911055
C         1.23899995031733    0.00048282434100   -3.33224393528467
C         0.38221266740002   -1.18066040547813   -3.33514174628333
C        -1.79129343559005    0.02009537682627    4.77102418526500
F        -0.85400957984547    0.06171075013383    5.70161350273156
F        -2.62259029363009   -0.93307646544839    5.05314768723231
F        -2.51623162806497    1.08170949831832    5.05027488847880
C        -0.54014401442073   -1.70886030545715    4.77023517289780
F        -0.20027641949390   -0.83468053737133    5.70038169351318
F        -1.69877800162358   -2.20588222902238    5.05335769350965
F         0.25058214389983   -2.72629706769613    5.04969004275891
C         0.53851967354650   -5.00179060974094   -0.86695024436929
F         1.22584619188437   -5.23345904158392   -1.98398963117138
F        -0.62806919582177   -5.61863643760311   -1.00957215675615
F         1.18255125752644   -5.61582880474872    0.12057036815545
C         1.44049130795826    1.04680901754126    4.78114146633631
F         0.68812537526991    0.49945776925271    5.69079070344346
F         2.66352986714039    0.61108922533887    5.04983371730656
F         1.40431683748960    2.34454011323866    5.05003785163891
C         4.59216047758267   -2.05608043201559    0.86798101557194
F         4.59840512175465   -2.78293243270553    1.98297614554840
F         4.97540421145506   -2.86008386856464   -0.12073708461501
F         5.53753050289571   -1.13251258269085    1.00354532397379
C         4.59254773936712    2.05596109787669    0.86896707802917
F         4.59848529880380    2.78286957682242    1.98327266811795
F         4.98256401403404    2.85246001345996   -0.11615567358295
F         5.53754904780877    1.13189524674062    1.00393409240140
C        -0.35321099386050    4.36086051097274   -2.63134739851870
F         0.77753092200305    4.95861557014153   -2.79708863832682
F        -0.81343359688014    4.16676272586651   -3.86460824272897
F        -1.15888747662558    5.23858939391831   -2.04230401163936
C         2.51228711243202    4.36114932248380   -0.86120444401271
F         2.15334640576113    4.95890775488197   -1.94639675880360
F         3.81351321304789    4.17466215894774   -1.00636589855955
F         2.34425746521815    5.23819226349941    0.12283288658303
C        -2.82633330450708   -2.05304249878628   -3.67514153477418
F        -3.83244089785468   -2.78463423920391   -3.22695442668245
F        -3.44762787781295   -1.12277009714506   -4.50321036154121
F        -2.13260915160514   -2.93165206160776   -4.50390326672790
C        -1.40100349445039   -1.02028987251476   -4.76995605338904
F        -0.69429499797112   -0.47262673565030   -5.68461313971418
F        -2.67224895358285   -0.56203105570342   -5.09654456832177
F        -1.35950035398379   -2.36081626883101   -5.09513703050124
C        -2.50603494961085   -4.36190918142832    0.86963552122352
F        -2.08480949230747   -4.95443796894316    1.98354505283213
F        -2.35462354270587   -5.23657404741793   -0.11659237012148
F        -3.81650210668706   -4.16879129919094    1.00392080692079
C         1.77442066478279    0.00325775419260   -4.78409749898301
F         0.83952748234261    0.02598273858886   -5.68560503688283
F         2.51436619592493    1.07077538275213   -5.04886907966098
F         2.51187635931700   -1.07048285937290   -5.04987720554282
108
 energy: -322.583889721347 gnorm: 1.737062949219 xtb: 6.4.1 (a3dbbd7)
C        -1.24579403547306    0.01315735101125    3.33554291475449
C        -0.37263818046360   -1.18865888721899    3.33874816607815
C         1.01385226661461   -0.73745537907769    3.32105646542764
C         1.00872460678498    0.73335452015756    3.35723214696449
C        -0.38755040752484    1.19297338961443    3.31752440683239
C         2.32105683595620   -2.60153461879094    0.59984034263234
C         3.23076896575967   -1.44167669192097    0.60633966260603
C         2.94764141169455   -0.69205459176169    1.84185138502398
C         1.95936725981466   -1.42221900707666    2.57926258043009
C         1.58903644928177   -2.60070250476839    1.82286487816186
C         3.23019516838201    1.44047509573319    0.60676177677837
C         2.32730930706222    2.59000469967590    0.61927252086940
C         1.58143187648067    2.59186987911391    1.81928612181373
C         1.98119135437427    1.43262059948217    2.56467154922477
C         2.93776761164386    0.69076461907221    1.83872712298338
C        -0.36455883835084    3.47493134160257    0.59531323934074
C        -1.75296910583904    3.02932434758360    0.59954935474777
C        -1.98408053560127    2.31232556477631    1.82360983081146
C        -0.74551714771104    2.30620659522358    2.57926780852632
C         0.24558498440293    3.03855736405176    1.83254520856614
C        -3.42319440590545    0.72214679793162    0.59448680389950
C        -3.42547826202021   -0.72334034816450    0.59813557071486
C        -2.80813439659990   -1.16727682952015    1.82594134566024
C        -2.44730253913590    0.00295237559372    2.56677801680310
C        -2.80502885104431    1.16890265938073    1.82482609085121
C        -1.76432595772084   -3.06178033240153    0.60711483775470
C        -0.35800297843899   -3.46859828282346    0.62118382007193
C         0.24184472205716   -3.02966573828805    1.81553123291493
C        -0.76134222802054   -2.32378190248115    2.56613302311213
C        -1.97344995309798   -2.28683077019062    1.83989866536436
C        -0.24787160639948   -3.01796924272963   -1.84071818040842
C         0.74569627346643   -2.30920677055546   -2.57789419153862
C         1.98129347649387   -2.30877134583843   -1.82318143447000
C         1.76057118659644   -3.01310877368630   -0.60045811721379
C         0.37636060741988   -3.51493094242498   -0.60631745268940
C         2.80548735618647   -1.16380099213024   -1.83223344316371
C         2.44255687485293   -0.00384466666885   -2.56852526048780
C         2.80587648934341    1.16571384832979   -1.82844929520548
C         3.41356725349779    0.70147025835478   -0.61540893650574
C         3.41320534002232   -0.70019129205782   -0.61547592976904
C         1.97418678492948    2.28613841894337   -1.84175985962770
C         0.76442498799331    2.28948031135540   -2.58830049019654
C        -0.25073042562510    3.06540918560228   -1.84746873337245
C         0.35192041164282    3.47004615217378   -0.57242217869098
C         1.76100650348141    3.06073129407892   -0.60466776679093
C        -1.60415208285269    2.57626059350423   -1.82522121571521
C        -1.96675058604581    1.43284915421618   -2.58194435564218
C        -2.96218200918162    0.70598878231144   -1.82631010176302
C        -3.19740053568143    1.42492546674592   -0.59569296035869
C        -2.34396819989733    2.59506004132965   -0.59594089059311
C        -2.97129928816550   -0.69201458416365   -1.81418378181029
C        -1.97524960208418   -1.43152374369745   -2.56869392779973
C        -1.57649635800190   -2.60402113691357   -1.80922354308957
C        -2.34853717941960   -2.57970621256624   -0.61529287623862
C        -3.19087192816099   -1.42545666331436   -0.59406331314391
C        -0.97473973540178   -0.71086652462452   -3.32032725653240
C        -0.98786838942410    0.74495632220751   -3.32629512570060
C         0.36817949880335    1.18209743626676   -3.31682794224544
C         1.24620639768851    0.00123597621682   -3.36009174419825
C         0.38464183010623   -1.18650682165235   -3.32718596992733
C        -1.82605072104079    0.02226744732447    4.74915847591966
F        -0.90761158792065    0.09200646978371    5.74012079524556
F        -2.67364255371435   -0.89003437933655    5.06063365091420
F        -2.51877294831515    1.09139166334779    5.04939657280766
C        -0.54663806216054   -1.74295760188162    4.74806573639819
F        -0.18833988035161   -0.89343612049484    5.73875187433957
F        -1.67284022479038   -2.26766322534392    5.06075621907005
F         0.25941517197389   -2.73237783676326    5.04917134735932
C         0.54292893812356   -5.01018508363327   -0.86806487212056
F         1.22884340075344   -5.23658475322933   -1.98801689163989
F        -0.61723002272144   -5.62638172006478   -1.01917782326048
F         1.18462426428236   -5.61892798259426    0.12238635738424
C         1.46083187495242    1.06179420407466    4.77567603479650
F         0.75068129241783    0.54602009381370    5.71513106907354
F         2.67303957915545    0.61094982514693    5.05112255133705
F         1.40718218318841    2.35404007501251    5.05148030674698
C         4.59883789604224   -2.05924267700701    0.86925603121738
F         4.60053678043901   -2.78575847956122    1.98574422337392
F         4.97737739177601   -2.86266247110404   -0.12221535656415
F         5.54099421301022   -1.13589940760434    1.00430719254061
C         4.60010678320876    2.05834752987465    0.87234529000058
F         4.60074436809251    2.78576118021328    1.98687550370838
F         4.99632795907156    2.84338255393930   -0.11097598022245
F         5.54110339367701    1.13374901408549    1.00580444483237
C        -0.36131600841717    4.36566449880422   -2.63640744499221
F         0.73107973024777    4.96809611286670   -2.83766344035971
F        -0.82073075261399    4.16445524636221   -3.87088772792511
F        -1.16448427716574    5.24180169212320   -2.04081551874210
C         2.51992537752656    4.36619103951187   -0.85680484961153
F         2.20842189210708    4.96883327195815   -1.92309193523933
F         3.81296824727752    4.18467530158637   -1.01149009377733
F         2.34413183256697    5.24077159897996    0.12819305928501
C        -2.83114882820069   -2.05571265892252   -3.62307901706713
F        -3.84177512606839   -2.79172946175841   -3.22639431371719
F        -3.57915986685022   -1.15058257118638   -4.46228413544069
F        -2.20354880837411   -3.05221521123090   -4.46124887004956
C        -1.36282609074577   -0.99905402906748   -4.75926929369909
F        -0.74953666627313   -0.48424710539318   -5.70091711227888
F        -2.62979652983520   -0.48074254488608   -5.18445872547961
F        -1.26353404579519   -2.33135260046589   -5.18167838773669
C        -2.50970021113498   -4.36725025782980    0.87318215934687
F        -2.08559798493201   -4.95768585478026    1.98684715655635
F        -2.37094566871298   -5.23712567973875   -0.11189847322792
F        -3.82062836528015   -4.16910043997184    1.00542954402956
C         1.78907082558108    0.00715204611337   -4.78649214570499
F         0.89555992186329    0.04755087194258   -5.70157456439372
F         2.52243936619953    1.07585049307640   -5.04898371952501
F         2.51587608932188   -1.07441431023246   -5.05081992589113
108
 energy: -323.545983413912 gnorm: 0.782338246124 xtb: 6.4.1 (a3dbbd7)
C        -1.25284948831440    0.01987835784397    3.35373741691822
C        -0.36897244774893   -1.19757466093086    3.35969756868084
C         1.02140990255357   -0.74291304903677    3.30727459457411
C         1.01477372387114    0.73741569975455    3.38272430154147
C        -0.39067044287863    1.20303221215931    3.30313408995275
C         2.30664634035660   -2.60088763881387    0.60391247453038
C         3.25131944185566   -1.45159941004802    0.61415705083188
C         2.94007003805541   -0.68731588754203    1.84737209610976
C         1.95632808753079   -1.41982806476783    2.57332825886386
C         1.59542452288735   -2.60090811829579    1.81827044827886
C         3.25001705685817    1.45040499876024    0.61413120438518
C         2.31585786491210    2.58208952573701    0.63250445431207
C         1.58261843777624    2.58713461728848    1.81282368825323
C         1.99021720356166    1.43530131781544    2.54720723820893
C         2.92425858541549    0.68670154992550    1.84285082210846
C        -0.36243158501297    3.47102912808357    0.59596287873367
C        -1.75506474010089    3.02675856005107    0.60289549091853
C        -1.98338068831401    2.31477254098993    1.81866111148836
C        -0.74212725747003    2.30391481947282    2.57309006549067
C         0.24219449861728    3.04233661036705    1.83427305785444
C        -3.42214444108057    0.71951801120232    0.59360489648082
C        -3.42685952822190   -0.72085548691270    0.60042828947310
C        -2.80902072888340   -1.16054332127001    1.82446328014504
C        -2.45793331073775    0.00329684574634    2.54878449267008
C        -2.80385024161151    1.16545352438888    1.82188636026116
C        -1.77352729192424   -3.08016093550103    0.61485595891709
C        -0.35208019063885   -3.45429617544913    0.63540470091054
C         0.23593978039954   -3.02900273630194    1.80603270059748
C        -0.77005594404027   -2.33113999114746    2.54705808180399
C        -1.96372716676275   -2.27681207614291    1.84617477029049
C        -0.25350627680737   -3.00795056230945   -1.84455030946809
C         0.74347493075051   -2.30299880752135   -2.57436413770369
C         1.98057908358705   -2.31001167035087   -1.81783958556358
C         1.76631145562372   -3.00067874384235   -0.60460254095532
C         0.38085024423306   -3.54056737356653   -0.61423710912899
C         2.80448348250893   -1.15797461367258   -1.83428693258796
C         2.45106433238739   -0.00576420826753   -2.55341840885334
C         2.80525890454799    1.16112108617378   -1.82875789178929
C         3.40675470188409    0.68642983836353   -0.62554978670027
C         3.40562659865473   -0.68454159700480   -0.62489790565709
C         1.96666261058418    2.27411898606680   -1.84796952105520
C         0.77361304405059    2.28055509035671   -2.58407898451880
C        -0.25041583500578    3.08518191034478   -1.85955293828297
C         0.34317976420389    3.46299294446174   -0.55981933454443
C         1.76862345201533    3.07743985345958   -0.61082494000250
C        -1.61658082636109    2.56118655831861   -1.82118474283639
C        -1.96442488060465    1.43765414982958   -2.57747440631954
C        -2.96268810370561    0.70236874112145   -1.82260736475050
C        -3.19816954510755    1.42511468811272   -0.59529688326866
C        -2.34415367717802    2.59032597143326   -0.59687491562125
C        -2.97237104408675   -0.68073472953272   -1.80018065171969
C        -2.00006673925209   -1.44791431276690   -2.58704779601119
C        -1.56861317660136   -2.60414917527380   -1.79263669311936
C        -2.34843042292459   -2.56668504122098   -0.62775520861847
C        -3.18650196776150   -1.42547810161896   -0.59459816699273
C        -0.97654026713833   -0.71136217029845   -3.35199016003346
C        -0.97865475518704    0.75803035139587   -3.31700788045634
C         0.35701663193395    1.18421636133872   -3.30618749243428
C         1.25275587823077    0.00134369236900   -3.38510028149066
C         0.39156384283717   -1.19440096146802   -3.31111660238602
C        -1.85939697202180    0.03517363787548    4.72919742463848
F        -1.00920557739837    0.18589459575279    5.77270366955818
F        -2.72771732492917   -0.83698018462619    5.06485144394842
F        -2.52509386958681    1.10890029976461    5.04460998531775
C        -0.54343088840058   -1.77949787821195    4.72798701247059
F        -0.13003124837718   -1.01816707000959    5.77021098230072
F        -1.63929041748065   -2.33498980961471    5.06502553556260
F         0.27379846069985   -2.74402726490994    5.04455030162481
C         0.54583911700846   -5.01879929208548   -0.87003405612159
F         1.23106493754151   -5.23793427008044   -1.99043136141540
F        -0.60739852121899   -5.63160732781678   -1.02645341908875
F         1.18610105936468   -5.62047592163984    0.12422519391168
C         1.47487613972160    1.07162536681909    4.77193318884823
F         0.81058727615688    0.59000768157921    5.73375437933848
F         2.68101068709365    0.61021336352725    5.04943330601361
F         1.40889108634915    2.36154808179004    5.04965186033657
C         4.60623378197549   -2.06272205322594    0.87031000245375
F         4.60168140678207   -2.78771129582091    1.98788285330725
F         4.97838018569021   -2.86442238254920   -0.12352708792853
F         5.54312610903648   -1.13875130869606    1.00476845600383
C         4.60818845788414    2.06126517123775    0.87439382055111
F         4.60166851177762    2.78754868239957    1.98941274521279
F         5.00743848753317    2.83491688898182   -0.10637039384344
F         5.54317313232274    1.13552589642060    1.00696834293845
C        -0.36859758486383    4.36972806230927   -2.64065457867438
F         0.69156972468439    4.97672523177765   -2.87358458869827
F        -0.82725024527097    4.16121319417193   -3.87566901018316
F        -1.16920568105091    5.24364862915930   -2.03840785395980
C         2.52684573853992    4.37095549157676   -0.85263776515710
F         2.25628514335494    4.97785604927052   -1.90391888417502
F         3.81254896840997    4.19168744117516   -1.01500501887427
F         2.34344247376079    5.24228694512797    0.13352758106466
C        -2.85054249029749   -2.07242508909226   -3.59988574989144
F        -3.84973554428586   -2.79704776737369   -3.21583606909153
F        -3.71568342412361   -1.23281027646652   -4.37222350597300
F        -2.32707375986941   -3.16063131363069   -4.37101484938770
C        -1.33743124144459   -0.98709321695137   -4.76665432998078
F        -0.79122558756612   -0.48740344212411   -5.71923883260420
F        -2.52121629911995   -0.38898969188557   -5.28192014763651
F        -1.13942895176701   -2.24321368797370   -5.27791460396253
C        -2.51392699534480   -4.37432084804870    0.87510619538478
F        -2.08572262183429   -4.95948046739600    1.98927939874005
F        -2.38431048412301   -5.23647540542970   -0.10716392792282
F        -3.82325088512786   -4.16855457081412    1.00658647572847
C         1.79943358524746    0.00821865809761   -4.78986518611382
F         0.94715504848444    0.06796092914821   -5.71280055490455
F         2.52895365155408    1.08033243028767   -5.04645528464453
F         2.51945389829467   -1.07790720364193   -5.04974977328885
108
 energy: -323.879279381636 gnorm: 0.476452908803 xtb: 6.4.1 (a3dbbd7)
C        -1.26773657940015    0.02257508918142    3.38848457241249
C        -0.37406919882235   -1.21069487083777    3.39975336767452
C         1.01968756889666   -0.74183096046764    3.28773186230912
C         1.02222207763743    0.74247233956649    3.41069723687159
C        -0.38919837902320    1.20436519633261    3.28093566089008
C         2.29542833704897   -2.59112786495691    0.60638209825583
C         3.27777203297773   -1.46090030998539    0.62297277428420
C         2.93465814579048   -0.68603508743366    1.84810247227039
C         1.95044824931668   -1.41886814245244    2.56496102370421
C         1.59698768895717   -2.60328364473108    1.81292394372254