63
 energy: -142.083767229819 gnorm: 0.138064574704 xtb: 6.4.1 (a3dbbd7)
C        -1.29585809763920    0.00401118881931    3.54517689231029
C        -0.36796043466059   -1.17243305044266    3.30515820987539
C         0.98298838984909   -0.72191219210780    3.27512267957929
C         0.98156472691728    0.71960753564614    3.26971969840148
C        -0.37066843430553    1.17924059866277    3.30150764324135
C         2.33648296598357   -2.58548060321166    0.57950289371033
C         3.18657767566203   -1.41946403917212    0.57781419536533
C         2.94957050634668   -0.69854930588343    1.80123308089156
C         1.95308396825138   -1.41752165469557    2.55613481597303
C         1.57961582984989   -2.57968580834158    1.80518673258983
C         3.18767024138397    1.40991878537575    0.57593180017933
C         2.33807592119235    2.57402574463448    0.57591940987423
C         1.57683795447400    2.56605672116665    1.79975339077111
C         1.95304946478205    1.40835201085528    2.55205927541471
C         2.95072023090319    0.68875745027160    1.80098024590342
C        -0.36516779392141    3.42666371311492    0.57921714402649
C        -1.72924376731069    3.01648005687427    0.58287705229366
C        -2.09463355901587    2.46231282969886    1.94730853737491
C        -0.73027134368917    2.28553619224850    2.58224921046650
C         0.24829448370074    2.97593693088527    1.80334175247540
C        -3.37466967439567    0.70300551329579    0.57574930039426
C        -3.39003092771629   -0.73268815670587    0.56838248256510
C        -2.76818811346571   -1.16356142396752    1.78871572205038
C        -2.38904763717889    0.02437925858140    2.53264263708558
C        -2.74834472581071    1.12995086235998    1.81420011509538
C        -1.73481952354600   -3.00995345707075    0.57938225067925
C        -0.36149853487188   -3.44686666226009    0.58178847329193
C         0.25217194576597   -2.99475012297255    1.80551622011247
C        -0.72930832450935   -2.27346636848304    2.56467955460776
C        -1.97147545437730   -2.28746259180062    1.79868366143107
C        -0.24419850633136   -3.01431906314620   -1.82647673825261
C         0.74940205395547   -2.29291975806330   -2.58286291039202
C         1.97453700920709   -2.29239152825096   -1.82543977569151
C         1.74139873391846   -3.01127177396538   -0.59946235539016
C         0.36858334361035   -3.45436466601281   -0.59762914030018
C         2.79442417375665   -1.17031401238235   -1.82833550582627
C         2.41574661868216   -0.00512369138436   -2.58546959698227
C         2.79806943058290    1.16104826437995   -1.83045397159780
C         3.41356646756867    0.71553904959985   -0.60565027126811
C         3.41126633543504   -0.72579612437446   -0.60436594375932
C         1.98256115237360    2.28538932475628   -1.82964816243890
C         0.75350030248264    2.28551308222168   -2.58573232043658
C        -0.23508280223273    3.00436687434747   -1.82344140510130
C         0.37359850933878    3.44286488634390   -0.60220138875814
C         1.74684322375821    3.00246743965493   -0.60372642363152
C        -1.55566653240424    2.56818250404503   -1.80941223602174
C        -1.93859434660526    1.40592010808590   -2.57168095899201
C        -2.93551210472019    0.68461262540438   -1.82146846795257
C        -3.16898901543324    1.39767486955451   -0.59605965569985
C        -2.30435127708354    2.57332623889815   -0.58497549494069
C        -2.94114405324375   -0.70773319319533   -1.83440725651199
C        -1.94505174587464   -1.42387954866205   -2.59102123509086
C        -1.56548890453788   -2.59170746569988   -1.83211639417485
C        -2.32839595521473   -2.59312664308342   -0.60918315809929
C        -3.17773883520354   -1.43218193780650   -0.61434027481289
C        -0.98775846768414   -0.72638522805960   -3.31322849835342
C        -0.98659864734294    0.71557045446948   -3.30737103344774
C         0.38544609972999    1.16109326157285   -3.31071431262535
C         1.23106807690940   -0.00470839623161   -3.31198800118088
C         0.38446650877846   -1.17000629315169   -3.31255499434049
Cl       -1.95494402211016   -0.00808767691631    5.23350834623694
Cl       -3.13453400293270    3.62205440046694    2.87428256889563
Cl        5.15849529890328    1.07488895375978   -0.92532357318350
63
 energy: -142.107943998701 gnorm: 0.059929760573 xtb: 6.4.1 (a3dbbd7)
C        -1.29841192225099    0.00363277407842    3.54704053877523
C        -0.36878578577259   -1.17154509669221    3.30689097132466
C         0.97950491578671   -0.72067389348953    3.27880008510929
C         0.97622355077139    0.72151419151694    3.27717931990691
C        -0.37551792526004    1.18034591114000    3.30576368060456
C         2.33331770304840   -2.59200245036944    0.57807413976566
C         3.17204155896094   -1.42172791930836    0.57416908655718
C         2.94273488667922   -0.69789024715523    1.80328887294711
C         1.95138982801599   -1.41565277260068    2.55516989980207
C         1.57738224467782   -2.57955272121872    1.80325730453075
C         3.19014642303099    1.42479421048206    0.59759417459834
C         2.32772363781049    2.56720231314381    0.58489121896092
C         1.56908381385102    2.56989455768973    1.81152520039816
C         1.94475896744204    1.41387770787930    2.56272998667783
C         2.93643483841698    0.69408406401527    1.80206242788714
C        -0.36869437765237    3.42794392798514    0.58291071568176
C        -1.73012146071480    3.01747195336376    0.58466820978137
C        -2.09759984688999    2.46308579964410    1.94860573502771
C        -0.73515794619365    2.28688376575780    2.58652136171219
C         0.24241918263171    2.97947303358710    1.80982698731391
C        -3.37485422040912    0.70282580149586    0.57613721168930
C        -3.39052907088944   -0.73255559787778    0.56881691902832
C        -2.76848490428234   -1.16322556582955    1.78875242737395
C        -2.39042461741004    0.02455608632315    2.53345095547008
C        -2.74966857606864    1.13003213356080    1.81506772871026
C        -1.73531819234756   -3.01045445770430    0.57898164795528
C        -0.36330519186992   -3.44783435052289    0.58077000534460
C         0.25071825974996   -2.99455761362965    1.80446670317840
C        -0.73041607747276   -2.27383331557084    2.56493552695734
C        -1.97095118108696   -2.28683884870984    1.79891794204173
C        -0.24780643468661   -3.01747295740292   -1.82832499770424
C         0.74512627793508   -2.29625963260093   -2.58511432499830
C         1.96913055529920   -2.29997983105393   -1.82658119852354
C         1.73840041693789   -3.01861460056515   -0.60290068671584
C         0.36553786649417   -3.45767564104046   -0.59964221489264
C         2.78344359326316   -1.17169781331936   -1.82375903664635
C         2.40443702458143   -0.00548408021050   -2.58156976213212
C         2.78241497126423    1.15857452030298   -1.83693658090880
C         3.51840780281110    0.73643920796239   -0.62590568974113
C         3.39851861196583   -0.73721777485171   -0.60503100461562
C         1.97008677731101    2.27679384687017   -1.82917719767901
C         0.74839718434840    2.28495429149787   -2.59103771921413
C        -0.23641561090853    3.00169859290012   -1.82353261192108
C         0.37318574505967    3.44071560156220   -0.60056024587080
C         1.74065856822906    3.00107875484336   -0.60034358812922
C        -1.55654596913788    2.56657496965048   -1.80926928595357
C        -1.94026614327661    1.40454908059286   -2.57241567613250
C        -2.93602220264274    0.68418373808801   -1.82188193468255
C        -3.16839444376564    1.39794139959862   -0.59555125618517
C        -2.30559494022227    2.57324191596667   -0.58483572204485
C        -2.94258992621879   -0.70851753432394   -1.83446751893829
C        -1.94787201519573   -1.42518261358068   -2.59173951792977
C        -1.56828611595827   -2.59313731720953   -1.83276720214664
C        -2.32995368305522   -2.59360101582952   -0.60948013801746
C        -3.17876772733386   -1.43260326098300   -0.61445998713506
C        -0.99168908877892   -0.72852526991998   -3.31572917652686
C        -0.99005921282787    0.71356482704389   -3.31020736824791
C         0.38069452750889    1.15914835856964   -3.31766714726114
C         1.22350317932033   -0.00564379353923   -3.31745996135170
C         0.37998729365281   -1.17271325419433   -3.31521132590707
Cl       -1.95739482148250   -0.00907662562349    5.23492506498860
Cl       -3.13752162992562    3.62262649397932    2.87485366492868
Cl        5.30205313381641    1.09867932838648   -0.96050109896732
63
 energy: -142.113917170755 gnorm: 0.013999590171 xtb: 6.4.1 (a3dbbd7)
C        -1.30257014327904    0.00366405339549    3.54920334953270
C        -0.37127581331151   -1.17054870994399    3.30768688065291
C         0.97482742371355   -0.72000158332358    3.28036096486980
C         0.97177542088411    0.72198438994126    3.27853839941138
C        -0.37993075683171    1.18128614761341    3.30975401415942
C         2.32767541894216   -2.58637855020607    0.57511732041543
C         3.16884256480942   -1.41817374947172    0.56852239591775
C         2.94178233175471   -0.69782165428196    1.80491001740798
C         1.94932036835858   -1.41157557376556    2.55166990847998
C         1.57344203223002   -2.57676939240446    1.80070419013115
C         3.18585057837221    1.42552489801331    0.60087505055688
C         2.32585814559129    2.55675625522046    0.58442124381580
C         1.56439442578870    2.56711325513745    1.81206520511713
C         1.93938693951055    1.41321180668463    2.56188428271241
C         2.93053140577007    0.69611254117319    1.79349049957027
C        -0.37290538218722    3.42710500532595    0.58550278640139
C        -1.73211900720139    3.01690587356750    0.58659187772017
C        -2.10187342384499    2.46329551110322    1.95082565506488
C        -0.73967479550379    2.28823831743237    2.59039666681273
C         0.23839222697757    2.97865667213924    1.81210174506925
C        -3.37746710594822    0.70236555197514    0.57741621129492
C        -3.39302978030650   -0.73262469292222    0.56993390038511
C        -2.77125007818361   -1.16307379703950    1.78961270630889
C        -2.39398484312743    0.02445707833316    2.53504238359581
C        -2.75323869240000    1.12995328873720    1.81666252997295
C        -1.73747317855759   -3.01054902988539    0.57888307873627
C        -0.36662986572222   -3.44893924859432    0.58013688761479
C         0.24789001779123   -2.99376844505485    1.80367999033601
C        -0.73377910500632   -2.27410302574917    2.56516748912693
C        -1.97255487886180   -2.28612688807855    1.79963724866727
C        -0.25223510144742   -3.01944505765257   -1.82924371184066
C         0.74129858602855   -2.29718476655450   -2.58476766705452
C         1.96458713055763   -2.29979442757481   -1.82442547500178
C         1.73341016153919   -3.01845763776176   -0.60490834125812
C         0.36169994023933   -3.46078184715045   -0.60092083722682
C         2.77807781775101   -1.16712757850406   -1.81433429759133
C         2.39916165996519   -0.00117855286692   -2.57198078350930
C         2.78433417623541    1.15947057610216   -1.84048188901294
C         3.61025292972230    0.75304670142565   -0.64626517929127
C         3.40153780841820   -0.73970891061175   -0.60637381755289
C         1.97040693295382    2.26951733013749   -1.82778184823691
C         0.74674487731115    2.27828162771190   -2.58599790577927
C        -0.23792258475239    2.99695513200980   -1.82117171648558
C         0.37408593901758    3.43556910074169   -0.59806391962926
C         1.73940588068303    3.00200644081200   -0.59928164576848
C        -1.55843207477181    2.56443395440824   -1.80811882560651
C        -1.94340843038344    1.40291073865290   -2.57266753945853
C        -2.93787937102815    0.68319726416348   -1.82136588845347
C        -3.16972365444868    1.39769972248466   -0.59416899779605
C        -2.30872059891791    2.57214347214026   -0.58399997331116
C        -2.94591392011583   -0.70964905242372   -1.83383343343067
C        -1.95241817280431   -1.42683056595482   -2.59199431091032
C        -1.57284269893818   -2.59480322227476   -1.83302724321258
C        -2.33347254606054   -2.59416569792474   -0.60924729213567
C        -3.18189357461694   -1.43314543420697   -0.61372021599160
C        -0.99607870989616   -0.73059206635232   -3.31657312500192
C        -0.99431885216455    0.71178526577469   -3.31231492844488
C         0.37702285322050    1.15524999439547   -3.31703626124029
C         1.21908013092484   -0.00581713931910   -3.31507574322737
C         0.37620700653841   -1.17377547140088   -3.31477052622288
Cl       -1.96201674875208   -0.01220285181330    5.23664327547213
Cl       -3.14339381729348    3.62313168578327    2.87434949461056
Cl        5.40758665374897    1.11972026108269   -0.98088977234947
63
 energy: -142.114227876589 gnorm: 0.008294529477 xtb: 6.4.1 (a3dbbd7)
C        -1.30403032764601    0.00354010497159    3.55027734640759
C        -0.37225934177464   -1.17048622135977    3.30787496056834
C         0.97331272023584   -0.72006840289679    3.28031261549534
C         0.97052169510524    0.72184387228312    3.27742681541532
C        -0.38119992804251    1.18152650332002    3.31096780861476
C         2.32568356825504   -2.58148146583882    0.57334890392837
C         3.17247088511564   -1.41641831139529    0.56676192401729
C         2.94350973211648   -0.69862064456316    1.80600366261587
C         1.94886698952008   -1.41002700359019    2.55049941748379
C         1.57168903845667   -2.57423680715440    1.79900888705931
C         3.18505260703889    1.42264161620303    0.59684001885560
C         2.32822824680694    2.55393603653809    0.58182951356999
C         1.56342224758512    2.56442145668713    1.80926701798333
C         1.93817837933360    1.41125975204725    2.55860216212813
C         2.93209569256856    0.69578672492324    1.78927666831497
C        -0.37423976251923    3.42646130657565    0.58585072905734
C        -1.73301402519023    3.01666929669125    0.58701110336841
C        -2.10352111162932    2.46367479553918    1.95162803197103
C        -0.74101206822344    2.28869547716088    2.59150890721181
C         0.23755209721707    2.97724808627977    1.81183790458906
C        -3.37909104350161    0.70233622422052    0.57824309114603
C        -3.39449904816574   -0.73261113147423    0.57067521368233
C        -2.77287963669222   -1.16303728550418    1.79038625858510
C        -2.39528590146914    0.02446538355022    2.53578935920826
C        -2.75458229444229    1.13006027103958    1.81735929168503
C        -1.73914058021392   -3.01066825505617    0.57914513991344
C        -0.36839943371996   -3.44877191795147    0.58005173131515
C         0.24665630665521   -2.99271673081171    1.80315956403755
C        -0.73538967376112   -2.27423532277524    2.56534463927767
C        -1.97382108278334   -2.28597400236427    1.80021483068428
C        -0.25430009199084   -3.01985193581179   -1.82911295305776
C         0.73960792000564   -2.29650495406809   -2.58344065458708
C         1.96302345205648   -2.29714270428988   -1.82311709813232
C         1.73138020927485   -3.01637746150016   -0.60517161292922
C         0.35993921722922   -3.46119265495141   -0.60094789860065
C         2.77901808201462   -1.16501252024008   -1.81163091099753
C         2.40012832344347    0.00085877393692   -2.56922692293652
C         2.79338048938847    1.16175784455830   -1.84286989300584
C         3.63239706051492    0.75602942386986   -0.65274183104826
C         3.41096979499124   -0.73860624249171   -0.60799304952931
C         1.97476633468199    2.26901280155022   -1.82807025965699
C         0.74759911644853    2.27440634814366   -2.58205915820583
C        -0.23788833302989    2.99397340175934   -1.81927380870718
C         0.37467197730563    3.43389743533927   -0.59713458386430
C         1.74024686385527    3.00391281961168   -0.59994300882510
C        -1.55890633809790    2.56313808447549   -1.80709728481666
C        -1.94483228627114    1.40202737091222   -2.57205257512212
C        -2.93943999656757    0.68274860021914   -1.82087716904520
C        -3.17092799540823    1.39762570252333   -0.59342905432160
C        -2.31022927439039    2.57166846130476   -0.58357741933430
C        -2.94809210906640   -0.71013347598751   -1.83343943852905
C        -1.95486445118246   -1.42753184657628   -2.59198746287383
C        -1.57525115440802   -2.59563147908072   -1.83294402788350
C        -2.33566531744061   -2.59461585206376   -0.60888375031321
C        -3.18385583560763   -1.43336452546938   -0.61307304071961
C        -0.99806265376091   -0.73123949341845   -3.31627797798784
C        -0.99599919621057    0.71113338198972   -3.31217017197135
C         0.37623387735508    1.15351000969433   -3.31480957803163
C         1.21850280491249   -0.00619816902280   -3.31179596093042
C         0.37467656208238   -1.17358539700228   -3.31312388957420
Cl       -1.96556665601055   -0.01544027251584    5.23689104941423
Cl       -3.14793422663113    3.62281814267052    2.87273259522624
Cl        5.42484096296238    1.12533226918714   -0.98087017938396
63
 energy: -142.114329766654 gnorm: 0.004675072684 xtb: 6.4.1 (a3dbbd7)
C        -1.30412485111338    0.00345317678602    3.55085906955987
C        -0.37223552727313   -1.17065832153354    3.30808511234067
C         0.97293328564959   -0.72038196053490    3.28047939401996
C         0.97023834935289    0.72172898680897    3.27676030604564
C        -0.38132637765508    1.18171747046971    3.31154978115864
C         2.32469718241685   -2.57885361913493    0.57230511930180
C         3.17430567794762   -1.41560223054859    0.56611279073551
C         2.94470820559434   -0.69975413661772    1.80734449847378
C         1.94903511521699   -1.40971996553591    2.55046265004653
C         1.57089858998857   -2.57287725523999    1.79810789826519
C         3.18320431695807    1.41981069804402    0.59340918046499
C         2.32966101819202    2.55250182538779    0.57975095150114
C         1.56288799050186    2.56256697636208    1.80720397468633
C         1.93750015677943    1.40985669240786    2.55624581435050
C         2.93329630705916    0.69507162161282    1.78672912940526
C        -0.37475261638646    3.42654750918734    0.58576538956255
C        -1.73313488018715    3.01692806277454    0.58695492413616
C        -2.10382057115619    2.46417891663534    1.95185250451608
C        -0.74120536289955    2.28909250872870    2.59197271248294
C         0.23744017509268    2.97660690738540    1.81152149300115
C        -3.37940054896863    0.70246342649472    0.57853106674099
C        -3.39464348407219   -0.73249886681770    0.57091351321392
C        -2.77316600050683   -1.16295635152228    1.79069922068043
C        -2.39501927806839    0.02457355700307    2.53582782224378
C        -2.75432697187752    1.13018498612369    1.81739318173949
C        -1.73983108447263   -3.01087416035617    0.57931118555527
C        -0.36915712800337   -3.44869284843687    0.58007116897212
C         0.24630479784686   -2.99237888575692    1.80302805230061
C        -0.73589995923321   -2.27449301889821    2.56553910649383
C        -1.97411258673078   -2.28598254520413    1.80056492130722
C        -0.25522772182235   -3.02028698857511   -1.82898340422617
C         0.73866456628539   -2.29603137442785   -2.58256763542675
C         1.96187868006584   -2.29537531970179   -1.82226618976266
C         1.73042696037937   -3.01545340838616   -0.60514141259946
C         0.35906605640433   -3.46161069978310   -0.60085600404825
C         2.77903357551471   -1.16388619525229   -1.80991885746642
C         2.40014905171121    0.00197090976835   -2.56750533208004
C         2.79854472771503    1.16318589153180   -1.84377027238033
C         3.64172455934178    0.75706965432052   -0.65580314444467
C         3.41627670644357   -0.73761928617743   -0.60860737244730
C         1.97687374487702    2.26898526956260   -1.82817004159713
C         0.74815546466295    2.27228179944203   -2.58001258002792
C        -0.23774189770348    2.99244466682819   -1.81829506317447
C         0.37495577783976    3.43383911561932   -0.59693173549048
C         1.74042503260263    3.00591172802834   -0.60063604166297
C        -1.55902954818857    2.56277030499463   -1.80676361639568
C        -1.94545332398060    1.40169366630075   -2.57175790058241
C        -2.94016948125220    0.68266047275830   -1.82078377876863
C        -3.17128746645749    1.39781022031207   -0.59319937048320
C        -2.31083727824098    2.57170175615357   -0.58356457851857
C        -2.94898802456043   -0.71028365491238   -1.83338169151324
C        -1.95597170503939   -1.42786559549536   -2.59216840357234
C        -1.57629745488429   -2.59615594791325   -1.83300264235793
C        -2.33651816321109   -2.59490306775444   -0.60873862220703
C        -3.18448720510368   -1.43340825920785   -0.61282308303572
C        -0.99908099434909   -0.73139137172331   -3.31632992693492
C        -0.99695341095531    0.71096716093526   -3.31223720401396
C         0.37579866435175    1.15284091850680   -3.31374150311830
C         1.21803489336410   -0.00651088747775   -3.30959421523829
C         0.37382569191777   -1.17339376019291   -3.31206848728558
Cl       -1.96759266230215   -0.01728486362525    5.23662397604257
Cl       -3.15040221204988    3.62228044202398    2.87161898099863
Cl        5.42569253531538    1.12812283999610   -0.97699024157418
63
 energy: -142.114369609951 gnorm: 0.002429976262 xtb: 6.4.1 (a3dbbd7)
C        -1.30372470331538    0.00347634429626    3.55099219866652
C        -0.37178780633831   -1.17073044796015    3.30819057262874
C         0.97316262661086   -0.72064018409157    3.28068063554549
C         0.97047337554446    0.72171695277060    3.27662852715209
C        -0.38095477079330    1.18178288948785    3.31159166912078
C         2.32450843352700   -2.57829897792405    0.57191413804134
C         3.17436652860185   -1.41548748818965    0.56596570026639
C         2.94510119966225   -0.70052960923488    1.80812666650899
C         1.94946729772448   -1.41004705527184    2.55082807426198
C         1.57088764172612   -2.57267615889932    1.79791651444113
C         3.18121004137905    1.41803859112050    0.59167983597269
C         2.32986887841757    2.55182204122869    0.57877657831163
C         1.56275448663023    2.56188787856398    1.80648088459535
C         1.93729682217091    1.40939582688649    2.55538228684691
C         2.93345552632968    0.69454174889515    1.78565645422244
C        -0.37472090956461    3.42689583148497    0.58557170611159
C        -1.73280964513169    3.01723116477614    0.58681611470877
C        -2.10350856240973    2.46446095700844    1.95182590275244
C        -0.74086877928341    2.28926579061240    2.59194587861266
C         0.23767394453171    2.97659821637412    1.81138681702639
C        -3.37905819484182    0.70259308829455    0.57852321962712
C        -3.39425357254683   -0.73237994022147    0.57090137757676
C        -2.77281274855832   -1.16285739974187    1.79071059496003
C        -2.39438919457336    0.02469841970183    2.53563615067440
C        -2.75367896985656    1.13025158897404    1.81723971832237
C        -1.73977947655002   -3.01096031615101    0.57937009309488
C        -0.36916330890972   -3.44868348452079    0.58007744580609
C         0.24648399637470   -2.99248702030688    1.80311510097804
C        -0.73574834588960   -2.27463061150431    2.56564136326663
C        -1.97384778155586   -2.28597529287555    1.80069464771137
C        -0.25531971031350   -3.02056255641623   -1.82895021146438
C         0.73844500755512   -2.29592547554232   -2.58235237019923
C         1.96142558651866   -2.29488708058309   -1.82207484760727
C         1.73030205887288   -3.01551912478460   -0.60511317636545
C         0.35891732536318   -3.46194845046688   -0.60084241414872
C         2.77848871623383   -1.16361545814223   -1.80921212519533
C         2.39959914318711    0.00225751717586   -2.56680883803851
C         2.79950609456621    1.16348580022299   -1.84363742686059
C         3.64426560687056    0.75739181069863   -0.65657886061339
C         3.41719484350448   -0.73718936451333   -0.60855892717018
C         1.97701567860955    2.26885058611305   -1.82815557450108
C         0.74833718751369    2.27169723968487   -2.57966398289440
C        -0.23761236016485    2.99221400157638   -1.81820674034331
C         0.37508830715613    3.43443306020306   -0.59716560679976
C         1.74021800455457    3.00698416002954   -0.60105448856474
C        -1.55894476538445    2.56295347274890   -1.80686583671654
C        -1.94545566272904    1.40169264562405   -2.57174504302568
C        -2.94017856470674    0.68275918477481   -1.82084599389602
C        -3.17109246261271    1.39803070371453   -0.59320883019683
C        -2.31079210622491    2.57189374719090   -0.58367769385810
C        -2.94894480967250   -0.71022120202842   -1.83340678484352
C        -1.95606428598561   -1.42788989401915   -2.59228025934708
C        -1.57635670916897   -2.59628196379771   -1.83304777762651
C        -2.33644772424446   -2.59492422989695   -0.60870812504792
C        -3.18435276902380   -1.43333956728991   -0.61278389135275
C        -0.99928675093209   -0.73131675645216   -3.31652500615513
C        -0.99722937004221    0.71102030347929   -3.31247911708944
C         0.37565547374002    1.15283242605979   -3.31375110270416
C         1.21779949828139   -0.00669127299106   -3.30896951407909
C         0.37362221440156   -1.17333635769718   -3.31182301873841
Cl       -1.96802567423485   -0.01763799558694    5.23627322109021
Cl       -3.15082401458184    3.62189697042604    2.87127559547853
Cl        5.41988504266531    1.12925506945339   -0.97233756102864
63
 energy: -142.114381208685 gnorm: 0.001311033328 xtb: 6.4.1 (a3dbbd7)
C        -1.30342721970739    0.00353949313949    3.55088757868420
C        -0.37148189037164   -1.17070743852723    3.30817463127277
C         0.97344594754184   -0.72072112137393    3.28074011895688
C         0.97074022334781    0.72172921743384    3.27675780687143
C        -0.38065179290634    1.18176594305355    3.31141735373301
C         2.32470894102776   -2.57881621873187    0.57196180885463
C         3.17384080984716   -1.41572489876799    0.56598806990393
C         2.94498426464298   -0.70068782304253    1.80814287921242
C         1.94974473114801   -1.41039696006653    2.55103610158335
C         1.57117283774562   -2.57306499049733    1.79808654307546
C         3.18016999411019    1.41764926311222    0.59160059783187
C         2.32941780611885    2.55172801041100    0.57880330658283
C         1.56287066724393    2.56208973699325    1.80673993479626
C         1.93741112759612    1.40960200650038    2.55563895191781
C         2.93301904342017    0.69440198606422    1.78571299322532
C        -0.37452575865021    3.42708878215419    0.58545008080431
C        -1.73252869303617    3.01733530646537    0.58674230114806
C        -2.10319418013370    2.46447579414850    1.95175019718647
C        -0.74056492621089    2.28924659549373    2.59176827844576
C         0.23787426973547    2.97681443811079    1.81138070418860
C        -3.37873367353807    0.70265083355048    0.57845034142109
C        -3.39397312959432   -0.73232053452966    0.57085449344438
C        -2.77249001725050   -1.16280143562049    1.79064004079939
C        -2.39409479497101    0.02475890406279    2.53553621966434
C        -2.75336876403935    1.13026882748321    1.81716534462827
C        -1.73951125777469   -3.01091928848689    0.57935595900143
C        -0.36892209135743   -3.44870189111228    0.58004717438546
C         0.24671945449552   -2.99266871729187    1.80319561163561
C        -0.73548495799391   -2.27463913753698    2.56564026871185
C        -1.97356807016394   -2.28593873580797    1.80067714195229
C        -0.25510067002961   -3.02058609746442   -1.82898714584920
C         0.73861108036898   -2.29603778265906   -2.58253631290452
C         1.96154257865090   -2.29521386583720   -1.82228759462753
C         1.73052519706734   -3.01589045760124   -0.60515158538958
C         0.35909989899832   -3.46204269094655   -0.60090602826420
C         2.77817252708317   -1.16383434166783   -1.80935619416786
C         2.39927288284735    0.00206950626987   -2.56697312094861
C         2.79839950701982    1.16317177639568   -1.84335119943242
C         3.64386175583581    0.75747395624111   -0.65625177100514
C         3.41602749679350   -0.73731823789200   -0.60839264208172
C         1.97645572455817    2.26872065293461   -1.82820392808962
C         0.74827710751081    2.27198459817083   -2.58014031526253
C        -0.23757873888516    2.99260146361659   -1.81854265928581
C         0.37512179424500    3.43483640571409   -0.59744826016909
C         1.74004618937624    3.00699767890793   -0.60115050646573
C        -1.55884086901641    2.56317831226806   -1.80705181733903
C        -1.94524811528666    1.40177591432938   -2.57184395233669
C        -2.93992610218933    0.68284852363018   -1.82089335064402
C        -3.17082840840345    1.39812063502664   -0.59326306765860
C        -2.31056590472112    2.57200447470238   -0.58375949769503
C        -2.94862989343895   -0.71012804356496   -1.83340453258783
C        -1.95578184444476   -1.42779203858088   -2.59225265387001
C        -1.57607929034925   -2.59616692698269   -1.83303044437400
C        -2.33613732431754   -2.59481570600454   -0.60871454550163
C        -3.18408815717018   -1.43326828903357   -0.61280685616869
C        -0.99909847904245   -0.73124680026071   -3.31662396333752
C        -0.99709527234843    0.71107407797381   -3.31264145466381
C         0.37570008327523    1.15301097516978   -3.31414810018316
C         1.21781964919919   -0.00672003552699   -3.30937619551416
C         0.37376785418724   -1.17338610249938   -3.31204805959250
Cl       -1.96744575447037   -0.01719505573644    5.23615364983592
Cl       -3.15009584455829    3.62190185282771    2.87142855627272