62
 energy: -137.545298778269 gnorm: 0.147956809406 xtb: 6.4.1 (a3dbbd7)
C        -1.29770965891222    0.00000000000000    3.53163224767276
C        -0.37107604425475   -1.17478800586359    3.31058196643012
C         0.97979757550459   -0.72157705231961    3.28110534952822
C         0.97979757550459    0.72157705231961    3.28110534952822
C        -0.37107604425475    1.17478800586360    3.31058196643013
C         2.33544184946295   -2.58264348698296    0.58346340581249
C         3.18207169571150   -1.41543014636129    0.58234433372313
C         2.94373959867916   -0.69404060100004    1.80708186552027
C         1.95046398470883   -1.41556779135961    2.56176558167067
C         1.57767488865866   -2.57871801508103    1.80912454278211
C         3.18207169571150    1.41543014636129    0.58234433372313
C         2.33544184946295    2.58264348698296    0.58346340581249
C         1.57767488865866    2.57871801508103    1.80912454278211
C         1.95046398470883    1.41556779135961    2.56176558167066
C         2.94373959867916    0.69404060100004    1.80708186552027
C        -0.36119281684147    3.44519252612879    0.58582996047390
C        -1.73469290191499    3.00153459982720    0.58916793337350
C        -1.97220713510261    2.29308475607878    1.81059639720294
C        -0.73400332666893    2.27691900303500    2.56853480078419
C         0.25309257506893    2.99789064535074    1.80898867763471
C        -3.39649784746455    0.71758744312072    0.57410478167568
C        -3.39649784746455   -0.71758744312072    0.57410478167568
C        -2.77168037603652   -1.14964415915414    1.80664876434809
C        -2.42168465399864    0.00000000000000    2.56054627302143
C        -2.77168037603652    1.14964415915414    1.80664876434809
C        -1.73469290191499   -3.00153459982719    0.58916793337351
C        -0.36119281684148   -3.44519252612879    0.58582996047390
C         0.25309257506893   -2.99789064535073    1.80898867763471
C        -0.73400332666892   -2.27691900303499    2.56853480078419
C        -1.97220713510261   -2.29308475607878    1.81059639720295
C        -0.24585893810850   -3.00970705822685   -1.82232538763502
C         0.74439012833927   -2.28841876480361   -2.57822875384061
C         1.97268106729833   -2.28861170675520   -1.82114897801170
C         1.74031203428013   -3.00832022201671   -0.59623578829480
C         0.36724813466371   -3.45114129717027   -0.59443426078026
C         2.79027372790168   -1.16551010025889   -1.82330670861298
C         2.41077011246349    0.00000000000000   -2.58030971859023
C         2.79027372790168    1.16551010025889   -1.82330670861298
C         3.40598095600767    0.72109250237888   -0.59875668403540
C         3.40598095600767   -0.72109250237888   -0.59875668403540
C         1.97268106729833    2.28861170675520   -1.82114897801170
C         0.74439012833927    2.28841876480360   -2.57822875384062
C        -0.24585893810850    3.00970705822685   -1.82232538763502
C         0.36724813466371    3.45114129717027   -0.59443426078026
C         1.74031203428013    3.00832022201671   -0.59623578829480
C        -1.56847069976934    2.58049680433801   -1.82122736601016
C        -1.94730857051169    1.41533687195356   -2.58360676406823
C        -2.94243160962768    0.69434475341889   -1.82977489504240
C        -3.17479380115303    1.41444285760430   -0.60326970185865
C        -2.32688654321742    2.58113588269429   -0.60086409487791
C        -2.94243160962768   -0.69434475341889   -1.82977489504240
C        -1.94730857051169   -1.41533687195356   -2.58360676406823
C        -1.56847069976934   -2.58049680433801   -1.82122736601016
C        -2.32688654321742   -2.58113588269429   -0.60086409487790
C        -3.17479380115303   -1.41444285760429   -0.60326970185865
C        -0.99138524268633   -0.72097607833148   -3.31029871234527
C        -0.99138524268633    0.72097607833148   -3.31029871234528
C         0.38054100031802    1.16548515734434   -3.30884687187952
C         1.22668597234242    0.00000000000000   -3.30783368151334
C         0.38054100031802   -1.16548515734434   -3.30884687187952
Cl       -1.93737486741132   -0.00000000000005    5.25509316806359
Cl       -2.97518685119421    3.47174633879084    2.74915303510366
62
 energy: -137.570515672300 gnorm: 0.068603814868 xtb: 6.4.1 (a3dbbd7)
C        -1.29689579610244    0.00051844546847    3.53287005697789
C        -0.37032653424655   -1.17400113484947    3.30775001890128
C         0.98247385720188   -0.72329917064054    3.28092511624965
C         0.98630479453665    0.71895350938702    3.28213847173137
C        -0.36516505332369    1.16830783277624    3.29981887786305
C         2.33454515951855   -2.58285931580398    0.58277315007847
C         3.18288233257996   -1.41620750172051    0.58138682155601
C         2.94574989327721   -0.69545874535369    1.80562316626979
C         1.95171718928986   -1.41690931371399    2.56055484638665
C         1.57722992902933   -2.57882941400995    1.80840611801296
C         3.18456360117425    1.41386821199879    0.58074790453615
C         2.33816449278034    2.58076813831681    0.58077738006197
C         1.58250644792728    2.57493760149860    1.80762062085188
C         1.95501565618712    1.41362708122069    2.56160036486111
C         2.94680147384187    0.69209048968849    1.80543271369118
C        -0.35827053808837    3.43807263686893    0.57916897847711
C        -1.72349388273095    3.00113728631211    0.57669107191361
C        -2.02968799680257    2.36689457047077    1.87239249409335
C        -0.72136864101391    2.26925587352538    2.56478309459983
C         0.25614776715273    2.98795395020196    1.80336042684291
C        -3.39155274221027    0.70154283888694    0.57307059674210
C        -3.39553576073572   -0.73267424229518    0.57042302043757
C        -2.77762364073309   -1.16253483664095    1.80243619587118
C        -2.40955699182669    0.00292381263677    2.54625962545530
C        -2.77533638621176    1.12947377805952    1.81275614378919
C        -1.73568993615742   -3.00360686161330    0.58506447151467
C        -0.36247889474503   -3.44472965317306    0.58473071017626
C         0.25105542002171   -2.99630845592164    1.80841125346817
C        -0.73462890026243   -2.27523762914179    2.56698105606169
C        -1.97681836238633   -2.29405430346183    1.80785494683840
C        -0.24488017397060   -3.01087901765679   -1.82382766701117
C         0.74658658889504   -2.28877642447564   -2.57970486702022
C         1.97298749669142   -2.28903323727377   -1.82224307741116
C         1.73974962689728   -3.00842310821354   -0.59683302680873
C         0.36694526074061   -3.45148871679376   -0.59522144517475
C         2.79110438236347   -1.16609931130147   -1.82441920492939
C         2.41198045687009   -0.00076860814598   -2.58131842880396
C         2.79251062472352    1.16477012541737   -1.82509967916418
C         3.40812074268987    0.71970363713137   -0.60058714051852
C         3.40696009039560   -0.72191719051262   -0.60010806768955
C         1.97674131846898    2.28866258191511   -1.82458402824762
C         0.74800492361621    2.28836833130300   -2.58099073219034
C        -0.24125910377777    3.01192012363947   -1.82661469621102
C         0.37208915510939    3.45209790669528   -0.60233461883507
C         1.74421218987552    3.00785238891921   -0.59991226277283
C        -1.56422445894155    2.58065747801091   -1.82361547488376
C        -1.94555220356588    1.41353457980172   -2.58098417615436
C        -2.94059110390506    0.69011797953202   -1.82729730914223
C        -3.17039641499349    1.40369796238868   -0.59910889399588
C        -2.31249707720615    2.57315868531026   -0.59947312311598
C        -2.94054321610577   -0.70046764127312   -1.83108601511734
C        -1.94539195480932   -1.41860250034988   -2.58675721394929
C        -1.56623463602499   -2.58454730414094   -1.82587024433204
C        -2.32709067887039   -2.58725615932615   -0.60527291994684
C        -3.17710749268803   -1.42573564790746   -0.60943545050452
C        -0.98972545855290   -0.72191289817573   -3.31111531433444
C        -0.99002929655518    0.72020944402962   -3.30934305971084
C         0.38191751119756    1.16505100167775   -3.30934900540475
C         1.22805941223352   -0.00046991326490   -3.30875995989724
C         0.38240212902820   -1.16600691608129   -3.30989190706540
Cl       -1.93650131696814   -0.00082327805997    5.25274124851956
Cl       -3.05312850002179    3.57153650699445    2.81791615860519
62
 energy: -137.577432650388 gnorm: 0.016355947779 xtb: 6.4.1 (a3dbbd7)
C        -1.29496406589510    0.00211936618819    3.53597184653684
C        -0.36909610370368   -1.17450359279512    3.30484922287511
C         0.98338404687167   -0.72437638207702    3.27868292205914
C         0.98470369513381    0.71763820802891    3.27536438072530
C        -0.36808290848285    1.17228295792571    3.29656226146312
C         2.33519515362576   -2.58415571172730    0.58068860703399
C         3.18452103893266   -1.41766343222907    0.57952998657975
C         2.94819858803568   -0.69734400119498    1.80350720361501
C         1.95275551838226   -1.41824310524954    2.55828437123046
C         1.57846168116915   -2.57977942433423    1.80623379983441
C         3.18603482436796    1.41173750901741    0.57804892607783
C         2.33873375589687    2.57761878972843    0.57799698472036
C         1.58047639908439    2.56936632311064    1.80400078309294
C         1.95431658897999    1.41027148566888    2.55666635946643
C         2.94928477177801    0.69008992162124    1.80315490076383
C        -0.36214763594026    3.42883288083829    0.57753081042524
C        -1.72157832454638    3.00522178033578    0.57599711581083
C        -2.08053597824251    2.43816105968103    1.93038310315020
C        -0.72251483076492    2.27423206586815    2.57160190454108
C         0.25168215898281    2.97783203899072    1.80167593078884
C        -3.37704195226603    0.69649877383361    0.57505040142946
C        -3.39626717283360   -0.73813258169105    0.56786264726110
C        -2.77426368528748   -1.16669983142336    1.79250090097461
C        -2.39502298982155    0.01529254132849    2.53369508774967
C        -2.76160402526579    1.12184565667889    1.81710715033098
C        -1.73549888332406   -3.00852108193925    0.57960432291182
C        -0.36205282571488   -3.44608978983843    0.58199202894395
C         0.25135920332103   -2.99586995730287    1.80604847524737
C        -0.73191999916884   -2.27522689814251    2.56499649986032
C        -1.97461013820332   -2.29030389916346    1.80021262778870
C        -0.24400176688256   -3.01309692941073   -1.82608500546361
C         0.74909274943079   -2.29096020881608   -2.58205490251904
C         1.97405481559392   -2.29073356664474   -1.82437435774350
C         1.74070810360414   -3.00995939918352   -0.59865307345891
C         0.36813248548098   -3.45328032306803   -0.59737856344998
C         2.79303924860876   -1.16816020527967   -1.82656087783207
C         2.41406634962742   -0.00305887246992   -2.58336985138014
C         2.79564556287187    1.16276006137206   -1.82788429372162
C         3.41085506191349    0.71738465021801   -0.60341252486442
C         3.40911635641725   -0.72381393899638   -0.60237676402387
C         1.98058840173132    2.28712403760493   -1.82751831750650
C         0.75183921359464    2.28722385302305   -2.58427656756350
C        -0.23673059138737    3.00841005195003   -1.82586655204943
C         0.37357307943597    3.44808256448117   -0.60465938855264
C         1.74654598230541    3.00581304015494   -0.60258634222707
C        -1.55854179344240    2.57340151858998   -1.81685789596940
C        -1.94134666960810    1.40869976453445   -2.57606321900295
C        -2.93554116465917    0.68514885917123   -1.82206464971831
C        -3.16547493000042    1.39608704791935   -0.59423666873813
C        -2.30271284737067    2.56970306749548   -0.59014662553707
C        -2.94119367813433   -0.70685319305142   -1.83348848968578
C        -1.94492767416712   -1.42279192342919   -2.59014837777634
C        -1.56504869909055   -2.58996041126018   -1.83106870706346
C        -2.32837364483291   -2.59316427314619   -0.60953042310116
C        -3.18023682581850   -1.43341865439572   -0.61451052335300
C        -0.98834304682803   -0.72480248869414   -3.31254503020442
C        -0.98769661550906    0.71731622310227   -3.30842562715134
C         0.38411686644164    1.16318951817947   -3.31057463500147
C         1.22990048184724   -0.00264481208021   -3.31037055651872
C         0.38413317610008   -1.16818425844006   -3.31153359415596
Cl       -1.94273666069596    0.00368613881472    5.24313254543120
Cl       -3.11846045189780    3.64046773080972    2.87199640770599
62
 energy: -137.577824622425 gnorm: 0.010150580747 xtb: 6.4.1 (a3dbbd7)
C        -1.29529415601255    0.00309782609161    3.53978544146720
C        -0.36861754668378   -1.17339999564313    3.30413957144067
C         0.98314924941334   -0.72323419172068    3.27622015332019
C         0.98209271968340    0.71845893145054    3.27118922790252
C        -0.37095220676118    1.17660727979124    3.29895276374464
C         2.33631691236907   -2.58533468480645    0.57946150422975
C         3.18597111907036   -1.41901519249676    0.57810977236345
C         2.94916013202079   -0.69836720723774    1.80179198830718
C         1.95298431395922   -1.41808890670703    2.55653000557985
C         1.57951140755884   -2.58014169804715    1.80503693040194
C         3.18670830647219    1.41028390328221    0.57641905410288
C         2.33802588879638    2.57511776026691    0.57665223631084
C         1.57766887685725    2.56717012273459    1.80148323447658
C         1.95280272864725    1.40881256533105    2.55333478107120
C         2.94981452649954    0.68898890425508    1.80150808459051
C        -0.36474912374392    3.42828778039752    0.57893122769398
C        -1.72708345354943    3.01354270444508    0.58047881885350
C        -2.09038703557215    2.45529220625728    1.94186992268448
C        -0.72815271595824    2.28210101382490    2.57852665390221
C         0.24880123327706    2.97720961767060    1.80297535619621
C        -3.37685785257616    0.70068773191338    0.57613115416992
C        -3.39209723669194   -0.73484663507305    0.56809327259565
C        -2.77060212626732   -1.16498281641969    1.79040958505470
C        -2.39226371916059    0.02117528563146    2.53345733497286
C        -2.75726437223101    1.12750448124494    1.81743686356369
C        -1.73454428617539   -3.00993181804872    0.57874770948868
C        -0.36113348869426   -3.44699306890603    0.58118972532743
C         0.25226620553349   -2.99560383843093    1.80504861722247
C        -0.73000583311916   -2.27436512780662    2.56406868372282
C        -1.97223267321550   -2.28834044140556    1.79831168149731
C        -0.24339295484614   -3.01466918687477   -1.82707260591098
C         0.75012219408366   -2.29283696692304   -2.58322622681145
C         1.97510876345327   -2.29238418333421   -1.82566001528219
C         1.74180554591692   -3.01139471338309   -0.59974240194391
C         0.36910088366550   -3.45457567775954   -0.59820843203813
C         2.79450423455279   -1.16994435987989   -1.82812164069852
C         2.41561557940726   -0.00475622213864   -2.58501221485318
C         2.79740397052678    1.16131375612576   -1.82963989840288
C         3.41265489783685    0.71586555024366   -0.60505097120769
C         3.41083397674600   -0.72541979196279   -0.60396776354211
C         1.98192382764245    2.28561309432263   -1.82867901766559
C         0.75296900653633    2.28575757376099   -2.58500816232024
C        -0.23564114903237    3.00528548800512   -1.82390853911485
C         0.37327764503536    3.44497225691855   -0.60311914618531
C         1.74657693598429    3.00349978694608   -0.60328269685705
C        -1.55678657317900    2.56948405872783   -1.81184505930679
C        -1.93924756210247    1.40623343034715   -2.57287434748173
C        -2.93454275968312    0.68396917380153   -1.82056042385641
C        -3.16760182293606    1.39678587146682   -0.59429416891255
C        -2.30429618132158    2.57229043534811   -0.58636673643769
C        -2.94047066707072   -0.70813897840523   -1.83400419809608
C        -1.94431607156673   -1.42418968439061   -2.59103876083813
C        -1.56460528685929   -2.59191927013705   -1.83240928951218
C        -2.32783402234452   -2.59412472545123   -0.61003033683074
C        -3.17764619085416   -1.43301679676044   -0.61450885341406
C        -0.98738775831507   -0.72642353577873   -3.31321132667765
C        -0.98649085165343    0.71557419237134   -3.30737924488569
C         0.38528674208076    1.16152345504114   -3.31080904526450
C         1.23110944527100   -0.00431617262524   -3.31161445614682
C         0.38502229454061   -1.16983219353799   -3.31253963941708
Cl       -1.94993389201159   -0.00471176894686    5.23911533332704
Cl       -3.13021121346841    3.64453995181459    2.88008704142191
62
 energy: -137.577987628090 gnorm: 0.004459137451 xtb: 6.4.1 (a3dbbd7)
C        -1.29582727141821    0.00384182757539    3.54353317144874
C        -0.36820616737664   -1.17233978114659    3.30428199513121
C         0.98293459385624   -0.72197844252404    3.27456404748009
C         0.98081074836339    0.71938126679982    3.26870074900733
C        -0.37199142872639    1.17937381344218    3.30125964790820
C         2.33692822806844   -2.58577024326050    0.57912769980078
C         3.18698581659087   -1.41971435816746    0.57748262537379
C         2.94980415454801   -0.69883658052648    1.80089622649894
C         1.95314198023048   -1.41765345962616    2.55569603493698
C         1.58003773590123   -2.58002805973798    1.80476615629511
C         3.18756650576302    1.40961590627108    0.57558066110693
C         2.33770865251531    2.57350245568532    0.57568782094709
C         1.57597326088452    2.56554318006162    1.79940692737310
C         1.95232749992453    1.40796683641533    2.55129603203993
C         2.95055484744003    0.68845571319040    1.80059405722912
C        -0.36605647119946    3.42699534204105    0.57965334498481
C        -1.73083010996370    3.01836470334291    0.58368672419417
C        -2.09507943633699    2.46410937853360    1.94793637670941
C        -0.73180549247940    2.28681306967075    2.58332162121551
C         0.24736128501336    2.97607638178542    1.80365811775099
C        -3.37664628631340    0.70373640846769    0.57633574613515
C        -3.38943556079065   -0.73236652215491    0.56815260372330
C        -2.76775314848642   -1.16342486074949    1.78842601724034
C        -2.39025073961248    0.02524372747505    2.53323130798857
C        -2.75229224912139    1.13151825356262    1.81624125294859
C        -1.73420038275512   -3.01046374512659    0.57879278205708
C        -0.36089200751338   -3.44737911193991    0.58131288313514
C         0.25263958482076   -2.99511913038091    1.80499384065277
C        -0.72889461089676   -2.27356323113757    2.56396672198254
C        -1.97077145211604   -2.28703369293172    1.79762379974784
C        -0.24355935784111   -3.01502833684389   -1.82709173071569
C         0.75019198389750   -2.29355346624629   -2.58345180086372
C         1.97524846029595   -2.29286113312681   -1.82592121872312
C         1.74206834315076   -3.01176267819360   -0.59989728439168
C         0.36926092001095   -3.45493778198336   -0.59812305869071
C         2.79507879288086   -1.17065841163947   -1.82874920872637
C         2.41637154647288   -0.00547531026513   -2.58591803550255
C         2.79852939920887    1.16078639793071   -1.83078442978589
C         3.41397637311435    0.71526955214322   -0.60596464485850
C         3.41185262004508   -0.72611232349926   -0.60470822299710
C         1.98276406531744    2.28500003820395   -1.82970545818005
C         0.75361228983427    2.28499711278894   -2.58566900972806
C        -0.23503025571326    3.00343008222477   -1.82283705385251
C         0.37323519934718    3.44230816714455   -0.60192514732781
C         1.74667301907202    3.00199458853939   -0.60380216958886
C        -1.55555642147100    2.56706141408684   -1.80850888015295
C        -1.93797049476616    1.40489407175134   -2.57083196899158
C        -2.93469370881037    0.68366310410068   -1.82056160287162
C        -3.16952672832456    1.39741328311235   -0.59551776675523
C        -2.30530354773828    2.57370830000163   -0.58424698653719
C        -2.94055501926800   -0.70850517169575   -1.83452589423738
C        -1.94444517134541   -1.42461801199770   -2.59151195338906
C        -1.56494407578129   -2.59257019382162   -1.83283118495412
C        -2.32784395868436   -2.59388045368824   -0.60973508583302
C        -3.17670761930215   -1.43243175200971   -0.61444427192075
C        -0.98715618433879   -0.72706191069358   -3.31356262194270
C        -0.98604316772891    0.71482820848216   -3.30698283856190
C         0.38582078255458    1.16060208647605   -3.31085318975698
C         1.23164722893323   -0.00513224454880   -3.31238610818722
C         0.38515102425745   -1.17053298890221   -3.31299349594237
Cl       -1.95518429338421   -0.01068785761716    5.23509549026258
Cl       -3.13485734292853    3.63673291366694    2.88104795175267
62
 energy: -137.578023639158 gnorm: 0.002029552617 xtb: 6.4.1 (a3dbbd7)
C        -1.29590794314757    0.00400790621881    3.54491836336829
C        -0.36802206950886   -1.17219056481438    3.30477154551945
C         0.98291973238402   -0.72168187069146    3.27455628128018
C         0.98104734823077    0.71967533052468    3.26883567375727
C        -0.37138003192166    1.17964160937539    3.30176118859925
C         2.33682031755722   -2.58564651428408    0.57933782738806
C         3.18697446151219   -1.41966302345078    0.57761336138814
C         2.94980100367426   -0.69874708384875    1.80097867375956
C         1.95316410184808   -1.41750215012854    2.55586210378716
C         1.57992581923461   -2.57982161621733    1.80501672170602
C         3.18782764133967    1.40973136361777    0.57569466973476
C         2.33782739510520    2.57349979915511    0.57563039692379
C         1.57608368531680    2.56547662279761    1.79913105771398
C         1.95267133436924    1.40802370828038    2.55136831437935
C         2.95083313254394    0.68855200024860    1.80069652881611
C        -0.36583297801618    3.42632587072778    0.57947768004019
C        -1.73073813257511    3.01799594928228    0.58384649253940
C        -2.09526872927131    2.46432934892332    1.94841732925073
C        -0.73170304941218    2.28673106485845    2.58352643460784
C         0.24760900446821    2.97557635729718    1.80352631647591
C        -3.37580347236676    0.70391579542803    0.57603694392073
C        -3.38927360509946   -0.73211346708073    0.56820911907329
C        -2.76738703930348   -1.16321925183580    1.78800621564348
C        -2.38931034123716    0.02566651086190    2.53280927767261
C        -2.74956303677452    1.13151547993907    1.81501218544887
C        -1.73444952598111   -3.01027500539709    0.57914266639378
C        -0.36117082262844   -3.44721455203130    0.58165278371398
C         0.25246832748609   -2.99487460073046    1.80533065873082
C        -0.72890390953090   -2.27340731310160    2.56434158348460
C        -1.97086230574235   -2.28701516568660    1.79803975335496
C        -0.24396225340897   -3.01463373697701   -1.82670408859467
C         0.74975330306607   -2.29326898816447   -2.58311243782893
C         1.97485071560483   -2.29257679184241   -1.82562056842098
C         1.74173768404928   -3.01147705886230   -0.59961605402115
C         0.36891829982079   -3.45464645685218   -0.59777654197687
C         2.79479805889620   -1.17049451626187   -1.82856100856424
C         2.41614696641134   -0.00532580143244   -2.58579676260218
C         2.79849211464350    1.16094132099424   -1.83080369874097
C         3.41402557777538    0.71540955905831   -0.60590583080133
C         3.41171200044606   -0.72597369885664   -0.60458189369730
C         1.98279481730538    2.28519279382372   -1.82991395980827
C         0.75364163371675    2.28517029516668   -2.58587620155754
C        -0.23498875080439    3.00358751009417   -1.82299183061435
C         0.37340299056245    3.44199843993969   -0.60184040570717
C         1.74676406282638    3.00200116130782   -0.60386883114912
C        -1.55539055078211    2.56713722690831   -1.80833623611017
C        -1.93805175052026    1.40513512010502   -2.57085063238325
C        -2.93524319554982    0.68405042713884   -1.82115865085735
C        -3.16972579261359    1.39751839765746   -0.59619580613985
C        -2.30495911136281    2.57354332595648   -0.58427325982030
C        -2.94097469599817   -0.70821218247662   -1.83465869184555
C        -1.94484307658349   -1.42431493341157   -2.59140647958310
C        -1.56534715519617   -2.59221132950168   -1.83254387030707
C        -2.32814993679503   -2.59336120050630   -0.60934527912927
C        -3.17719028989735   -1.43225570511168   -0.61442194615944
C        -0.98745577979268   -0.72679329839614   -3.31346747695132
C        -0.98629876323043    0.71510901499355   -3.30718183578687
C         0.38568623757280    1.16071146135084   -3.31077886441319
C         1.23142790653263   -0.00500717186329   -3.31231731446659
C         0.38479111003671   -1.17032980284710   -3.31283553803184
Cl       -1.95613119290010   -0.01051814834985    5.23340506439321
Cl       -3.13468071660369    3.62834856777181    2.87809689429654
62
 energy: -137.578031927665 gnorm: 0.000869175514 xtb: 6.4.1 (a3dbbd7)
C        -1.29586675954214    0.00401225537927    3.54526920526858
C        -0.36795319629514   -1.17232488062746    3.30509747873328
C         0.98296457483654   -0.72177430545943    3.27491954277616
C         0.98144288590032    0.71968254299382    3.26944465658557
C        -0.37077995398030    1.17937730019787    3.30166148914559
C         2.33659617775349   -2.58550904539658    0.57949914393220
C         3.18672390027408   -1.41951305844215    0.57778641738181
C         2.94965412882961   -0.69859860980819    1.80117844892359
C         1.95313230959535   -1.41749796386131    2.55609724002523
C         1.57972091967858   -2.57970545930166    1.80519080884339
C         3.18778675093603    1.40989511285591    0.57589690593062
C         2.33800001766480    2.57384264834666    0.57580970603955
C         1.57657057142900    2.56583508224187    1.79945720569871
C         1.95298827935813    1.40824473262680    2.55184049984286
C         2.95083028976690    0.68871268804133    1.80092450993367
C        -0.36538282958750    3.42634487582029    0.57925113945537
C        -1.72979929366646    3.01686940263298    0.58326190926849
C        -2.09477007609935    2.46297943731119    1.94772714897074
C        -0.73079850216918    2.28584948046041    2.58268667036571
C         0.24809119004520    2.97564958702636    1.80335122827880
C        -3.37502675773965    0.70337362153986    0.57579426760555
C        -3.38971844742291   -0.73244546047374    0.56830372862532
C        -2.76780846472386   -1.16342200929605    1.78829901751362
C        -2.38897635393755    0.02498162594422    2.53258633963186
C        -2.74841890838970    1.13055770842129    1.81431427336574
C        -1.73471892409822   -3.01004322033610    0.57935621649825
C        -0.36142252978945   -3.44698526625916    0.58181157399485
C         0.25225981438473   -2.99477709503878    1.80552776770536
C        -0.72914701743695   -2.27344414338273    2.56462656751835
C        -1.97125600265788   -2.28730110511298    1.79851126798109
C        -0.24418824279665   -3.01434176038675   -1.82647278352704
C         0.74944414135837   -2.29297490441402   -2.58287206209298
C         1.97456856577175   -2.29237502006623   -1.82542569622125
C         1.74146060341410   -3.01127249102423   -0.59944691781842
C         0.36864739747574   -3.45440371713362   -0.59760496086605
C         2.79449709778957   -1.17031923787635   -1.82835736665059
C         2.41583624006881   -0.00514379676365   -2.58554508535205
C         2.79821033842987    1.16106820082035   -1.83057547417411
C         3.41374305946987    0.71554690326564   -0.60571078639074
C         3.41139129562349   -0.72580579541572   -0.60439558492580
C         1.98264445461654    2.28538429018749   -1.82979672776601
C         0.75354847560478    2.28543664326607   -2.58584556396827
C        -0.23505620738314    3.00411448525253   -1.82331740344702
C         0.37355001373231    3.44247169494202   -0.60204811532997
C         1.74682253058297    3.00231700463392   -0.60378971760906
C        -1.55553780192333    2.56778259660801   -1.80896930638620
C        -1.93840855909035    1.40565450083321   -2.57136787722548
C        -2.93554242626390    0.68445093610616   -1.82150202121086
C        -3.16933931965090    1.39756985037763   -0.59628596443328
C        -2.30449724530930    2.57329261162437   -0.58472814024930
C        -2.94118602053044   -0.70788557627756   -1.83456874171674
C        -1.94506259121812   -1.42400146966544   -2.59117609812152
C        -1.56551617014358   -2.59183168025630   -1.83223458200995
C        -2.32836004696114   -2.59309982233818   -0.60916412288904
C        -3.17765661444636   -1.43221171717160   -0.61439125707923
C        -0.98770655229531   -0.72648490797672   -3.31330648914711
C        -0.98655265585795    0.71545713132357   -3.30737054033902
C         0.38549827058408    1.16097818133556   -3.31072166459596
C         1.23115392318468   -0.00478252931203   -3.31209233423552
C         0.38451363552774   -1.17007668928743   -3.31262710500887
Cl       -1.95562071633898   -0.00894805510363    5.23310707651846
Cl       -3.13426988616099    3.62331399963997    2.87542914952114
62
 energy: -137.578032775797 gnorm: 0.000212443050 xtb: 6.4.1 (a3dbbd7)
C        -1.29585809770389    0.00401118895665    3.54517689253707
C        -0.36796043462932   -1.17243305037605    3.30515820978008
C         0.98298838983527   -0.72191219207564    3.27512267938171
C         0.98156472667820    0.71960753568128    3.26971969810914
C        -0.37066843460465    1.17924059903467    3.30150764336582