63
 energy: -142.063057059598 gnorm: 0.140179035464 xtb: 6.4.1 (a3dbbd7)
C        -1.29750015586385   -0.00332986390914    3.53259128384291
C        -0.36662330751186   -1.17665276848352    3.30664507069186
C         0.98616964776834   -0.71907897730420    3.28345800331063
C         0.97960460534774    0.72298388992876    3.28116382332211
C        -0.37123063139343    1.17283027203526    3.30703999424566
C         2.33902808225222   -2.57287964708243    0.59282134541102
C         3.18775381441874   -1.40592934941989    0.58930269986468
C         2.95375934983025   -0.68600072575484    1.81413225258493
C         1.96120405920183   -1.41040140165925    2.57054878390017
C         1.59036597905156   -2.57351223230031    1.81677968982536
C         3.18509045263714    1.42556506459426    0.58677401618036
C         2.33644918538866    2.58955715701350    0.58712295456856
C         1.57732702745437    2.58269052266160    1.81121996042124
C         1.95121649520604    1.42062240906665    2.56339217358200
C         2.94734969899541    0.70178584035143    1.81241871801286
C        -0.36230865601760    3.44984460076387    0.58649915495812
C        -1.73568065385573    3.00856312776383    0.58620129080773
C        -1.97466648707238    2.29051782036392    1.80819368403138
C        -0.73502216685138    2.27460254582232    2.56651749222581
C         0.25013328780141    2.99673212004624    1.80718987334861
C        -3.40556373000186    0.73624756401696    0.57396823263447
C        -3.39656113686751   -0.70087893853968    0.57336766874418
C        -2.76869398640548   -1.13743152688347    1.81131829425690
C        -2.41606481668825   -0.00935770106357    2.54947016075177
C        -2.77763293498784    1.16181023849822    1.80199827311876
C        -1.73897950039868   -3.00369688886198    0.61027095302842
C        -0.34675175341818   -3.43911314840585    0.58927014667112
C         0.26540959524459   -2.99405405130769    1.81086784239501
C        -0.72448106648574   -2.27696612285733    2.56655534431523
C        -1.96661719091772   -2.30337153119419    1.80189055009829
C        -0.25303910441721   -3.21697439825626   -1.93515078628168
C         0.75308145440921   -2.28653916290657   -2.57867440920420
C         1.95238411039292   -2.27005430543362   -1.81108187299871
C         1.72490810125568   -2.99201887192918   -0.58363119559495
C         0.37557574680441   -3.46024706207600   -0.57873868952343
C         2.78760429110383   -1.15277384641970   -1.81491371839878
C         2.41431409213368    0.00739165047242   -2.57035366353322
C         2.79604684339575    1.17540453813949   -1.81886357647572
C         3.41064679229982    0.73155426330899   -0.59398339018568
C         3.40671134080570   -0.71156461677298   -0.59219407131255
C         1.97416914155198    2.29602882113511   -1.81673739726529
C         0.74456425139311    2.29447798281708   -2.57376768155679
C        -0.24519477981105    3.02272291127020   -1.82308616330370
C         0.36643514376396    3.45792956944505   -0.59428177351760
C         1.74064009670815    3.01454722219930   -0.59425933402647
C        -1.56829205833959    2.59366542792251   -1.82366590722493
C        -1.95096538781572    1.43092752853070   -2.58180486333857
C        -2.95240685827341    0.71446038976117   -1.82971357566041
C        -3.18630415806833    1.43422379644892   -0.60509868332397
C        -2.32927637798178    2.59497169040384   -0.60132137479790
C        -2.94754506526652   -0.67313005777755   -1.82391405444887
C        -1.94410239546657   -1.40286442546858   -2.56150397187270
C        -1.58527622402766   -2.56555974461748   -1.79963026731950
C        -2.30667368088430   -2.55904727586024   -0.60742050910323
C        -3.17269142016400   -1.38977890440225   -0.59872192408106
C        -0.99841208662573   -0.71329160109820   -3.30239014224414
C        -0.99320180548013    0.72405697444618   -3.30061797729521
C         0.37942274041569    1.16763777902732   -3.29646704633613
C         1.22337490988637    0.00222195938508   -3.28765862798480
C         0.38284144139822   -1.16484842740713   -3.28531009498081
Cl       -1.93980801969369   -0.00660548094091    5.24287063977443
Cl       -0.38906216058057   -4.77802061432624   -2.87495725020283
Cl       -0.34638662740833    4.57220064880381   -2.75312860903807
63
 energy: -142.087434671836 gnorm: 0.061626821076 xtb: 6.4.1 (a3dbbd7)
C        -1.29771659013555   -0.00190625325841    3.53435490625438
C        -0.36760831752445   -1.17540638054318    3.30820215395190
C         0.98555420856473   -0.71898124104549    3.28441936164675
C         0.98103522533279    0.72225132275864    3.28292851756629
C        -0.37072509285123    1.17315410025191    3.30818789874965
C         2.33857079731724   -2.57392371431166    0.59299049460920
C         3.18793118514738   -1.40851982889798    0.59036057563624
C         2.95380739271601   -0.68817431936406    1.81592111789165
C         1.96066052840038   -1.41115624162302    2.57125224313059
C         1.58914182989604   -2.57357277119096    1.81657524713965
C         3.18864873333872    1.42215806412755    0.59001974315424
C         2.34056552908427    2.58627798842921    0.59394675252513
C         1.58232577005793    2.58176464220142    1.81668044703103
C         1.95421160710831    1.41841147187138    2.56694135030724
C         2.95031149685616    0.69945334905227    1.81545782241641
C        -0.35648820924722    3.43673186364214    0.59083552113889
C        -1.73718985503999    3.00271360672564    0.59014970422579
C        -1.97372241281130    2.29086438332806    1.80780539049606
C        -0.73330805271381    2.27427710596239    2.56774035957006
C         0.25482377421869    2.99628490799478    1.81376121005686
C        -3.41090214421779    0.72862679709966    0.57902738439764
C        -3.40047330476324   -0.70752217986712    0.57738834307989
C        -2.76989843933328   -1.14059988256246    1.81305717457586
C        -2.41640253455122   -0.00735302761201    2.55230491071966
C        -2.77964445992670    1.15805412487194    1.80532316377352
C        -1.73878074926576   -3.00450553903899    0.60812683534653
C        -0.34765562172387   -3.43907062764380    0.58748826346280
C         0.26376220721340   -2.99193540257346    1.80930218460926
C        -0.72580827878176   -2.27557134366563    2.56705002511163
C        -1.96714633281856   -2.30189353672601    1.80358492080227
C        -0.25251041821608   -3.21781221498094   -1.93721809204930
C         0.75393581169321   -2.28729507354921   -2.57936058220755
C         1.95408765011351   -2.27167229265229   -1.81084898446206
C         1.72459139939581   -2.99287719767554   -0.58431596506342
C         0.37527830409739   -3.46115800866369   -0.58077803313518
C         2.79104624747621   -1.15639665644350   -1.81377979285385
C         2.42040492695152    0.00309841752702   -2.57061822745974
C         2.80129927327312    1.16863691914918   -1.81798591491116
C         3.41435798822598    0.72767460962865   -0.59155031834225
C         3.40996684719229   -0.71482275525241   -0.59074775863574
C         1.97210096710008    2.28485443712876   -1.81199117994301
C         0.75361981077233    2.28008515645421   -2.57104771829973
C        -0.25025606132759    3.11442702256761   -1.87795908726237
C         0.37342860410126    3.44989165308094   -0.58075881359224
C         1.73818158803636    3.00459014474912   -0.58744457340708
C        -1.59323066616824    2.58899691075241   -1.82568266764211
C        -1.95405156356532    1.42129544442655   -2.56890711365380
C        -2.96197349520540    0.70423345757792   -1.82459671827513
C        -3.19563225273318    1.42320962291572   -0.60133341351780
C        -2.33020077967120    2.57867918709558   -0.59975711296815
C        -2.95242395476835   -0.68210925206194   -1.82116660196477
C        -1.94569818904691   -1.40790875106352   -2.56036124556444
C        -1.58449017303139   -2.56703999552850   -1.80269912243307
C        -2.30784208501533   -2.56232322580693   -0.60583899466055
C        -3.17635507618006   -1.39715241074910   -0.59593736704166
C        -0.99757427209345   -0.71263026871366   -3.30225877723387
C        -0.99449417595232    0.71752672964638   -3.29782459270010
C         0.38400226062572    1.15832607241409   -3.28563058866879
C         1.22955534039219   -0.00283460715454   -3.28890757930601
C         0.38473598576740   -1.16577932613166   -3.28511407686228
Cl       -1.93924591593664   -0.00487077204822    5.24580211663757
Cl       -0.38743560296025   -4.77950103630588   -2.87755023703256
Cl       -0.34449281961428    4.70052927699836   -2.82819712037215
63
 energy: -142.093563311601 gnorm: 0.016023699014 xtb: 6.4.1 (a3dbbd7)
C        -1.29720298279304   -0.00280917860151    3.53548270115392
C        -0.36790666343464   -1.17659346954997    3.31026977435076
C         0.98518737263821   -0.72066642780926    3.28607784534468
C         0.98254122820703    0.72017832156146    3.28544740470524
C        -0.37026154598313    1.17207867525874    3.30942859525502
C         2.33836599818224   -2.57668197508876    0.59440334985643
C         3.18812904146607   -1.41267251604350    0.59253494632510
C         2.95392763983838   -0.69206706305030    1.81855278517403
C         1.96041678974473   -1.41377959908385    2.57292803167622
C         1.58818122554404   -2.57573502106110    1.81765968806004
C         3.18901527837809    1.41833044768761    0.59221267095128
C         2.33871565864992    2.58155882025276    0.59553430040248
C         1.58360313516570    2.57704760748423    1.81691828285667
C         1.95663371377974    1.41549256532174    2.57036855453355
C         2.95206275940647    0.69594624761571    1.81795255602749
C        -0.35319682502917    3.43258581389056    0.58602786642092
C        -1.73909862449784    3.00224491058950    0.59286935017606
C        -1.97179106688841    2.28954715019932    1.80436918406164
C        -0.73203578301651    2.27151320559736    2.56677601947353
C         0.25595449129539    2.98996939020469    1.80988107168666
C        -3.41094712679502    0.72189578287384    0.58272615792473
C        -3.40410661369240   -0.71440554999860    0.58163080956069
C        -2.77204557657286   -1.14631951408947    1.81525531312387
C        -2.41644397963677   -0.00701173502341    2.55456881694447
C        -2.78067925458400    1.15283846065395    1.80885095683507
C        -1.73848753556594   -3.00699407331082    0.60686257405071
C        -0.34829217666824   -3.44052963065947    0.58739908719019
C         0.26263526226042   -2.99204934181338    1.80914625923038
C        -0.72666111362357   -2.27633388488506    2.56814438710402
C        -1.96761616829577   -2.30199795480435    1.80633788666675
C        -0.25185505066867   -3.21918316716835   -1.93683743469684
C         0.75454261216788   -2.28883100973161   -2.57888840394547
C         1.95585637690985   -2.27459431512674   -1.80978834446266
C         1.72441599982249   -2.99517893897028   -0.58372356045159
C         0.37537464240345   -3.46358682837936   -0.58078817740623
C         2.79379999880068   -1.16036831653101   -1.81214581635193
C         2.42090965220426    0.00074495984625   -2.56634948334685
C         2.79921852447749    1.16463227769555   -1.81519011227014
C         3.41468634799531    0.72396125971792   -0.58916926922822
C         3.41173298628845   -0.71840343028705   -0.58838770679048
C         1.96206221111538    2.27770574176063   -1.80997155957391
C         0.75558772665038    2.28127974046872   -2.57423631519714
C        -0.25213937238042    3.19593511641563   -1.92622986393769
C         0.37460712343047    3.45352077004267   -0.57980869662558
C         1.72807264849963    2.99767009563333   -0.58503873392928
C        -1.59531518420364    2.58345587165698   -1.82281853796537
C        -1.94738393687425    1.42042698433222   -2.55808748356108
C        -2.95865347394597    0.69788795839965   -1.81852495334794
C        -3.19185111173438    1.41541588171318   -0.59773551416836
C        -2.32103658200969    2.57012404010751   -0.60201879567668
C        -2.95252665622411   -0.68862841462349   -1.81710898376747
C        -1.94655021683071   -1.41369542745545   -2.55779643613513
C        -1.58385303290530   -2.56881609344348   -1.80401855495166
C        -2.31018946050380   -2.56741308055633   -0.60255816638140
C        -3.17973280336842   -1.40479213580798   -0.59297848395455
C        -0.99691383757600   -0.71005054773517   -3.29907432010680
C        -0.99563023892472    0.71466695498160   -3.29916836883489
C         0.38511630323446    1.16086762545056   -3.27903456505279
C         1.22852122816307   -0.00251472198778   -3.28147606382973
C         0.38521191229951   -1.16613934858418   -3.28197462974268
Cl       -1.93936817918343   -0.00308912384290    5.24746420752023
Cl       -0.38682408197398   -4.78000695065285   -2.87982524048495
Cl       -0.34792423935968    4.79521876406669   -2.88451108997463
63
 energy: -142.093901533597 gnorm: 0.010138126205 xtb: 6.4.1 (a3dbbd7)
C        -1.29712278115300   -0.00328575976197    3.53673859504395
C        -0.36822890125632   -1.17722959377845    3.31128730326557
C         0.98496711381921   -0.72177910650816    3.28718879793070
C         0.98297439203119    0.71898361038028    3.28638043945729
C        -0.37001378058494    1.17126454433707    3.30948082423809
C         2.33815702523412   -2.57825652228106    0.59513462180525
C         3.18817791392038   -1.41464332859614    0.59354932439480
C         2.95393593359604   -0.69390578110004    1.81979487350732
C         1.96016794441487   -1.41522451998443    2.57388802297408
C         1.58739411775179   -2.57685302452919    1.81816702678577
C         3.18757288058533    1.41647793581355    0.59267914836739
C         2.33652451816547    2.57932562278437    0.59426783672318
C         1.58314557220719    2.57472087854756    1.81573645456276
C         1.95709163827107    1.41415499828053    2.57143668409144
C         2.95220569389253    0.69435215692852    1.81890204532078
C        -0.35299697871553    3.43571773563163    0.58311954256875
C        -1.74013541960807    3.00407986910977    0.59464442102084
C        -1.97119382898391    2.28937111537980    1.80364940987231
C        -0.73131703286977    2.26974537410842    2.56513052657262
C         0.25588669022147    2.98702379901171    1.80598996190113
C        -3.40918389488665    0.71993578613925    0.58379640476032
C        -3.40499554571857   -0.71646141888953    0.58311511964148
C        -2.77333556259943   -1.14846097063873    1.81634851369232
C        -2.41655388563114   -0.00684196481517    2.55614583162720
C        -2.78003429083778    1.15093636035457    1.81067775896637
C        -1.73886731697010   -3.00799226312872    0.60617499303414
C        -0.34895826435397   -3.44108893156528    0.58731757465812
C         0.26167241047819   -2.99230028100557    1.80910752316745
C        -0.72740298276527   -2.27665158350369    2.56846707663655
C        -1.96832624364220   -2.30197181094303    1.80738365506604
C        -0.25151088122297   -3.22050004424196   -1.93698409081898
C         0.75465699599523   -2.28924729249172   -2.57815488131018
C         1.95632321210636   -2.27591206260319   -1.80906729301922
C         1.72432841407456   -2.99671383926055   -0.58333359253218
C         0.37524650557580   -3.46483173956537   -0.58079319164946
C         2.79430559714990   -1.16186901021675   -1.81135325147761
C         2.41976815004998    0.00051315311418   -2.56396276364354
C         2.79642896319951    1.16423939442754   -1.81332646474118
C         3.41314637339034    0.72240667689491   -0.58819704860921
C         3.41186719958757   -0.71998166534773   -0.58741284101445
C         1.95838591872619    2.27768238424009   -1.81067691703953
C         0.75516649755575    2.28867652027060   -2.57975685264000
C        -0.25101606153636    3.21495769563928   -1.93719596132983
C         0.37388222459939    3.46184843831303   -0.58374644685412
C         1.72439080414767    2.99766369735152   -0.58571593229263
C        -1.59025212000576    2.58247566932164   -1.82127325266659
C        -1.94350980119764    1.42228319467872   -2.55678973492658
C        -2.95364408101468    0.69628363391160   -1.81600698168813
C        -3.18667130138973    1.41328559727474   -0.59611432251576
C        -2.31670815378481    2.57057900020437   -0.60310793419897
C        -2.95087796246685   -0.69023441706116   -1.81543585235327
C        -1.94574461482144   -1.41609932447956   -2.55682131740821
C        -1.58349533097589   -2.57009391515453   -1.80490126610820
C        -2.31145396131335   -2.56962556978151   -0.60158640092879
C        -3.18049579448742   -1.40722902327903   -0.59214203704366
C        -0.99657852230277   -0.70943052246225   -3.29844089452586
C        -0.99582251893837    0.71390605060640   -3.30180702679434
C         0.38501307591546    1.16493839989787   -3.28033698783290
C         1.22689992612092   -0.00069176153399   -3.27724360131243
C         0.38514514262311   -1.16550945022153   -3.27953588337290
Cl       -1.93867043568636   -0.00203915285731    5.24959651109831
Cl       -0.38542044915425   -4.78117358312356   -2.88147429584024
Cl       -0.35372475125655    4.80910259748112   -2.89378373577070
63
 energy: -142.094040484972 gnorm: 0.006175222099 xtb: 6.4.1 (a3dbbd7)
C        -1.29721551997595   -0.00294426860607    3.53765662490051
C        -0.36861933800455   -1.17695375008184    3.31182896469297
C         0.98471450339066   -0.72205512334479    3.28787597422538
C         0.98320474420485    0.71860825935726    3.28699627241315
C        -0.36990834456811    1.17136703546295    3.30989868572487
C         2.33791741818477   -2.57880085491887    0.59524503917246
C         3.18828606405787   -1.41559668793046    0.59395001278975
C         2.95399582969055   -0.69470649142455    1.82045862160700
C         1.95988447201911   -1.41563123974533    2.57423745378129
C         1.58662879283641   -2.57686151909224    1.81802583300211
C         3.18656581352028    1.41530471866741    0.59296667073184
C         2.33508760435860    2.57762937742293    0.59341620144768
C         1.58297018113935    2.57359162169232    1.81530572618054
C         1.95747634379871    1.41355947214001    2.57236744315072
C         2.95238784622431    0.69369731104613    1.81968467421516
C        -0.35290405075888    3.43764795528065    0.58180812249794
C        -1.74114389478221    3.00559665331833    0.59683936319755
C        -1.97113194231006    2.29024357850620    1.80409597174751
C        -0.73082259547449    2.26899721983605    2.56418968400475
C         0.25610457502878    2.98545734908564    1.80369857422840
C        -3.40803655818125    0.71913330942868    0.58438462323032
C        -3.40564397900802   -0.71710460515593    0.58382365789746
C        -2.77452662862209   -1.14925534729015    1.81661866080142
C        -2.41698016702298   -0.00564143966662    2.55760547699664
C        -2.77931129446394    1.15002815950863    1.81236300362120
C        -1.73926195865666   -3.00763416867845    0.60472287023406
C        -0.34965515253940   -3.44048369297048    0.58659818032920
C         0.26069061896448   -2.99142283828209    1.80840306636100
C        -0.72816316066598   -2.27584958267543    2.56807865164208
C        -1.96904272223943   -2.30061883333926    1.80761701180315
C        -0.25128868321153   -3.22114312976689   -1.93772160474730
C         0.75489195793659   -2.28953668240603   -2.57840349389941
C         1.95664929676817   -2.27658423792514   -1.80895955966617
C         1.72423235072863   -2.99747634727925   -0.58347633958246
C         0.37507211978067   -3.46522248139016   -0.58137841545158
C         2.79482839150190   -1.16289330357049   -1.81115490734045
C         2.41929795593798    0.00028919041988   -2.56285611827634
C         2.79455632304360    1.16388496741054   -1.81189868685532
C         3.41207969760283    0.72141467613288   -0.58760394620047
C         3.41214748277769   -0.72094239139255   -0.58715459335925
C         1.95613300943411    2.27719748124440   -1.81083434295451
C         0.75449700754819    2.29315768299195   -2.58306683786350
C        -0.25018751438866    3.22345976397316   -1.94203564218736
C         0.37306178474799    3.46679538598348   -0.58626185126415
C         1.72213476606504    2.99718963057980   -0.58585364195746
C        -1.58519875957719    2.58025749235775   -1.81900576695427
C        -1.94068393652381    1.42335593978210   -2.55649451306915
C        -2.94978803076200    0.69518637189029   -1.81429746356377
C        -3.18272346732586    1.41190774970425   -0.59488154671341
C        -2.31377060365751    2.57131817286355   -0.60337400359699
C        -2.94975721029239   -0.69095064858277   -1.81469810540558
C        -1.94473674645939   -1.41786932404740   -2.55659695704708
C        -1.58329884421443   -2.57080407113626   -1.80668910245202
C        -2.31263377858205   -2.57044540957805   -0.60135998850772
C        -3.18101643099143   -1.40825831785897   -0.59208997043209
C        -0.99625275369650   -0.70936591774351   -3.29936552916674
C        -0.99592652366041    0.71263302769233   -3.30436042953050
C         0.38504972634017    1.16703410242640   -3.28136467176420
C         1.22621723530276    0.00051040037992   -3.27482432207612
C         0.38523461741252   -1.16500410649319   -3.27834326488636
Cl       -1.93751607785772   -0.00146743807838    5.25173262838624
Cl       -0.38365936989702   -4.78250396958709   -2.88259212381331
Cl       -0.36062709870096    4.80837681917654   -2.89467823593660
63
 energy: -142.094112230408 gnorm: 0.003819496811 xtb: 6.4.1 (a3dbbd7)
C        -1.29741695954075   -0.00199140446334    3.53821090642296
C        -0.36911993859437   -1.17601625182633    3.31188255372451
C         0.98432476045130   -0.72160770830977    3.28797269603584
C         0.98328844650217    0.71895870678654    3.28726434711057
C        -0.36994770299997    1.17221451450671    3.31057299306823
C         2.33744246933347   -2.57850458142102    0.59491392387532
C         3.18814617024092   -1.41569507679529    0.59387182644803
C         2.95383558075619   -0.69470561745053    1.82055728967072
C         1.95939360270110   -1.41527711917864    2.57401356891568
C         1.58579546460948   -2.57617241736815    1.81746571375929
C         3.18635842862696    1.41491650852560    0.59315016347170
C         2.33484084619217    2.57691918859441    0.59327065251864
C         1.58324881860515    2.57360204794483    1.81558076833964
C         1.95782407277852    1.41361556047907    2.57301274226938
C         2.95258994710611    0.69373414299741    1.82013945468422
C        -0.35252753865625    3.43796317852988    0.58188166497888
C        -1.74156367789394    3.00616230878861    0.59861233374600
C        -1.97124453163956    2.29184880234323    1.80515982617074
C        -0.73054047449475    2.26944638329750    2.56425611079533
C         0.25663026227094    2.98537185929816    1.80327908748488
C        -3.40762146137132    0.71892618000943    0.58468329242708
C        -3.40619630500100   -0.71701654356130    0.58410128738056
C        -2.77537701119977   -1.14915424562465    1.81623582815656
C        -2.41754358217324   -0.00375332568829    2.55884654181104
C        -2.77851881020401    1.14981646743052    1.81370255005960
C        -1.73965700964076   -3.00645148992133    0.60287003268426
C        -0.35038089986160   -3.43921122724575    0.58550333919583
C         0.25965628865873   -2.98996089515654    1.80734330408701
C        -0.72894448113138   -2.27440516018429    2.56728397522464
C        -1.96973536340251   -2.29853123681833    1.80733289334899
C        -0.25118686824009   -3.22114588949711   -1.93883414898696
C         0.75517668063558   -2.28967860203197   -2.57943172201928
C         1.95685558111056   -2.27661467033693   -1.80935267310044
C         1.72395610868610   -2.99738710236040   -0.58400502882238
C         0.37476232714434   -3.46486652444513   -0.58234011905571
C         2.79534270355510   -1.16335111897192   -1.81139069894963
C         2.41964814540577    0.00011118114368   -2.56290920162351
C         2.79417638156709    1.16361876627028   -1.81129178600102
C         3.41189208176679    0.72104053069506   -0.58740533633206
C         3.41243641339737   -0.72126529820403   -0.58732282508791
C         1.95546548161425    2.27642709184081   -1.81054720984525
C         0.75421942158986    2.29383196991383   -2.58358744253364
C        -0.25000895296916    3.22542848153865   -1.94316825930946
C         0.37275752643302    3.46752385751645   -0.58668819132862
C         1.72144995684275    2.99645182793215   -0.58551009363202
C        -1.58188859462305    2.57709366905534   -1.81653324213827
C        -1.93931907794142    1.42322374401050   -2.55634356316256
C        -2.94795207313503    0.69432903121688   -1.81347134271420
C        -3.18094793251052    1.41106845562451   -0.59405936375764
C        -2.31247479270357    2.57132083006250   -0.60297845521712
C        -2.94941971562376   -0.69126389686217   -1.81457607347491
C        -1.94369654136808   -1.41898832959551   -2.55680844930523
C        -1.58320453548699   -2.57097825705841   -1.80900343841731
C        -2.31356274691640   -2.57021484745140   -0.60151726338859
C        -3.18148426011800   -1.40855043613680   -0.59244726172272
C        -0.99581287026529   -0.70948757796365   -3.30123098865614
C        -0.99572303460726    0.71133119029244   -3.30578022823711
C         0.38549475253127    1.16718801978368   -3.28157412294871
C         1.22659665345024    0.00090818257816   -3.27442269383276
C         0.38559226991922   -1.16478508415250   -3.27867489642606
Cl       -1.93627603624379   -0.00116497377109    5.25367192951386
Cl       -0.38194156848280   -4.78372328528997   -2.88337128115134
Cl       -0.36739690216741    4.80033017185947   -2.89124842770877
63
 energy: -142.094146014759 gnorm: 0.002637355017 xtb: 6.4.1 (a3dbbd7)
C        -1.29762436602126   -0.00093289871283    3.53845794155302
C        -0.36965023293085   -1.17497197218524    3.31169244398015
C         0.98386508010480   -0.72091552574587    3.28767827443263
C         0.98331184384512    0.71958850638158    3.28729856095810
C        -0.37004373499723    1.17321785149581    3.31119112397595
C         2.33684164408399   -2.57796566319744    0.59448665280567
C         3.18780074381522   -1.41544210721368    0.59360800547361
C         2.95346049309525   -0.69441545854482    1.82034490129902
C         1.95878908847719   -1.41474182745431    2.57357405172039
C         1.58499770619497   -2.57542104062986    1.81687088952860
C         3.18672204749232    1.41500864551506    0.59327069097381
C         2.33547134019583    2.57707608397218    0.59364110479206
C         1.58378726524067    2.57419203596466    1.81612317548720
C         1.95807962027626    1.41395653425929    2.57328150432948
C         2.95274886125699    0.69398004416651    1.82024840634687
C        -0.35194576732826    3.43754254361546    0.58268450279473
C        -1.74126633163434    3.00589341458067    0.59946568720625
C        -1.97124810494713    2.29349981019433    1.80620229167583
C        -0.73038915430197    2.27058837065024    2.56502149409540
C         0.25725098689122    2.98623893279602    1.80412985829848
C        -3.40764923231370    0.71887156188063    0.58482803758867
C        -3.40668995366274   -0.71679899207076    0.58425510923720
C        -2.77586963980344   -1.14873924832553    1.81562714593295
C        -2.41804859444869   -0.00186236266698    2.55976193230506
C        -2.77772204655821    1.14991033259271    1.81451824026162
C        -1.74004526797934   -3.00523756713545    0.60121890262473
C        -0.35104195308400   -3.43802474363377    0.58447774474632
C         0.25867899807222   -2.98865120475064    1.80639223542643
C        -0.72966613026529   -2.27304384438395    2.56655785447272
C        -1.97036726702839   -2.29657610232276    1.80693531944067
C        -0.25112220537087   -3.22089094598973   -1.93991241019314
C         0.75543266671562   -2.28972529886081   -2.58059105980896
C         1.95699992413458   -2.27633292780663   -1.80989585065866
C         1.72356097234603   -2.99687478997886   -0.58458908313491
C         0.37438474804035   -3.46427381177941   -0.58328402888324
C         2.79572115314503   -1.16337164209739   -1.81172974791487
C         2.42040366549867    0.00002736091576   -2.56351174921879
C         2.79490086434415    1.16348040421494   -1.81143261121624
C         3.41227609030954    0.72103367664780   -0.58744965804011
C         3.41269323013244   -0.72122171384367   -0.58754574459614
C         1.95607725241744    2.27598182417760   -1.81026033525295
C         0.75458536742095    2.29223648541333   -2.58251850237420
C        -0.25030502566806    3.22405750261209   -1.94241262649536
C         0.37314962684338    3.46588003697660   -0.58570512195862
C         1.72204209616325    2.99607782096631   -0.58509989172291
C        -1.58097592051438    2.57417981319012   -1.81462833880257
C        -1.93949232854320    1.42229867079824   -2.55621950191976
C        -2.94812921080717    0.69374248622117   -1.81345171139313
C        -3.18117819096237    1.41074303975546   -0.59358402718830
C        -2.31275174315821    2.57075666698910   -0.60226396057818
C        -2.94934395641765   -0.69139988967998   -1.81458029576578
C        -1.94265983642894   -1.41950202731837   -2.55703377877118
C        -1.58308830498062   -2.57088919434526   -1.81115904445206
C        -2.31410270258355   -2.56955953705655   -0.60172866262109
C        -3.18184935328690   -1.40864764202299   -0.59283455707357
C        -0.99524459792570   -0.70954424333169   -3.30311549302795
C        -0.99526140959555    0.71052184824690   -3.30582781466519
C         0.38618660310009    1.16639064308906   -3.28141178743068
C         1.22755878288382    0.00072233517027   -3.27537341631398
C         0.38614380957827   -1.16484267237509   -3.27995005207955
Cl       -1.93525145909195   -0.00080107164965    5.25519149672595
Cl       -0.38049450501162   -4.78469687108096   -2.88406743112863