62
 energy: -137.518831306691 gnorm: 0.141904194954 xtb: 6.4.1 (a3dbbd7)
C        -1.29770965891222    0.00000000000000    3.53163224767276
C        -0.37107604425475   -1.17478800586359    3.31058196643012
C         0.97979757550459   -0.72157705231961    3.28110534952822
C         0.97979757550459    0.72157705231961    3.28110534952822
C        -0.37107604425475    1.17478800586360    3.31058196643013
C         2.33544184946295   -2.58264348698296    0.58346340581249
C         3.18207169571150   -1.41543014636129    0.58234433372313
C         2.94373959867916   -0.69404060100004    1.80708186552027
C         1.95046398470883   -1.41556779135961    2.56176558167067
C         1.57767488865866   -2.57871801508103    1.80912454278211
C         3.18207169571150    1.41543014636129    0.58234433372313
C         2.33544184946295    2.58264348698296    0.58346340581249
C         1.57767488865866    2.57871801508103    1.80912454278211
C         1.95046398470883    1.41556779135961    2.56176558167066
C         2.94373959867916    0.69404060100004    1.80708186552027
C        -0.36119281684147    3.44519252612879    0.58582996047390
C        -1.73469290191499    3.00153459982720    0.58916793337350
C        -1.97220713510261    2.29308475607878    1.81059639720294
C        -0.73400332666893    2.27691900303500    2.56853480078419
C         0.25309257506893    2.99789064535074    1.80898867763471
C        -3.39649784746455    0.71758744312072    0.57410478167568
C        -3.39649784746455   -0.71758744312072    0.57410478167568
C        -2.77168037603652   -1.14964415915414    1.80664876434809
C        -2.42168465399864    0.00000000000000    2.56054627302143
C        -2.77168037603652    1.14964415915414    1.80664876434809
C        -1.73469290191499   -3.00153459982719    0.58916793337351
C        -0.36119281684148   -3.44519252612879    0.58582996047390
C         0.25309257506893   -2.99789064535073    1.80898867763471
C        -0.73400332666892   -2.27691900303499    2.56853480078419
C        -1.97220713510261   -2.29308475607878    1.81059639720295
C        -0.24585893810850   -3.00970705822685   -1.82232538763502
C         0.74439012833927   -2.28841876480361   -2.57822875384061
C         1.97268106729833   -2.28861170675520   -1.82114897801170
C         1.74031203428013   -3.00832022201671   -0.59623578829480
C         0.36724813466371   -3.45114129717027   -0.59443426078026
C         2.79027372790168   -1.16551010025889   -1.82330670861298
C         2.41077011246349    0.00000000000000   -2.58030971859023
C         2.79027372790168    1.16551010025889   -1.82330670861298
C         3.40598095600767    0.72109250237888   -0.59875668403540
C         3.40598095600767   -0.72109250237888   -0.59875668403540
C         1.97268106729833    2.28861170675520   -1.82114897801170
C         0.74439012833927    2.28841876480360   -2.57822875384062
C        -0.24585893810850    3.00970705822685   -1.82232538763502
C         0.36724813466371    3.45114129717027   -0.59443426078026
C         1.74031203428013    3.00832022201671   -0.59623578829480
C        -1.56847069976934    2.58049680433801   -1.82122736601016
C        -1.94730857051169    1.41533687195356   -2.58360676406823
C        -2.94243160962768    0.69434475341889   -1.82977489504240
C        -3.17479380115303    1.41444285760430   -0.60326970185865
C        -2.32688654321742    2.58113588269429   -0.60086409487791
C        -2.94243160962768   -0.69434475341889   -1.82977489504240
C        -1.94730857051169   -1.41533687195356   -2.58360676406823
C        -1.56847069976934   -2.58049680433801   -1.82122736601016
C        -2.32688654321742   -2.58113588269429   -0.60086409487790
C        -3.17479380115303   -1.41444285760429   -0.60326970185865
C        -0.99138524268633   -0.72097607833148   -3.31029871234527
C        -0.99138524268633    0.72097607833148   -3.31029871234528
C         0.38054100031802    1.16548515734434   -3.30884687187952
C         1.22668597234242    0.00000000000000   -3.30783368151334
C         0.38054100031802   -1.16548515734434   -3.30884687187952
Cl       -1.93737486741132   -0.00000000000005    5.25509316806359
Cl        0.35707688572185    4.54611682939536    2.74080569088177
62
 energy: -137.543165938772 gnorm: 0.063491845792 xtb: 6.4.1 (a3dbbd7)
C        -1.30424138805447   -0.00635707480329    3.53174795067429
C        -0.37340004105825   -1.17714622941063    3.30667421597916
C         0.97871704268969   -0.72435956904144    3.27768412910225
C         0.97370588054948    0.71712826324674    3.26904693918481
C        -0.37662602541383    1.16465675985023    3.30196374216192
C         2.33589337778988   -2.58415934569456    0.58321592133047
C         3.18530198153435   -1.41937926594346    0.58066631338129
C         2.94950585410978   -0.69869395854915    1.80577647079605
C         1.95263651552040   -1.41941235750516    2.56198479151585
C         1.57825544195825   -2.57987866035431    1.80981900343964
C         3.19414023182217    1.40533257932147    0.58055408633181
C         2.33808947154734    2.56716481166266    0.58216765970997
C         1.60261582022608    2.57430657113284    1.80955923426240
C         1.95276094128222    1.41048054538799    2.54736468295464
C         2.95689543231648    0.68649642035038    1.80418732705243
C        -0.36801166008882    3.43824898664243    0.56997401535458
C        -1.73061542781749    2.99109588248704    0.58042972739033
C        -1.96510006506208    2.27974162868232    1.80699879272656
C        -0.74633852132661    2.26499996450539    2.56545444919236
C         0.25740311924742    3.09036691791733    1.86159759191603
C        -3.40032276566376    0.71403879816041    0.57269524285577
C        -3.40000816122506   -0.71974586395578    0.57202636737059
C        -2.77511069021938   -1.15221584816414    1.80484205970506
C        -2.42892243309232   -0.00424720528721    2.56070123814642
C        -2.77684667730372    1.14067472869689    1.80954736629077
C        -1.73570357703545   -3.00089019035188    0.59032813926846
C        -0.36042765814348   -3.44433936811966    0.58730478808773
C         0.25313272247059   -3.00113934964475    1.80939718270193
C        -0.73554410938093   -2.27919447675911    2.56654582503132
C        -1.97480357077336   -2.29498733641387    1.80893223862296
C        -0.24499463512322   -3.00920160641624   -1.82071644271323
C         0.74452309284824   -2.28863833359596   -2.57741126029705
C         1.97383003846800   -2.28953293704215   -1.82160980886274
C         1.74071914943731   -3.00892179979312   -0.59602325354936
C         0.36753140275903   -3.45102939871752   -0.59414058731926
C         2.79236015411428   -1.16873753445212   -1.82491134345663
C         2.41247849308462   -0.00087876053405   -2.57990494386642
C         2.79306113029631    1.16074179128462   -1.82362908004938
C         3.41368483460724    0.71460910024348   -0.60216110537019
C         3.41058099844066   -0.72645428906107   -0.60102703784414
C         1.97220768834132    2.28701989572452   -1.81941814473913
C         0.74191546780699    2.28722870564429   -2.57749595003007
C        -0.25027497644706    3.01155768257783   -1.83022023149585
C         0.36180227565279    3.44035741778145   -0.60155337697249
C         1.74166159968589    3.00067288084249   -0.59941163296491
C        -1.57418347490765    2.58111845738600   -1.82616149131040
C        -1.95034612829852    1.41364766956326   -2.58508666514691
C        -2.94555912160921    0.69232290960969   -1.83142384706722
C        -3.17747314774341    1.41159821039300   -0.60427804507446
C        -2.33133028242193    2.58029106927249   -0.60800756519439
C        -2.94414444546502   -0.69599196907840   -1.83157396659640
C        -1.94814522515111   -1.41624755758244   -2.58435785933056
C        -1.56937623556302   -2.58056091327431   -1.82055730429948
C        -2.32784269550056   -2.58059941164951   -0.60209751716077
C        -3.17689878516724   -1.41668217869254   -0.60562368161492
C        -0.99211121999767   -0.72148703614903   -3.31008966799751
C        -0.99292280586416    0.71988925103586   -3.31062978929594
C         0.37919824040595    1.16432495200244   -3.30798561474123
C         1.22595016651371   -0.00047487226848   -3.30685188303360
C         0.38075071415534   -1.16541957623667   -3.30791585533327
Cl       -1.93305313433839   -0.00988367791256    5.25754080416507
Cl        0.35758032227220    4.67289193044437    2.80950742289519
62
 energy: -137.549689031484 gnorm: 0.014792600418 xtb: 6.4.1 (a3dbbd7)
C        -1.30183328871136   -0.00984784560609    3.52374794810613
C        -0.37382710416067   -1.18301001034165    3.30326549096139
C         0.97685484613481   -0.72517330308716    3.26939607922116
C         0.96982195735397    0.71702781075417    3.26841078017343
C        -0.37628110955656    1.16535128589662    3.29786953848675
C         2.33623412026959   -2.58772295320990    0.58151968692496
C         3.18742537911711   -1.42387163266869    0.57907191688132
C         2.94853418424613   -0.70157807197643    1.80295256228685
C         1.95214148743657   -1.42407893227510    2.55963804456098
C         1.57805551580510   -2.58306784136703    1.80869100796950
C         3.19275939947933    1.39953462274473    0.57859738288788
C         2.33135693571652    2.56051128604708    0.58508837658838
C         1.60575797671118    2.56802350303934    1.80649334643280
C         1.94639153814132    1.41359029861095    2.53807836049314
C         2.95525622563213    0.68238662319225    1.79923949702644
C        -0.36928273107832    3.44188979127981    0.56707150387938
C        -1.71850780256650    2.98298610723580    0.57586886956924
C        -1.94888737797875    2.26846385670819    1.80593215837005
C        -0.75074893649411    2.26795887001019    2.56750291870525
C         0.25984571337871    3.17657392955413    1.91082262858909
C        -3.40138510349282    0.70946247050202    0.57103716207186
C        -3.40254747674066   -0.72376381812394    0.56923045923881
C        -2.77896589945259   -1.15803035911424    1.80224498532530
C        -2.42995556712384   -0.00921238359247    2.55571125752691
C        -2.77543334832881    1.13340754203262    1.81005772332862
C        -1.73634665796803   -3.00337672891968    0.58903486893667
C        -0.35979928543232   -3.44649013293234    0.58629686326930
C         0.25284614210677   -3.00749844489305    1.80804291287947
C        -0.73626612549254   -2.28548865481423    2.56534836700123
C        -1.97632108748783   -2.29944938531175    1.80543938336903
C        -0.24460046497049   -3.01017520212958   -1.82100622560720
C         0.74418079914599   -2.29054824770662   -2.57819376460547
C         1.97431633929143   -2.29177607949643   -1.82310848539058
C         1.74093077113616   -3.01180595322281   -0.59727863303948
C         0.36750769255367   -3.45325879619928   -0.59602710846386
C         2.79364085919331   -1.17289306787684   -1.82680627692704
C         2.41293384570741   -0.00256645830905   -2.57981939992157
C         2.79426063577788    1.15589652118664   -1.82466133646436
C         3.41530624439988    0.70987163172026   -0.60468396549098
C         3.41393446724955   -0.73134604360490   -0.60312336443838
C         1.97059127818183    2.28483016091039   -1.81453640103661
C         0.74006594885442    2.28380137264936   -2.57497849660589
C        -0.25076746976173    3.00661601893770   -1.82756626045951
C         0.35887588421920    3.43780373004952   -0.59842773383533
C         1.74404557757117    3.00002072931633   -0.60087530524776
C        -1.57568151549995    2.57714431552032   -1.82620880195048
C        -1.95275243156082    1.41107794730060   -2.58673321469276
C        -2.94730105531839    0.68859103031007   -1.83255624422804
C        -3.17724939493600    1.40710765652647   -0.60446393775739
C        -2.32911446773436    2.57654009656105   -0.60963467749685
C        -2.94645616860919   -0.69987829130131   -1.83430424260340
C        -1.94957661512351   -1.41926384148408   -2.58676781694885
C        -1.57063045665034   -2.58315900423525   -1.82220385984812
C        -2.32853689926258   -2.58281072000872   -0.60523972699552
C        -3.17913922199777   -1.42141017237206   -0.60897030237292
C        -0.99327020135621   -0.72355172668798   -3.31084906751471
C        -0.99432243938922    0.71757026069807   -3.31123920479747
C         0.37826922596308    1.16194094650330   -3.30750579931007
C         1.22478245170663   -0.00243177489819   -3.30692559420010
C         0.38054503616507   -1.16679787812927   -3.30796339191183
Cl       -1.92518280626786    0.00707512571622    5.24729796056566
Cl        0.36171254855506    4.76839504377724    2.86761936540575
62
 energy: -137.550050230337 gnorm: 0.009195858938 xtb: 6.4.1 (a3dbbd7)
C        -1.30033396453226   -0.00792462796661    3.52056358820748
C        -0.37383415504572   -1.18177210555517    3.29932659185839
C         0.97625170494493   -0.72386310853863    3.26717382811676
C         0.96914572055893    0.71874957837684    3.27014034626233
C        -0.37437076686772    1.17037952284960    3.30046786216809
C         2.33578769819538   -2.58908340791066    0.58093725605803
C         3.18696719364654   -1.42488667236133    0.57834201060896
C         2.94597016356076   -0.70115766197880    1.80106275218763
C         1.95074838690141   -1.42458349836204    2.55866142649999
C         1.57699039540665   -2.58366420259143    1.80800134129376
C         3.18856535357224    1.39946934492739    0.57751956734972
C         2.32849409040634    2.56327022558571    0.58634587578348
C         1.60162483309090    2.57020162267205    1.80600605727182
C         1.94299038394915    1.41832219414725    2.53718163374321
C         2.95042886994679    0.68278759385526    1.79688064393141
C        -0.36766399023128    3.45192790310217    0.57145445834683
C        -1.71328875579490    2.98313933777373    0.57647439327853
C        -1.94235383700937    2.26757621814119    1.80721134049242
C        -0.74983014455596    2.27806319398048    2.57380388838695
C         0.25975044487954    3.19822562315978    1.92222423345448
C        -3.39967696607717    0.70730178804357    0.57031070292545
C        -3.40343747663913   -0.72607274538003    0.56811117612872
C        -2.78049310247816   -1.16073753098388    1.80099732383078
C        -2.42807644285231   -0.01021815531243    2.55230428122200
C        -2.77178959134562    1.13227329747920    1.80854729094574
C        -1.73718244065180   -3.00574532212217    0.58774709406297
C        -0.36036914016476   -3.44845449891089    0.58543162666605
C         0.25194630949781   -3.00944725987386    1.80726463711169
C        -0.73657510472416   -2.28587521376439    2.56357286085510
C        -1.97711234863591   -2.30122111704867    1.80359097944821
C        -0.24498469770856   -3.01174453000812   -1.82159051500510
C         0.74384634906091   -2.29246820700522   -2.57880680542138
C         1.97424141270500   -2.29347973456973   -1.82381484713921
C         1.74062314407242   -3.01358762823201   -0.59774950402547
C         0.36702670343691   -3.45514393198147   -0.59687136278610
C         2.79379407647049   -1.17477492047168   -1.82776388161942
C         2.41259736371727   -0.00389351742871   -2.58029457830403
C         2.79410304820639    1.15432850432394   -1.82558357364885
C         3.41387378881424    0.70891853486609   -0.60525576119858
C         3.41405210947758   -0.73256718328212   -0.60392750569591
C         1.97065417327392    2.28397198549793   -1.81329565707290
C         0.73978607292376    2.28122298070566   -2.57278261939929
C        -0.24958585954162    3.00315341411410   -1.82335425150734
C         0.35978752210527    3.44202863658110   -0.59533654793249
C         1.74605505562556    3.00285301838831   -0.60204687506663
C        -1.57432925525654    2.57430123084291   -1.82456471877100
C        -1.95269039165940    1.40931310077157   -2.58691399056592
C        -2.94708880151729    0.68644585675505   -1.83277320638527
C        -3.17498819358077    1.40449140334560   -0.60413344885330
C        -2.32547468124349    2.57382818705715   -0.60754382372340
C        -2.94748812715401   -0.70227775814377   -1.83558409050425
C        -1.95041039356375   -1.42167153651493   -2.58819249655512
C        -1.57144086772144   -2.58564052702428   -1.82356278773539
C        -2.32945705034357   -2.58525376651560   -0.60676657290150
C        -3.18053031363180   -1.42420263937537   -0.61034851799447
C        -0.99373610863027   -0.72556857102896   -3.31141375152702
C        -0.99449389054169    0.71559121328414   -3.31126154924911
C         0.37817608460316    1.15997402189117   -3.30675849162690
C         1.22435888902420   -0.00427913680034   -3.30745797520448
C         0.38027080090160   -1.16860436305951   -3.30835946666945
Cl       -1.92396288083206    0.00075836694194    5.24247992872728
Cl        0.36635211425326    4.78311401003733    2.87793294373525
62
 energy: -137.550177707926 gnorm: 0.004725506892 xtb: 6.4.1 (a3dbbd7)
C        -1.30005417279834   -0.00723553502461    3.51941927472236
C        -0.37353887834422   -1.18094141372764    3.29726554733186
C         0.97602909563149   -0.72345318864967    3.26659094426548
C         0.96839047723618    0.71920285995261    3.27196080950173
C        -0.37317134242316    1.17254188820290    3.30239993576491
C         2.33559379834125   -2.58935436442657    0.58091894498446
C         3.18649261704300   -1.42475102351906    0.57806114040322
C         2.94448799878309   -0.70052011551065    1.80011325243647
C         1.94993641826289   -1.42478743475344    2.55842663576460
C         1.57642113119122   -2.58372256393021    1.80792789479209
C         3.18535933720349    1.39964238239156    0.57664929424896
C         2.32648536811277    2.56546022082953    0.58657910597337
C         1.59715409786658    2.57062857994301    1.80485675427373
C         1.94015832683295    1.42132654615974    2.53680993485386
C         2.94659898620759    0.68318009370437    1.79512315443638
C        -0.36599253448391    3.45783073499668    0.57437270755253
C        -1.70981446815871    2.98276727580448    0.57657563595950
C        -1.93784331364306    2.26670570472956    1.80784413617787
C        -0.74890765031337    2.28437978040502    2.57786178993979
C         0.25960856558344    3.20843792401527    1.92740537008695
C        -3.39847083230197    0.70603152261894    0.56982350309573
C        -3.40430698188221   -0.72744070420904    0.56806112125475
C        -2.78176248122588   -1.16243478595941    1.80078427309820
C        -2.42655105132605   -0.01028443991527    2.55012887144359
C        -2.76895632554500    1.13161449313941    1.80708636008797
C        -1.73771428057817   -3.00707370258815    0.58732980827489
C        -0.36079634824464   -3.44934471072684    0.58528501056479
C         0.25142084507604   -3.01029452893431    1.80735122070899
C        -0.73665565608119   -2.28620954978756    2.56336276612457
C        -1.97736320555156   -2.30172441113112    1.80292845843225
C        -0.24525960420017   -3.01195436881301   -1.82150689930642
C         0.74364957557675   -2.29300682106864   -2.57891698394452
C         1.97417568355185   -2.29377360813110   -1.82395774540248
C         1.74046954873861   -3.01397530176334   -0.59769910137942
C         0.36673440325669   -3.45560854532796   -0.59692438858157
C         2.79389804749793   -1.17517074380640   -1.82830807654701
C         2.41245595492744   -0.00416874346777   -2.58089264086227
C         2.79423039009072    1.15402284583521   -1.82662247146422
C         3.41307380830317    0.70896317783338   -0.60571617150618
C         3.41390384244244   -0.73250369327689   -0.60426762809044
C         1.97126604061406    2.28402878883384   -1.81343564802147
C         0.73973118840438    2.27983840877417   -2.57144272529505
C        -0.24887377744672    3.00097430817789   -1.82073096462734
C         0.36069273985508    3.44423879063444   -0.59375372052766
C         1.74799676598979    3.00512730588213   -0.60368344509634
C        -1.57340517148115    2.57274992251201   -1.82382440601459
C        -1.95261507224593    1.40841626118816   -2.58720937037523
C        -2.94695089940750    0.68541669684460   -1.83301823783584
C        -3.17338578144111    1.40273987894154   -0.60394853964445
C        -2.32275338432068    2.57166156881798   -0.60597635354464
C        -2.94824651293232   -0.70344438558272   -1.83609408395647
C        -1.95094828366046   -1.42276561617049   -2.58880467799940
C        -1.57192802181488   -2.58668457331911   -1.82403273778919
C        -2.33008146606390   -2.58642526583543   -0.60711424762138
C        -3.18154501323049   -1.42559016917146   -0.61069771820442
C        -0.99402413823353   -0.72651211778859   -3.31170906649137
C        -0.99448898114496    0.71463120051773   -3.31124697649816
C         0.37822325229289    1.15917625477263   -3.30654575010567
C         1.22421126437494   -0.00492449506216   -3.30805362181616
C         0.38007534000693   -1.16928461623210   -3.30861345157174
Cl       -1.92545769668535   -0.00341503016982    5.23956447760155
Cl        0.37114893461180    4.78316198071714    2.87984048283391
62
 energy: -137.550214796878 gnorm: 0.002373166675 xtb: 6.4.1 (a3dbbd7)
C        -1.30038753225815   -0.00736444165046    3.51972980781053
C        -0.37342189631888   -1.18091438085379    3.29736372504361
C         0.97591492377068   -0.72357538652025    3.26702368299142
C         0.96776172231721    0.71903478042225    3.27269908743331
C        -0.37302212456777    1.17243404546539    3.30294752201516
C         2.33557361821162   -2.58896515059051    0.58112496986660
C         3.18629687083243   -1.42421953276138    0.57814208501478
C         2.94434561537913   -0.70014068938638    1.80013322538538
C         1.94969879943581   -1.42472706400104    2.55866224428202
C         1.57633803772885   -2.58345534930493    1.80816197784602
C         3.18457857396094    1.39972850790685    0.57636922694920
C         2.32574905106383    2.56573649614792    0.58620117046697
C         1.59492338486608    2.56952683625020    1.80375488652034
C         1.93899418661248    1.42189499830819    2.53640823393116
C         2.94554071686328    0.68330635963444    1.79454850556365
C        -0.36536518366249    3.45821498845069    0.57480552300384
C        -1.70896000494957    2.98217391634185    0.57635834193374
C        -1.93653765989386    2.26609992941491    1.80795265050278
C        -0.74875675731169    2.28539086875578    2.57847942927012
C         0.25975639658812    3.21016814653863    1.92825405973600
C        -3.39823177888345    0.70572131858365    0.56977747168662
C        -3.40471019323151   -0.72778172235236    0.56842129076830
C        -2.78233067636893   -1.16293528005507    1.80108714751701
C        -2.42610005489493   -0.01002506007340    2.54971755502088
C        -2.76824820259789    1.13131740640610    1.80671777615677
C        -1.73774614528485   -3.00714162792857    0.58742735086623
C        -0.36085296984629   -3.44923020478518    0.58547184676979
C         0.25131596726441   -3.01022863869738    1.80772380254750
C        -0.73669586230636   -2.28646166988420    2.56395994573901
C        -1.97732003342515   -2.30146334028108    1.80306279873363
C        -0.24524444174936   -3.01151710834432   -1.82122846018091
C         0.74369134772015   -2.29267236183021   -2.57875349653388
C         1.97420258824867   -2.29334899824486   -1.82379232952399
C         1.74049815850692   -3.01353816232959   -0.59748261405047
C         0.36674907597026   -3.45519980332231   -0.59666582876744
C         2.79395002209719   -1.17478546117193   -1.82835208992068
C         2.41252634034822   -0.00386154075659   -2.58114981670021
C         2.79444808166188    1.15440444664326   -1.82714560130782
C         3.41313880847211    0.70935498278399   -0.60592797929195
C         3.41379686168542   -0.73199232266056   -0.60422690698157
C         1.97172073115769    2.28450918418501   -1.81408577458350
C         0.73977139491507    2.27987106085378   -2.57132182528085
C        -0.24883860014259    3.00057271138593   -1.82023627672973
C         0.36084246590039    3.44412209426089   -0.59366609414201
C         1.74871222388877    3.00573390194159   -0.60455298460745
C        -1.57332307141278    2.57262055517331   -1.82383623842094
C        -1.95267324596679    1.40841029249272   -2.58735113340369
C        -2.94697558076451    0.68540778763738   -1.83311080722090
C        -3.17305864773819    1.40227556786670   -0.60386023303954
C        -2.32211804110482    2.57100823932190   -0.60550308050358
C        -2.94841381567681   -0.70348041784913   -1.83603018038131
C        -1.95097868027503   -1.42270064740902   -2.58872995874659
C        -1.57191959006429   -2.58657528015823   -1.82395095423666
C        -2.33013643724157   -2.58636273248643   -0.60688476436365
C        -3.18176568804067   -1.42566679500125   -0.61054690335202
C        -0.99401130379067   -0.72644180715325   -3.31166692088449
C        -0.99443277188230    0.71467834367678   -3.31115296022552
C         0.37829951668514    1.15937843266814   -3.30671112301805
C         1.22427487806786   -0.00467711658893   -3.30827095115753
C         0.38007547770054   -1.16910756020234   -3.30862661446595
Cl       -1.92714724804370   -0.00384253017541    5.23879125129457
Cl        0.37444891847147    4.77742081468739    2.87750307622617
62
 energy: -137.550225787930 gnorm: 0.001239498073 xtb: 6.4.1 (a3dbbd7)
C        -1.30072706973300   -0.00754291631863    3.52031477577510
C        -0.37350292470384   -1.18111483493979    3.29802893422269
C         0.97581150306110   -0.72370864893587    3.26749497685462
C         0.96739604273169    0.71890651073794    3.27274654786320
C        -0.37330480716181    1.17193376082512    3.30294124955411
C         2.33559745296334   -2.58857440816947    0.58125108039033
C         3.18630466550215   -1.42386927803197    0.57826807737880
C         2.94462924062802   -0.69999763213906    1.80039679817477
C         1.94967464783260   -1.42456513850750    2.55888393651082
C         1.57641204082088   -2.58318140161248    1.80832895476462
C         3.18496962910738    1.39979104096791    0.57642683753463
C         2.32571423335326    2.56524734172206    0.58582230838979
C         1.59436114448160    2.56836378767578    1.80312730923805
C         1.93888739770052    1.42146824635324    2.53611966108083
C         2.94590449942542    0.68332624402568    1.79462455637172
C        -0.36548769764398    3.45697171676282    0.57432209725066
C        -1.70936441862928    2.98193328052845    0.57622120459862
C        -1.93691845309385    2.26600906329571    1.80797785521111
C        -0.74909742809499    2.28448918285979    2.57787123702545
C         0.25998689165974    3.20950527361430    1.92794231231182
C        -3.39838813806813    0.70579512566683    0.56987089629420
C        -3.40473991065579   -0.72771352542839    0.56862133795667
C        -2.78239630473651   -1.16289081242160    1.80128679706126
C        -2.42624041749554   -0.00983691445104    2.55002427657179
C        -2.76859389167297    1.13123123400732    1.80694326250281
C        -1.73759945414356   -3.00684397003025    0.58755030859461
C        -0.36074843274189   -3.44889986923652    0.58561076120996
C         0.25136849597731   -3.00992989180622    1.80793048488383
C        -0.73673746571305   -2.28651462322981    2.56436267504622
C        -1.97726075029171   -2.30116338250854    1.80328322169891
C        -0.24511762876529   -3.01123759792264   -1.82109222210452
C         0.74381569812734   -2.29233624428091   -2.57862399833361
C         1.97427029711933   -2.29300737435763   -1.82365287433522
C         1.74058156228558   -3.01312916261380   -0.59736745593791
C         0.36687376938319   -3.45482315040875   -0.59649875100973
C         2.79396520688707   -1.17442265759523   -1.82822639494760
C         2.41262239943035   -0.00358133580418   -2.58114220911497
C         2.79454434746689    1.15477911182726   -1.82721469939584
C         3.41341021616194    0.70963987943069   -0.60596876219108
C         3.41379557113733   -0.73164570723315   -0.60412296208632
C         1.97182878871275    2.28486876342212   -1.81450746204961
C         0.73980450254416    2.28031248634097   -2.57164235153958
C        -0.24901689561214    3.00088336108874   -1.82055140304940
C         0.36059102526592    3.44356283345792   -0.59399420177618
C         1.74860333728951    3.00555617631622   -0.60465597031308
C        -1.57353707880966    2.57291049799956   -1.82399914868012
C        -1.95274805733906    1.40861467741136   -2.58733948163700
C        -2.94702484028400    0.68561543233161   -1.83309359098866
C        -3.17329025371072    1.40238408967221   -0.60384236759613
C        -2.32245825940690    2.57117208087454   -0.60558924790153
C        -2.94828802060517   -0.70326906872275   -1.83586784431593
C        -1.95081935073374   -1.42242967291533   -2.58852529718625
C        -1.57173872224954   -2.58629463454159   -1.82381746515545
C        -2.32998261351365   -2.58606342306736   -0.60668555466503
C        -3.18160779395928   -1.42541380355308   -0.61041795019299
C        -0.99389346034240   -0.72617378206773   -3.31154090477784
C        -0.99439785017132    0.71494132414221   -3.31106438089329
C         0.37833168009566    1.15971925628148   -3.30685882981313
C         1.22437055542799   -0.00434435412883   -3.30823051779710
C         0.38015272970318   -1.16883445739960   -3.30855314379233
Cl       -1.92790671445487   -0.00294318183606    5.23898489394371
Cl        0.37656604895127    4.77248190597129    2.87506858418193
62
 energy: -137.550227937434 gnorm: 0.000441696790 xtb: 6.4.1 (a3dbbd7)
C        -1.30091081649483   -0.00757745866183    3.52071627785071
C        -0.37368338305435   -1.18125108394564    3.29851044490217
C         0.97572015095004   -0.72370263177892    3.26765463938765
C         0.96729201909569    0.71895420709552    3.27246620644711
C        -0.37366656128172    1.17169006636116    3.30278470279455