72
 energy: -177.346206266928 gnorm: 0.257632556674 xtb: 6.4.1 (a3dbbd7)
C        -1.23626340000000    0.00000000000000    3.32997640000000
C        -0.38202640000000   -1.17575640000000    3.32997640000000
C         1.00015810000000   -0.72665740000000    3.32997640000000
C         1.00015810000000    0.72665740000000    3.32997640000000
C        -0.38202640000000    1.17575640000000    3.32997640000000
C         2.34433560000000   -2.60145750000000    0.59464210000000
C         3.19857260000000   -1.42570110000000    0.59464210000000
C         2.96246730000000   -0.69904370000000    1.83090550000000
C         1.96230920000000   -1.42570110000000    2.59495830000000
C         1.58028280000000   -2.60145750000000    1.83090550000000
C         3.19857260000000    1.42570110000000    0.59464210000000
C         2.34433560000000    2.60145750000000    0.59464210000000
C         1.58028280000000    2.60145750000000    1.83090550000000
C         1.96230920000000    1.42570110000000    2.59495830000000
C         2.96246730000000    0.69904370000000    1.83090550000000
C        -0.36750900000000    3.48258920000000    0.59464210000000
C        -1.74969350000000    3.03349030000000    0.59464210000000
C        -1.98579880000000    2.30683290000000    1.83090550000000
C        -0.74953540000000    2.30683290000000    2.59495830000000
C         0.25062270000000    3.03349030000000    1.83090550000000
C        -3.42570570000000    0.72665740000000    0.59464210000000
C        -3.42570570000000   -0.72665740000000    0.59464210000000
C        -2.80757400000000   -1.17575640000000    1.83090550000000
C        -2.42554760000000    0.00000000000000    2.59495830000000
C        -2.80757400000000    1.17575640000000    1.83090550000000
C        -1.74969350000000   -3.03349030000000    0.59464210000000
C        -0.36750900000000   -3.48258920000000    0.59464210000000
C         0.25062270000000   -3.03349030000000    1.83090550000000
C        -0.74953540000000   -2.30683290000000    2.59495830000000
C        -1.98579880000000   -2.30683290000000    1.83090550000000
C        -0.25062270000000   -3.03349030000000   -1.83090550000000
C         0.74953540000000   -2.30683290000000   -2.59495830000000
C         1.98579880000000   -2.30683290000000   -1.83090550000000
C         1.74969350000000   -3.03349030000000   -0.59464210000000
C         0.36750900000000   -3.48258920000000   -0.59464210000000
C         2.80757400000000   -1.17575640000000   -1.83090550000000
C         2.42554760000000    0.00000000000000   -2.59495830000000
C         2.80757400000000    1.17575640000000   -1.83090550000000
C         3.42570570000000    0.72665740000000   -0.59464210000000
C         3.42570570000000   -0.72665740000000   -0.59464210000000
C         1.98579880000000    2.30683290000000   -1.83090550000000
C         0.74953540000000    2.30683290000000   -2.59495830000000
C        -0.25062270000000    3.03349030000000   -1.83090550000000
C         0.36750900000000    3.48258920000000   -0.59464210000000
C         1.74969350000000    3.03349030000000   -0.59464210000000
C        -1.58028280000000    2.60145750000000   -1.83090550000000
C        -1.96230920000000    1.42570110000000   -2.59495830000000
C        -2.96246730000000    0.69904370000000   -1.83090550000000
C        -3.19857260000000    1.42570110000000   -0.59464210000000
C        -2.34433560000000    2.60145750000000   -0.59464210000000
C        -2.96246730000000   -0.69904370000000   -1.83090550000000
C        -1.96230920000000   -1.42570110000000   -2.59495830000000
C        -1.58028280000000   -2.60145750000000   -1.83090550000000
C        -2.34433560000000   -2.60145750000000   -0.59464210000000
C        -3.19857260000000   -1.42570110000000   -0.59464210000000
C        -1.00015810000000   -0.72665740000000   -3.32997640000000
C        -1.00015810000000    0.72665740000000   -3.32997640000000
C         0.38202640000000    1.17575640000000   -3.32997640000000
C         1.23626340000000    0.00000000000000   -3.32997640000000
C         0.38202640000000   -1.17575640000000   -3.32997640000000
C        -1.76086815247998    0.00000000000000    4.78849957557021
F        -0.76911826531252    0.00000000000000    5.67468926254662
F        -2.50968386795825   -1.06794314680471    5.04863888333743
F        -2.50968386795825    1.06794314680471    5.04863888333743
C         2.28376457660886   -3.72927671755932    2.62817408867206
F         3.59030321655004   -3.51265997057976    2.75037870097715
F         2.14318168460923   -4.91533956626619    2.04303190988612
F         1.79618325340524   -3.84739782561575    3.85992562899767
C        -4.03961820246674    1.67468514775899    2.62817407948106
F        -4.96930660042401    0.73147479244129    2.75037763231445
F        -4.62303373288714    2.71686348978891    2.04303253910981
F        -3.71458666614023    2.05683907990836    3.85992603200072
72
 energy: -177.413507166262 gnorm: 0.163667965675 xtb: 6.4.1 (a3dbbd7)
C        -1.23789005688957   -0.00531453126979    3.33815398594981
C        -0.35720986772953   -1.19062100061744    3.33106541759184
C         1.00120747970301   -0.71350381013178    3.31496146204774
C         0.99728334094297    0.73536176991563    3.31696851060862
C        -0.35932613851466    1.19103039764403    3.33866593529989
C         2.34923344159758   -2.60558412931178    0.56170651971915
C         3.18105948490552   -1.42345322703892    0.58156043098001
C         2.95295203490064   -0.69149383460960    1.81678468209278
C         1.96289482465733   -1.38878348736723    2.57455029186208
C         1.61468460962662   -2.62673223872654    1.84420518946947
C         3.18769920305042    1.42323395858472    0.58766683934038
C         2.33901712656092    2.59536611878429    0.58862323573661
C         1.58377910952634    2.59784129394444    1.82124673014670
C         1.96482125846125    1.43073356076436    2.58204964718163
C         2.94990749542475    0.70684219733158    1.81902682827162
C        -0.35405843537468    3.47660618402218    0.59433329250828
C        -1.72794043360820    3.01899570037470    0.59761042929505
C        -1.95553982632323    2.32534430782829    1.83490370962016
C        -0.73058181220260    2.30574096230410    2.58424676105796
C         0.26256988163860    3.03404886935033    1.82383158447615
C        -3.40990507799431    0.71175535833349    0.54850449605269
C        -3.41713878691902   -0.72367793196860    0.57049422470433
C        -2.79391632742913   -1.16543758706000    1.80187155443847
C        -2.43261796982832   -0.01884608937469    2.54324837947416
C        -2.86505212189500    1.19818000795306    1.83306361386565
C        -1.75354949399213   -3.01985858608537    0.59621858706777
C        -0.37173124989347   -3.45577784703404    0.59958891935407
C         0.22420666131209   -3.03109768367119    1.83631807377582
C        -0.74798228157350   -2.30350586497399    2.58292769262987
C        -1.98519559942884   -2.30525015124634    1.81989821273417
C        -0.24911413361658   -3.02398503264866   -1.82052976742835
C         0.74615491794000   -2.29852695150415   -2.58343830027388
C         1.98121377242861   -2.30036715833013   -1.83287427957180
C         1.74425639376318   -3.02398550932488   -0.60790874978033
C         0.36093624835726   -3.46606897287773   -0.59390057537689
C         2.79966137042611   -1.16928963671936   -1.82940570521904
C         2.41643746518172    0.00096989310150   -2.58682510877282
C         2.79651500192463    1.17226358020820   -1.82620483302243
C         3.41170066870064    0.72450527202672   -0.59603086853437
C         3.41535051825971   -0.72363574635291   -0.60152081049429
C         1.97791560370305    2.29841788148705   -1.82520282983336
C         0.74550953213525    2.29940852696780   -2.58384685240061
C        -0.24639097847443    3.02489259226456   -1.82414703608973
C         0.37055484137739    3.47159616289740   -0.59322116796851
C         1.74512207058122    3.02356312986771   -0.59467497209048
C        -1.57337649334001    2.59273412266962   -1.82308687095970
C        -1.95336383999823    1.42114950990128   -2.58696459477326
C        -2.95448642384449    0.69565725662449   -1.83743950742791
C        -3.18194415690304    1.41833543512661   -0.61254612127980
C        -2.32905994799620    2.59302101813232   -0.59447560161154
C        -2.95524714905106   -0.69869150716205   -1.83310368902424
C        -1.95579326950805   -1.42237694579659   -2.58637550671153
C        -1.57945523929809   -2.59262179814104   -1.82243248267767
C        -2.34185171390118   -2.59417762933694   -0.59886385110950
C        -3.19445162783830   -1.42547938128063   -0.60828979710865
C        -0.99654242922565   -0.72470395943042   -3.31595112301695
C        -0.99588521842022    0.72374843461156   -3.31762123500073
C         0.37992763168115    1.17095248541444   -3.31638754227423
C         1.22970105506053    0.00075539778454   -3.31692230975395
C         0.37943597109922   -1.17120332453051   -3.31532073428576
C        -1.74707450457753   -0.02324733528301    4.82581788274771
F        -0.74528807162350   -0.03236927444936    5.70385040451547
F        -2.50698767283718   -1.08879015614135    5.07152393205720
F        -2.47105460501486    1.04335149487489    5.12846850349839
C         2.31232904111995   -3.75767947635725    2.64854798774644
F         3.62041684845869   -3.53941135317735    2.76876808722960
F         2.15849640335483   -4.93912197749046    2.05348483392107
F         1.81087074349698   -3.86376881865308    3.87743090145149
C        -4.09975235046254    1.69904527349451    2.62753578877315
F        -5.01602836266231    0.74206955994148    2.75990130618875
F        -4.67341333580029    2.73144121979466    2.01636040569113
F        -3.79009167182198    2.12466944102517    3.84301476892969
72
 energy: -177.456402896921 gnorm: 0.071801273929 xtb: 6.4.1 (a3dbbd7)
C        -1.25761334099240   -0.01170858931212    3.42665082193231
C        -0.33059306494463   -1.19866084669261    3.27867822054189
C         0.99535117670680   -0.70379374219393    3.27879833491090
C         0.99019535733305    0.74097463098263    3.28519961248923
C        -0.33314160236009    1.19585716503996    3.29114237216109
C         2.33685552638020   -2.56185844679186    0.53226302383607
C         3.16421912766545   -1.40578895395585    0.56954266691386
C         2.93198624241810   -0.68293054142224    1.80349638635465
C         1.96147398830244   -1.35920925456589    2.55055532903441
C         1.66392831654279   -2.69795317686827    1.88899559260600
C         3.18084154877639    1.42337467240368    0.58297241990743
C         2.33686670152765    2.59133119554442    0.58139742087204
C         1.58885252065970    2.59688150346627    1.80873647298232
C         1.97307512099701    1.43858021950496    2.56601159380677
C         2.94466669580852    0.72012536001474    1.81422620353928
C        -0.34032790108207    3.47274450857168    0.58213543489698
C        -1.70700814163824    3.00379940452204    0.58658135206184
C        -1.91672125540008    2.33600872239469    1.80874145455065
C        -0.71759874231319    2.29617624469412    2.53773570149239
C         0.27446917418718    3.03643496551830    1.80166568508762
C        -3.38829475286306    0.69577090197674    0.51495779954776
C        -3.40004343775316   -0.71507788429202    0.55112945164163
C        -2.77070740287196   -1.14813862795657    1.78278834446329
C        -2.43362574272645   -0.04607015745742    2.51462601757822
C        -2.93928416950052    1.22287241894250    1.87030687366549
C        -1.75858654974921   -3.00581611585269    0.59221611564783
C        -0.37599333653009   -3.43313726396253    0.58906841472730
C         0.19272429115769   -3.03353249346786    1.81038190463649
C        -0.74263583939965   -2.29940089192446    2.53894633793561
C        -1.99188932436181   -2.31734891007816    1.80571297095193
C        -0.24471500118041   -3.01429003973851   -1.81228249845760
C         0.74537304361046   -2.28849084676745   -2.57347038050135
C         1.97803872565366   -2.29105767775895   -1.83599815103592
C         1.73644509039244   -2.99404973715128   -0.61585798035089
C         0.35706214754247   -3.45323133126802   -0.60322140132682
C         2.79386523291180   -1.15924062434244   -1.82718369800192
C         2.41011271853055    0.00256428564409   -2.57886272572734
C         2.78767667211092    1.16954928970934   -1.82136365466661
C         3.40144554425507    0.72691727499897   -0.59673524386418
C         3.40801429119121   -0.71411169550700   -0.61003856997469
C         1.97172367650868    2.28965026500963   -1.82097072301476
C         0.74397646360461    2.29174329314567   -2.57601950560148
C        -0.23905097730059    3.01635400887188   -1.82354165064921
C         0.37682995893734    3.46362380589868   -0.60024125697819
C         1.74305743496989    3.01480971407519   -0.59725121044030
C        -1.56493657982484    2.58211205760093   -1.81688816551580
C        -1.94304341661599    1.41551704604883   -2.57991932399743
C        -2.94411589295680    0.69351305873380   -1.84116463010622
C        -3.16482875751269    1.40902325044048   -0.62319718169173
C        -2.31682725858614    2.58781491115586   -0.60263949992770
C        -2.94779296129892   -0.69740663696223   -1.83534932563197
C        -1.94944085413959   -1.41813840822085   -2.57925436979269
C        -1.57987767271457   -2.58284054307845   -1.81557003587526
C        -2.34103069091381   -2.58634379123990   -0.60963636571628
C        -3.18840977274840   -1.42107598869751   -0.62184794492799
C        -0.99170442011093   -0.72264340837868   -3.30294312918165
C        -0.98894689072552    0.72030171862954   -3.30505883659831
C         0.38040913036182    1.16566211887768   -3.30730845593428
C         1.22468090611988    0.00164842027603   -3.30295209724233
C         0.37826845682719   -1.16575639595051   -3.30227234187255
C        -1.75219684142853   -0.03992300932741    4.90401014340677
F        -0.73043067819416   -0.05681626038658    5.75860538611200
F        -2.52025411772584   -1.10785710100046    5.11553642738764
F        -2.45076756302829    1.03096550265845    5.21983221887528
C         2.34821259153510   -3.80904187271391    2.68433892983890
F         3.65537690145273   -3.57431649448606    2.79731097037054
F         2.18005543588883   -4.97988912554934    2.07003100005776
F         1.82697824360407   -3.89614859275287    3.90773356725833
C        -4.16242825476915    1.72630644895180    2.64326043346329
F        -5.06104178337525    0.75034127658378    2.77820171489933
F        -4.72088778560519    2.74880304493263    1.99748332781316
F        -3.85878230368323    2.19013120212938    3.84052312057787
72
 energy: -177.468099791508 gnorm: 0.041402776706 xtb: 6.4.1 (a3dbbd7)
C        -1.27732687176310   -0.00713247789737    3.46724865735353
C        -0.34082727286039   -1.19113938710343    3.27795528513882
C         0.99124825075503   -0.71044687966322    3.26326677528378
C         0.98201757232194    0.73661299648078    3.26533226256549
C        -0.34563755057711    1.19214956101803    3.29298477252678
C         2.34965934233047   -2.57557475891347    0.53934382607421
C         3.16410153236051   -1.40911411436661    0.56051753643793
C         2.92972061687035   -0.68693188546346    1.79195618500813
C         1.96964989303433   -1.37782751093894    2.54664670340457
C         1.69236001861697   -2.73162883027903    1.90355520142590
C         3.18556217150505    1.42659379441712    0.57026093377350
C         2.34411421311343    2.59767762240021    0.56959024185208
C         1.59115145439780    2.59914086710829    1.79673384103751
C         1.97041676808447    1.43696525431107    2.55043698158482
C         2.94329489870413    0.71913440304937    1.79945004922454
C        -0.33928047838912    3.46971490201624    0.57209207124054
C        -1.70929354587434    3.00062687876084    0.58039344017339
C        -1.93616738183096    2.33447539659030    1.80670868692811
C        -0.72944538229242    2.29056382362837    2.53328091398136
C         0.27198982829427    3.02801341130421    1.79067998072624
C        -3.40174073367853    0.71221343081298    0.52589444298761
C        -3.39523423716984   -0.70104137278186    0.54613935823417
C        -2.76302747170275   -1.13124492931010    1.78148819987116
C        -2.44294089623525   -0.02818775996798    2.53567028348111
C        -2.97311588134761    1.23727543838502    1.89325858317379
C        -1.74980016655041   -2.99486844405413    0.58484630145722
C        -0.36463582846564   -3.43017849012757    0.58500292650957
C         0.21498413072304   -3.03802502014037    1.80619240865094
C        -0.73487512709941   -2.29360133910845    2.53526215144259
C        -1.98471001981768   -2.30710259051882    1.79835632363865
C        -0.24154692109430   -3.01023236487755   -1.81658254333042
C         0.74775964347714   -2.28500753247430   -2.57876287438081
C         1.97836719817152   -2.28753031581695   -1.83826724061891
C         1.74464632662757   -2.99973001772023   -0.61571889561083
C         0.36285867279284   -3.45372314186395   -0.61002613913428
C         2.79600665834621   -1.15734405146348   -1.83656861731487
C         2.41472379215111    0.00450943723319   -2.58996001258259
C         2.79223006404304    1.17238846591450   -1.83318911074366
C         3.40568010831005    0.72912214299762   -0.60873517456735
C         3.40750461123939   -0.71313290046658   -0.61942768564961
C         1.97710473316251    2.29330776612135   -1.83256617843708
C         0.74872995467965    2.29433957568685   -2.58623552745528
C        -0.23350135446820    3.02039451412570   -1.83445530958406
C         0.38192356118847    3.46674025505379   -0.61070563709759
C         1.75017608782777    3.02153444194205   -0.60976385323395
C        -1.55853092173737    2.58466241643711   -1.82444547680358
C        -1.93783852916557    1.41962317530893   -2.58797058377266
C        -2.93884307889360    0.69990625719541   -1.84568015431751
C        -3.16775740980750    1.41776833814031   -0.62428307760970
C        -2.31433749841482    2.59212969278857   -0.61102374565237
C        -2.94725484349465   -0.69150844371902   -1.84586730103530
C        -1.94815471607858   -1.41485808368354   -2.58870640598986
C        -1.57829906464341   -2.57899480715542   -1.82286201569761
C        -2.33813879349840   -2.57984395955553   -0.61784504155156
C        -3.18520727990970   -1.41083997689301   -0.62915914506643
C        -0.98878507612688   -0.71965215055359   -3.31004052919645
C        -0.98467240586504    0.72293753119192   -3.31269222271456
C         0.38459492086426    1.16754039033310   -3.31554419006497
C         1.22798326271121    0.00338568787224   -3.31096339383641
C         0.38111001025402   -1.16295202976991   -3.30809389031578
C        -1.75832237004174   -0.04688157392544    4.94464636787223
F        -0.72592904491324   -0.08853871782776    5.79185040026082
F        -2.52522107710371   -1.11629965626692    5.16124646602768
F        -2.45806019216764    1.02752536675874    5.27567574643758
C         2.37877198396039   -3.84487578384380    2.70378164607724
F         3.68976005099203   -3.62471355989297    2.82876958621149
F         2.21952871237531   -5.02596606361921    2.10335779973950
F         1.86337797577857   -3.93825657384277    3.93086466756955
C        -4.20850637409486    1.75152208719918    2.65057572221670
F        -5.11508427631137    0.78206687913963    2.79911712870096
F        -4.78133337184306    2.76126339890040    1.98651586212401
F        -3.91219219919039    2.22629032511989    3.85268247117097
72
 energy: -177.473795142930 gnorm: 0.015323267632 xtb: 6.4.1 (a3dbbd7)
C        -1.29558372112497   -0.00687242215775    3.51089992829328
C        -0.35291586329200   -1.18657130825540    3.27762540629269
C         0.98651700546520   -0.71874957938554    3.24729774542754
C         0.97161989408464    0.72846716327970    3.24303745218135
C        -0.36067029992354    1.18230528799071    3.28773885899625
C         2.35865637715503   -2.58730825100928    0.54839391291777
C         3.16331475442089   -1.41280079533985    0.55412905338120
C         2.92116848063314   -0.69254942764741    1.78315768664811
C         1.97437291192905   -1.40088982079198    2.54762003753013
C         1.71624426478485   -2.76297243738747    1.91827156215359
C         3.18655775674713    1.42749234912836    0.56128522425493
C         2.34757832838508    2.60194447461533    0.56003519106441
C         1.58833003386208    2.59848377448451    1.78506252876839
C         1.96168410405821    1.43124359547624    2.53438264739654
C         2.93716199734236    0.71404731686736    1.78698180697883
C        -0.34228146475606    3.46184774173497    0.56108176853846
C        -1.71659838061911    3.00031214303533    0.57180306680429
C        -1.95509198477451    2.32905204985406    1.79763881563061
C        -0.74347867848639    2.27916509032748    2.52385716885766
C         0.26509330922612    3.01367094318595    1.77704138111868
C        -3.41418587628836    0.73217985442727    0.53939851359697
C        -3.38258276874333   -0.68349494537593    0.54610101135810
C        -2.74857891595834   -1.10956359527631    1.78477482957155
C        -2.44909889980115   -0.00872766152893    2.55895066001476
C        -3.00165063749369    1.25188632984616    1.91445067817078
C        -1.73636123120626   -2.97884523560065    0.58009140441733
C        -0.35104508082695   -3.42569227353493    0.58307848997964
C         0.23827834109575   -3.03630131565629    1.79917508610190
C        -0.72359075594433   -2.29044858436289    2.53362242103723
C        -1.97059727869789   -2.29045957263432    1.79071566244310
C        -0.23730079794592   -3.00768645612195   -1.82070146771150
C         0.75148032227937   -2.28118992097301   -2.58278932403269
C         1.98011457399160   -2.28303746067886   -1.83885876042974
C         1.75213066120789   -3.00275770531644   -0.61480211723615
C         0.36976720295641   -3.45640437062211   -0.61734700132932
C         2.79884961275257   -1.15525242912210   -1.84410879096109
C         2.42010956465011    0.00702628017295   -2.60117281899905
C         2.79756240387733    1.17549702119380   -1.84418188314720
C         3.40808124147869    0.73012660934234   -0.61757432743229
C         3.40716171866226   -0.71284164126126   -0.62506851575335
C         1.98245126911630    2.29780414225151   -1.84441339109709
C         0.75313072688169    2.29827633437132   -2.59847635400106
C        -0.23049800170499    3.02507507242237   -1.84685777830609
C         0.38405587459210    3.46871485030210   -0.62108760930371
C         1.75432808063896    3.02696414812912   -0.62096839683505
C        -1.55503666973032    2.58951525898857   -1.83429782717746
C        -1.93464496331039    1.42377840267213   -2.59441570885177
C        -2.93395089433691    0.70571482258465   -1.84576787232311
C        -3.17119544750763    1.42628045397023   -0.62385751577014
C        -2.31633006902026    2.59943113860538   -0.62153807657929
C        -2.94458396890477   -0.68518401974528   -1.85120490770846
C        -1.94616472892279   -1.41115856242270   -2.59672668109668
C        -1.57478641788770   -2.57426794116158   -1.82825668350510
C        -2.33007376711284   -2.56891128590898   -0.62157586469074
C        -3.17692633012498   -1.39745931044957   -0.62922626152064
C        -0.98597240961306   -0.71660837324141   -3.31763750263258
C        -0.98179986922037    0.72609364263977   -3.32058756219300
C         0.38824449772121    1.17064563268432   -3.32627481126614
C         1.23189199367718    0.00576901358502   -3.32018874529920
C         0.38486842348761   -1.16031269425845   -3.31474847192676
C        -1.75966615375694   -0.05770735860859    4.98459667676136
F        -0.71723992589233   -0.12650529549260    5.82308448281951
F        -2.52677165060991   -1.12613172051192    5.21180611588758
F        -2.45792256433166    1.02057283306325    5.33302021037558
C         2.40309706828697   -3.87752012082392    2.72016888961436
F         3.71735602845833   -3.66782494521359    2.85378263149234
F         2.25447826523421   -5.06790755056512    2.13156488941714
F         1.89596859152189   -3.97886758736952    3.95173103602361
C        -4.24804573054823    1.77816788906447    2.65236636991360
F        -5.16323081191504    0.81691945745693    2.81630215618003
F        -4.83490158099380    2.76936223385777    1.96420732067744
F        -3.96281771378827    2.26913905407897    3.85786946625856
72
 energy: -177.474574809381 gnorm: 0.009262192335 xtb: 6.4.1 (a3dbbd7)
C        -1.30267712114733   -0.00985837260006    3.52925704636407
C        -0.35841796499163   -1.18713280465555    3.27940448930204
C         0.98439214066434   -0.72324810581029    3.24358074054590
C         0.96519141699323    0.72266607063475    3.23442479116510
C        -0.36908734751215    1.17490259050293    3.28202307688458
C         2.36114350378378   -2.59136325183617    0.55155728223118
C         3.16285472472967   -1.41451231368955    0.55331973040703
C         2.91607338148250   -0.69611524765619    1.78204168136152
C         1.97387725089911   -1.41075365003518    2.55049612877713
C         1.72408042382623   -2.77638325319641    1.92498053485113
C         3.18411348559253    1.42562993528007    0.55932877372975
C         2.34495734815113    2.60038318930867    0.55712568278804
C         1.58268566935619    2.59441859174134    1.77980980162580
C         1.95359875442574    1.42566424358225    2.52768892116064
C         2.93201802294538    0.70920941679770    1.78319593862808
C        -0.34655615886489    3.45747421878561    0.55635695322552
C        -1.72268322700854    3.00154301524767    0.56750973681537
C        -1.96320235397404    2.32594198135941    1.79118937735659
C        -0.75104071794519    2.27098922932021    2.51715063383347
C         0.25856777233844    3.00431173873927    1.76999950937824
C        -3.41742247383478    0.73987214164968    0.54429388186409
C        -3.37458333437070   -0.67578172180105    0.54844012871419
C        -2.74250337430522   -1.10032113605700    1.78903091121740
C        -2.45338807960220   -0.00187203807991    2.57009601070733
C        -3.01228937369863    1.25843054556956    1.92262059468170
C        -1.72841991203452   -2.96973449501281    0.58008470954814
C        -0.34403637319527   -3.42255736571292    0.58352947888646
C         0.24744862920543   -3.03447687992830    1.79616811037922
C        -0.71840357747366   -2.29096623689618    2.53407284422845
C        -1.96394997685547   -2.28248336754435    1.78889451947722
C        -0.23388750457052   -3.00706941905913   -1.82205547646603
C         0.75453081054102   -2.27961675255688   -2.58423717245205
C         1.98251191283444   -2.28143374790310   -1.83880271511176
C         1.75584673558218   -3.00325543996980   -0.61481604434396
C         0.37400446364208   -3.45808450703989   -0.62049722064790
C         2.80074633142743   -1.15441065889568   -1.84639659029626
C         2.42267099411778    0.00823530828609   -2.60527806153691
C         2.79941014907332    1.17676048653413   -1.84779568062067
C         3.40796045441018    0.72982988168355   -0.61977439320867
C         3.40667548377816   -0.71292928262235   -0.62540420410394
C         1.98366662077466    2.29952796879290   -1.84881480392474
C         0.75426707721079    2.30063040808383   -2.60407807723623
C        -0.23114483897891    3.02722321851807   -1.85254845672895
C         0.38235988806239    3.46882651481025   -0.62493919586279
C         1.75290781548301    3.02707064227758   -0.62442696114701
C        -1.55615064935447    2.59312944799080   -1.83992856730238
C        -1.93449790079613    1.42597129179905   -2.59739072476741
C        -2.93265462341699    0.70846589685083   -1.84499537953484
C        -3.17289700873021    1.42928144440654   -0.62395170887560
C        -2.32058966558986    2.60425862220013   -0.62741628936790
C        -2.94134458270024   -0.68162564354515   -1.85093241569198
C        -1.94378060936932   -1.40845988819124   -2.59847547324040
C        -1.57110531700638   -2.57078007739762   -1.82908274969043
C        -2.32275958097000   -2.56131017970038   -0.62084596961993
C        -3.16975074342411   -1.39022687118350   -0.62607239191708
C        -0.98405707565355   -0.71476872978853   -3.32052265667074
C        -0.98108014454949    0.72812304349671   -3.32431129363043
C         0.38963074700721    1.17258816464672   -3.33158958081603
C         1.23414241742690    0.00718807511383   -3.32440736411890
C         0.38753195357870   -1.15930775655545   -3.31776901337355
C        -1.75759951913405   -0.06321152125414    5.00173569866437
F        -0.71188470505433   -0.14146385273798    5.83570470166041
F        -2.52651303180991   -1.12909713100004    5.23682383655987
F        -2.45279330136826    1.01665747267488    5.35722443713845
C         2.41402312409263   -3.89201760931142    2.72408491093512
F         3.72908033965119   -3.68180705847708    2.85707696789961
F         2.27043864479573   -5.08457340184465    2.13736785681129
F         1.91225810009460   -3.99852176636259    3.95786424078277
C        -4.26185784617039    1.79311404591651    2.65030363773883
F        -5.18232508412997    0.83812770605627    2.82275870231813
F        -4.84893709336460    2.77480406500983    1.94837454729775
F        -3.98186101947595    2.29546935211746    3.85405229059417
72
 energy: -177.474728702817 gnorm: 0.006511233126 xtb: 6.4.1 (a3dbbd7)
C        -1.30423088088384   -0.01242046851569    3.53335374533127
C        -0.36045701929925   -1.18863811988200    3.28080389186807
C         0.98405946304843   -0.72514000996502    3.24464900985345
C         0.96281107104603    0.71989559879743    3.23300795253538
C        -0.37278015709896    1.17080122027068    3.27890784401871
C         2.36128091911381   -2.59197087902089    0.55217327115605
C         3.16283878668818   -1.41487083460322    0.55440316455209
C         2.91478734969026   -0.69733922450423    1.78343543225725