63
 energy: -142.071527739158 gnorm: 0.141776099883 xtb: 6.4.1 (a3dbbd7)
C        -1.29380189142293    0.00518810975266    3.53475042546279
C        -0.36795491470580   -1.17109445736895    3.30532490038581
C         0.98604358283337   -0.72205662153057    3.28338601634011
C         0.99279845569028    0.71960958020434    3.28670177220412
C        -0.35984581254024    1.17608479242461    3.30752732760340
C         2.33713649004571   -2.58532145161085    0.58372316331785
C         3.18546133793759   -1.42134997264655    0.58338208878717
C         2.95082976620164   -0.69852042803930    1.80993186584047
C         1.95446102216782   -1.41753025851411    2.56281800021944
C         1.57847833033781   -2.57892028349053    1.80920393433954
C         3.19288167803387    1.41169296432545    0.58672865582473
C         2.35105136029066    2.58084981847724    0.59261819528430
C         1.59758832697668    2.57820008875605    1.81796532275165
C         1.96559431354784    1.41132811232743    2.56849274624772
C         2.95756435296723    0.68790137312963    1.81257795942740
C        -0.35275196897409    3.42887133849168    0.59421742049523
C        -1.72920692229924    2.99230129003520    0.61519127722458
C        -1.95197042618735    2.29668273330733    1.78890012206403
C        -0.71485852606077    2.27608556030605    2.56877936383865
C         0.27214507062583    2.99541427636099    1.81693304163630
C        -3.38721742288295    0.70448508843178    0.56514887497333
C        -3.39044375775274   -0.72968934853056    0.56550558817146
C        -2.77113539472441   -1.15912612265277    1.79248966840215
C        -2.41317429079729    0.01751644177935    2.54950357180152
C        -2.77182627205049    1.13563561134442    1.81994410998792
C        -1.73355122268659   -3.00708034664607    0.58129730270537
C        -0.36181166270692   -3.44426421951826    0.58345136711438
C         0.25275073307619   -2.99321810486982    1.80880479424469
C        -0.73039712791208   -2.27135950943121    2.56586851742324
C        -1.97279304600038   -2.28576170766145    1.80102269682824
C        -0.24238615112945   -3.01793584622875   -1.82445515299701
C         0.75219722331257   -2.29732681147523   -2.58092298223561
C         1.97624114646521   -2.29597968001587   -1.82132020587332
C         1.74307643045859   -3.01315945447727   -0.59635165459212
C         0.36952394179264   -3.45595661079619   -0.59532061061890
C         2.79389381083502   -1.17006079615157   -1.82189978789697
C         2.41348009957297   -0.00705489229052   -2.57818086595715
C         2.78999064750528    1.16020365821852   -1.81761248140956
C         3.41015703318610    0.71618948342090   -0.59477681854074
C         3.40904188499398   -0.72628404265143   -0.59717927367984
C         1.96766155284354    2.27743617061842   -1.80961098452332
C         0.73818631315969    2.27318131636995   -2.56526366176596
C        -0.25452817372238    2.98697308127654   -1.81304848877457
C         0.37433917950606    3.44714002836196   -0.57954542322151
C         1.74069841374485    3.00184911275993   -0.58628229109115
C        -1.56594286660743    2.57622153348487   -1.82757382821072
C        -1.93060359076478    1.40833920854940   -2.56142004737257
C        -2.92558718059454    0.68471965133326   -1.80985060540908
C        -3.18336452045091    1.39842201201719   -0.60046258538095
C        -2.49261081939282    2.74597890286004   -0.64190319443319
C        -2.93337982074983   -0.70819502150591   -1.82878957204493
C        -1.94087750651851   -1.42668590891227   -2.58871417977512
C        -1.56447467303262   -2.59492957963295   -1.83010971308821
C        -2.32899579696595   -2.59691491413030   -0.60898361949216
C        -3.17400858337551   -1.43281811038797   -0.61332327338214
C        -0.98438829443742   -0.73034962028861   -3.31153930258603
C        -0.98168514679102    0.71067458913262   -3.30542238699281
C         0.38278275322509    1.15383295034001   -3.30684835980828
C         1.23382314639336   -0.00939761816394   -3.31093861539930
C         0.38818347913191   -1.17531879821918   -3.31264620408259
Cl       -1.92621810876854    0.00794379942123    5.24496950921280
Cl       -3.69873659772651    4.07913281862690   -0.94789575544924
Cl        2.95378839095217   -2.14736964393593    3.88371893575005
63
 energy: -142.095677076327 gnorm: 0.063730045185 xtb: 6.4.1 (a3dbbd7)
C        -1.30187285472127    0.01249318956024    3.53677258946096
C        -0.37293677112312   -1.15832077754950    3.29827626319978
C         0.96736152456292   -0.71069996041509    3.29519507083790
C         0.98087300457603    0.72378554781821    3.28024068211697
C        -0.37054847281980    1.18523583799521    3.31025110615047
C         2.32802365208404   -2.58046441839894    0.57566516982465
C         3.17668860927748   -1.41453580263824    0.57617200362654
C         2.94957470671280   -0.69069048916034    1.79373335437522
C         2.01224752307734   -1.46091861656204    2.63806872731450
C         1.57065183020461   -2.58347430829593    1.79154907129908
C         3.19501899554614    1.41448456402914    0.58016427639885
C         2.34969439033033    2.57969840032946    0.58975104539151
C         1.59484296254065    2.57740434269644    1.81701207220434
C         1.96096095837255    1.41532603660558    2.56664675301258
C         2.94955778200771    0.68868479046301    1.79900482786606
C        -0.35475753806915    3.42953943622354    0.59497551505208
C        -1.73072030374405    2.99405712901178    0.61463848611918
C        -1.95819698696782    2.29970581662490    1.78910740851118
C        -0.72194930526505    2.28200420688021    2.56980237457102
C         0.26803060812609    2.99867228345145    1.81635462253304
C        -3.38935916591586    0.70709174217184    0.56479828597547
C        -3.39064570634105   -0.72748144081462    0.56723545855635
C        -2.77158822489735   -1.15472072466606    1.79434261610534
C        -2.41854290525900    0.01987918970699    2.54920159439646
C        -2.77720366917178    1.14029105780525    1.81965465316875
C        -1.73068947608473   -3.00707995006197    0.57892464207793
C        -0.36270923357556   -3.45123045771396    0.57574163975377
C         0.25022608097431   -2.98962794873906    1.79344091591522
C        -0.73598675459991   -2.27202994912532    2.56253349948564
C        -1.96832940220159   -2.28517902337402    1.80264382729986
C        -0.24206745418035   -3.01960795718433   -1.83011840362621
C         0.75206560913428   -2.29813833487125   -2.58703505815014
C         1.97634883668692   -2.29665916590541   -1.82888475188176
C         1.74030408392444   -3.01710132606717   -0.60650910446236
C         0.37031838090115   -3.46175241700999   -0.60457686035230
C         2.79378349345109   -1.17000350532574   -1.82851387766220
C         2.41349265981482   -0.00643953504515   -2.58345236382115
C         2.79076131704544    1.16049418436726   -1.82275086586115
C         3.41413855918198    0.71739452311253   -0.60258716652814
C         3.41032366368471   -0.72230976524874   -0.60573778205042
C         1.96751868643481    2.27737704319433   -1.81274777065673
C         0.73906392837444    2.27334224360349   -2.56653979645195
C        -0.25399300889096    2.98732723161885   -1.81210434122574
C         0.37416449291327    3.44874151879615   -0.58133982843000
C         1.73936730293042    3.00127479131853   -0.58829741308283
C        -1.56585630049457    2.57648930160033   -1.82725323341091
C        -1.93040748788657    1.40873334274757   -2.56066741013710
C        -2.92555060251818    0.68547765162406   -1.80947960874101
C        -3.18441524244848    1.40000268463727   -0.60094870308219
C        -2.49320242976683    2.74713862571656   -0.64257682188048
C        -2.93336835482083   -0.70767096234724   -1.82708449243180
C        -1.94074812563113   -1.42650983075932   -2.58816201706742
C        -1.56380123094736   -2.59473738836131   -1.83165518556381
C        -2.32647411177300   -2.59560021348362   -0.60867415944205
C        -3.17334219238387   -1.43099724577450   -0.61196811717743
C        -0.98482079694283   -0.72976072358993   -3.31234160204583
C        -0.98175017309550    0.71100418565389   -3.30625855386991
C         0.38234786976450    1.15408557634988   -3.30868350768036
C         1.23301237748615   -0.00865200235408   -3.31440833491985
C         0.38722874222358   -1.17495524811032   -3.31577936781564
Cl       -1.93151083444635    0.01039636726115    5.24658629153912
Cl       -3.69911164702655    4.08015172893714   -0.94868872125888
Cl        3.02978590874454   -2.20537976848800    3.99002698645323
63
 energy: -142.102011044781 gnorm: 0.016000863633 xtb: 6.4.1 (a3dbbd7)
C        -1.30198286897427    0.01384431230413    3.53029923021110
C        -0.36631342911773   -1.15367490804850    3.29271904369640
C         0.95884426089469   -0.70787433922611    3.29028188371626
C         0.97727359449865    0.72016116667433    3.27233752727226
C        -0.37402278374582    1.18790703197641    3.30587160866311
C         2.31785892592380   -2.57403521842734    0.57704071625947
C         3.16541228602214   -1.40772053514911    0.57806877133919
C         2.95170441730124   -0.69120662014052    1.79339018741916
C         2.06641481865298   -1.50212485777783    2.70553806338491
C         1.57148328893346   -2.58887631089580    1.79003416139525
C         3.18648683322490    1.40946920616533    0.57793890218035
C         2.34462215239615    2.57631167624988    0.58710168780978
C         1.59055737923578    2.57401171102567    1.81640433353829
C         1.95912610389577    1.41772107697714    2.56782222455184
C         2.94490546607179    0.68211435026495    1.79604943300308
C        -0.35790026446731    3.42974714193065    0.59421647078706
C        -1.73363165800626    2.99748470284770    0.61231887223040
C        -1.96457899440195    2.30417602582219    1.78835215748540
C        -0.72648790478066    2.28521996350793    2.56794241858293
C         0.26366004846577    3.00212895608385    1.81460123357534
C        -3.39262344264088    0.71121354467041    0.56285773636573
C        -3.39007542535183   -0.72386564157662    0.56738184294478
C        -2.77058607950855   -1.14863799874470    1.79512160025059
C        -2.42142394064611    0.02239687211984    2.54607703189260
C        -2.78270413637705    1.14644377554314    1.81757103691531
C        -1.72670557775810   -3.00346718987465    0.57699013504119
C        -0.35973532186348   -3.44669316159090    0.57265685836658
C         0.25551944969779   -2.98768983381375    1.78965520524198
C        -0.73913623655367   -2.27742398336240    2.56447020727540
C        -1.95987790464933   -2.28108883572248    1.80520898965904
C        -0.24231945911029   -3.02067673723810   -1.83565884745945
C         0.75122396152061   -2.29778152599917   -2.59307231461389
C         1.97487820202353   -2.29595943302462   -1.83392788687921
C         1.73709436223778   -3.01590327233418   -0.61044419085947
C         0.37135738239755   -3.46055494701525   -0.61040687433847
C         2.79123566898124   -1.16921562419216   -1.83256216548110
C         2.41177788521018   -0.00554031765594   -2.58860244338397
C         2.79008989723828    1.16118327073898   -1.82793168159480
C         3.41027936958781    0.71580595179014   -0.60701713699136
C         3.40575316470154   -0.71999858434043   -0.60825550272244
C         1.96585644981940    2.27781008638441   -1.81672450050069
C         0.73815742085111    2.27387909443101   -2.56899703478573
C        -0.25553855090359    2.98858046456158   -1.81313462081163
C         0.37197570329413    3.44981456932257   -0.58473475557649
C         1.73630767021903    3.00059082571430   -0.59062673063228
C        -1.56793243294598    2.57843010886319   -1.82964766832451
C        -1.93186033870018    1.41049354333020   -2.56211978904939
C        -2.92690690658744    0.68786588809390   -1.81102657306495
C        -3.18712654647394    1.40311644824000   -0.60346249768532
C        -2.49528821917078    2.74981531727915   -0.64528624960801
C        -2.93372574008381   -0.70551781679103   -1.82647513631324
C        -1.94099155146525   -1.42485204385049   -2.58810940590529
C        -1.56353081667605   -2.59326663015290   -1.83363826243078
C        -2.32356702768450   -2.59255398890930   -0.60817969237213
C        -3.17246737449053   -1.42719723566420   -0.61167881678838
C        -0.98624062380708   -0.72794348860600   -3.31453073280570
C        -0.98349668009686    0.71255224978883   -3.30889230960623
C         0.38039243113430    1.15518368501601   -3.31212269280346
C         1.23103613744439   -0.00713853210820   -3.31949962812401
C         0.38522319978540   -1.17379254128280   -3.32040987573676
Cl       -1.92828614725653    0.00462141158388    5.23866740847557
Cl       -3.70060930308634    4.08310850793558   -0.95152765456883
Cl        3.08248753280005   -2.24587546925076    4.07640330211303
63
 energy: -142.102366686940 gnorm: 0.009729973513 xtb: 6.4.1 (a3dbbd7)
C        -1.29948351224040    0.01318955408288    3.52635619321574
C        -0.36126217436783   -1.15516967134685    3.29227209335055
C         0.96113044482111   -0.71038959875840    3.28744267773054
C         0.97915578052659    0.71782085318061    3.27124086413942
C        -0.37273330640577    1.18723881523931    3.30289438954533
C         2.31578884157064   -2.57314858743938    0.58007509095937
C         3.16266873957086   -1.40671799868300    0.58110321689207
C         2.95642093118151   -0.69486288926491    1.80036950789073
C         2.08011378187664   -1.51269267972916    2.72100451698026
C         1.57633595522972   -2.59412888907706    1.79717883751757
C         3.18090378211668    1.40540822197185    0.57839791097290
C         2.34105711572810    2.57354571250454    0.58624176505063
C         1.58865885517573    2.57277300964312    1.81631516809346
C         1.95960480337063    1.41894026720977    2.56940257774289
C         2.94564911713765    0.67890977227662    1.79902102704084
C        -0.35936175607672    3.42985599153672    0.59322570442084
C        -1.73497817829475    2.99937351254668    0.61096853935349
C        -1.96633880261294    2.30574751521435    1.78784211863873
C        -0.72715166723615    2.28561067897026    2.56698522100647
C         0.26215561899836    3.00310780355055    1.81362663885954
C        -3.39384223379197    0.71314287427754    0.56196599951074
C        -3.38930225039541   -0.72216410068222    0.56678679864635
C        -2.76936704866953   -1.14640949230431    1.79483555055564
C        -2.42059127595824    0.02304389956651    2.54401999853661
C        -2.78400832868411    1.14883537893401    1.81639659137168
C        -1.72417081092432   -3.00047217773351    0.57640090416156
C        -0.35722852083498   -3.44287205524695    0.57312780867980
C         0.25912544575946   -2.99034837964547    1.79321637606007
C        -0.74004807881127   -2.28138694519800    2.56656541659906
C        -1.95665952045585   -2.27929814506938    1.80638160499384
C        -0.24262635350611   -3.02043685251649   -1.83721650195919
C         0.75051497541474   -2.29736998521651   -2.59515074296883
C         1.97348128751220   -2.29496360708595   -1.83463676834143
C         1.73618852594895   -3.01359276604026   -0.60973746440019
C         0.37176958963907   -3.45857252627574   -0.61111689520841
C         2.78894111324163   -1.16857388561111   -1.83298704808846
C         2.41048287862590   -0.00515028107126   -2.59047279715195
C         2.78868214128861    1.16130854368323   -1.82954787715349
C         3.40655116502794    0.71449082468340   -0.60735423539379
C         3.40174667934969   -0.72019744648688   -0.60718460099618
C         1.96423347137386    2.27776455991824   -1.81840314716410
C         0.73710289357135    2.27448939914931   -2.57097050571097
C        -0.25673570320727    2.98947729829231   -1.81457316781192
C         0.37050420195912    3.45017310679310   -0.58654456707520
C         1.73422305705370    2.99966337784745   -0.59155529377877
C        -1.56942647623101    2.57995304696776   -1.83155312315187
C        -1.93298543181294    1.41176333121555   -2.56363091710895
C        -2.92789118999458    0.68952192052451   -1.81216823447756
C        -3.18860239687592    1.40497436034929   -0.60482065814659
C        -2.49670112248968    2.75179355275060   -0.64693546028137
C        -2.93390610490816   -0.70401441317015   -1.82680962108877
C        -1.94141755130568   -1.42365288165855   -2.58870395690637
C        -1.56338130869321   -2.59171035887456   -1.83437019006546
C        -2.32177448368940   -2.59027305122067   -0.60791794462138
C        -3.17187277041921   -1.42503692856920   -0.61197604200678
C        -0.98722081763941   -0.72699253288709   -3.31626435163801
C        -0.98475007953391    0.71353979887468   -3.31070937786859
C         0.37924838617973    1.15596934290983   -3.31449658554790
C         1.23000708806624   -0.00644568426424   -3.32216102484416
C         0.38412864312537   -1.17333782916196   -3.32276291991557
Cl       -1.92493249660097   -0.00270569905664    5.23394354279928
Cl       -3.70144319743748    4.08562847459254   -0.95442692800573
Cl        3.08694141674244   -2.24891114544020    4.09424090738731
63
 energy: -142.102500738308 gnorm: 0.004914379661 xtb: 6.4.1 (a3dbbd7)
C        -1.29753801112081    0.01299340089279    3.52388271104063
C        -0.35774495067532   -1.15624233435645    3.29108109537907
C         0.96299081863672   -0.71221834636401    3.28359773899145
C         0.98089605261351    0.71669461323442    3.27046733816026
C        -0.37135266598707    1.18666331793672    3.30096292868950
C         2.31412968680853   -2.57236897157610    0.58168752615903
C         3.16062700320828   -1.40589500228187    0.58265498658329
C         2.95892763756162   -0.69707077906946    1.80502562733364
C         2.08669446898942   -1.51765525622243    2.72794822505766
C         1.57913753220503   -2.59711118308339    1.80207026915632
C         3.17767456004129    1.40283740270376    0.57874398393320
C         2.33899410932964    2.57178087592971    0.58592905211179
C         1.58799178347157    2.57275121474995    1.81657654612814
C         1.96024756419221    1.42059485353036    2.57059145138070
C         2.94602256242387    0.67728682088483    1.80074767775063
C        -0.35997656543449    3.42979337661783    0.59289528908620
C        -1.73527131751159    3.00034607296061    0.61046300889051
C        -1.96686737909327    2.30604582681213    1.78784461761633
C        -0.72706825154895    2.28585835642398    2.56688311042884
C         0.26164943369306    3.00382350309433    1.81336282363385
C        -3.39446510191781    0.71394013158584    0.56181378364847
C        -3.38885972538407   -0.72151617889842    0.56648541622557
C        -2.76861474431877   -1.14534086384500    1.79484895766770
C        -2.41966701770643    0.02279138218074    2.54281319562966
C        -2.78440977662699    1.15006219995859    1.81579507989927
C        -1.72258523413260   -2.99877777990322    0.57597361129966
C        -0.35567145881121   -3.44077125899899    0.57343913190965
C         0.26091574350533   -2.99226814834210    1.79550006162449
C        -0.74160881426790   -2.28457303341997    2.56777515450093
C        -1.95504716923136   -2.27876796827461    1.80741087652956
C        -0.24293761677123   -3.02056972556855   -1.83809517307027
C         0.75006279484634   -2.29743678538558   -2.59625317466865
C         1.97256646393484   -2.29425070542255   -1.83485119738658
C         1.73551069698004   -3.01179103449689   -0.60916603259005
C         0.37181947875895   -3.45767177029820   -0.61142413442196
C         2.78744297317767   -1.16812539061188   -1.83304356951908
C         2.41005379504474   -0.00480060256521   -2.59148576483629
C         2.78806904673246    1.16152397189506   -1.83045990366989
C         3.40457343031540    0.71392059896941   -0.60739950609685
C         3.39890653116880   -0.72034051529685   -0.60642354433540
C         1.96343764892299    2.27770934084751   -1.81916844415381
C         0.73676509863163    2.27486437172173   -2.57202541696128
C        -0.25712056102688    2.98991087354570   -1.81514817670218
C         0.36994873921805    3.45034038953285   -0.58738467893088
C         1.73330731942732    2.99920216261461   -0.59184643871554
C        -1.56996748775196    2.58062010399623   -1.83229641707412
C        -1.93329960375452    1.41222232318016   -2.56412187508460
C        -2.92826840339352    0.69025241865032   -1.81251313876130
C        -3.18929412038878    1.40574590500998   -0.60528694205914
C        -2.49721099748608    2.75261644246926   -0.64744378526599
C        -2.93393623663377   -0.70340938422517   -1.82686446431849
C        -1.94166533970349   -1.42318104328598   -2.58897152433413
C        -1.56329769049833   -2.59086300220531   -1.83462561649662
C        -2.32069870217409   -2.58928195493027   -0.60763166623327
C        -3.17159941340402   -1.42396647547902   -0.61202308218520
C        -0.98761962440209   -0.72668857782645   -3.31710855298093
C        -0.98521317007126    0.71388133985830   -3.31141916383450
C         0.37888783092655    1.15630072390271   -3.31566426001738
C         1.22971780873783   -0.00617145631242   -3.32360869228031
C         0.38367658550698   -1.17332256522585   -3.32397942846702
Cl       -1.92206535337806   -0.00768869987522    5.23108348057341
Cl       -3.70160976678859    4.08689850549966   -0.95578525545788
Cl        3.08222884946369   -2.24508071307158    4.09985087371554
63
 energy: -142.102544839673 gnorm: 0.002468184422 xtb: 6.4.1 (a3dbbd7)
C        -1.29691098356272    0.01300073206847    3.52336671764702
C        -0.35667667525211   -1.15643748250972    3.28992257700860
C         0.96313697659257   -0.71263262047665    3.28064104621861
C         0.98133444823750    0.71666611210506    3.26988036960988
C        -0.37088329473985    1.18648240878148    3.30060123941050
C         2.31337468358270   -2.57197606470421    0.58168380681196
C         3.15980548900259   -1.40549153351035    0.58260376488350
C         2.95874453778176   -0.69730256054033    1.80566013487786
C         2.08782300691805   -1.51840186158299    2.72910202087581
C         1.57928764807001   -2.59733968653309    1.80283727420820
C         3.17723508566079    1.40228819778904    0.57877597308012
C         2.33882463789106    2.57151156090486    0.58600130922270
C         1.58827125990066    2.57326642130686    1.81685511895074
C         1.96050239683579    1.42148133085656    2.57089497339468
C         2.94583473278671    0.67708281775917    1.80066855424185
C        -0.35992935551199    3.42969836538826    0.59307046719393
C        -1.73490708236612    3.00041958210125    0.61057899273706
C        -1.96661664898497    2.30563252664986    1.78808820439693
C        -0.72678082971401    2.28603837693482    2.56725019628192
C         0.26181376109062    3.00411322840767    1.81356178491716
C        -3.39444479945123    0.71391583984489    0.56209077226082
C        -3.38873643445419   -0.72158718499791    0.56659034075302
C        -2.76841616413531   -1.14527028054494    1.79512840088095
C        -2.41923362405132    0.02222195992952    2.54264105341872
C        -2.78419901806287    1.15024000793582    1.81574933937593
C        -1.72226251555132   -2.99879940075281    0.57583741020154
C        -0.35530808388245   -3.44071019756321    0.57339804453446
C         0.26104911278695   -2.99269384704980    1.79563109394294
C        -0.74268370260615   -2.28595315001062    2.56798570307193
C        -1.95481921360585   -2.27921601715631    1.80796351278624
C        -0.24300982677963   -3.02088327792643   -1.83828635203325
C         0.74999764466314   -2.29768234521952   -2.59638307821045
C         1.97244525845075   -2.29413589361940   -1.83484410255615
C         1.73537780279656   -3.01139922330074   -0.60913272215214
C         0.37175579626552   -3.45789016793703   -0.61156176980107
C         2.78720467611752   -1.16806797747236   -1.83301235044019
C         2.41023655744666   -0.00467493614968   -2.59161280544749
C         2.78822801244144    1.16163464195023   -1.83067427152993
C         3.40455049442870    0.71396240593185   -0.60743046309241
C         3.39828990236015   -0.72038993329106   -0.60635095483710
C         1.96348330152893    2.27765167126844   -1.81915088648646
C         0.73694004395299    2.27489472294091   -2.57202218992942
C        -0.25693654864147    2.98992365766243   -1.81496384480989
C         0.37012280850519    3.45036037277687   -0.58736400918515
C         1.73345228911532    2.99923769379061   -0.59171341050120
C        -1.56979949234893    2.58058944202813   -1.83211551221791
C        -1.93311349007391    1.41213452760577   -2.56386807418813
C        -2.92817373532399    0.69025429121275   -1.81227837735111
C        -3.18921581717616    1.40569960422949   -0.60511087802114
C        -2.49698769856212    2.75250547636999   -0.64716752066538
C        -2.93387493338296   -0.70347663707083   -1.82664790641782
C        -1.94165855725254   -1.42324291481094   -2.58880200863818
C        -1.56322687430470   -2.59079903854386   -1.83449080546471
C        -2.32047709409706   -2.58947684436082   -0.60741572038727
C        -3.17156722561509   -1.42386741284500   -0.61181870790629
C        -0.98753890261644   -0.72677038388422   -3.31698307993085
C        -0.98512041572370    0.71380194605388   -3.31122645898578
C         0.37902093257971    1.15623594686021   -3.31557858054013
C         1.22984944280563   -0.00621258661682   -3.32368588683447
C         0.38372061966907   -1.17347023464725   -3.32398630061037
Cl       -1.92068016795315   -0.00902505340797    5.23055144103349
Cl       -3.70144621670427    4.08695596458067   -0.95551823795866
Cl        3.07524383930259   -2.23956977051788    4.09827223872682
63
 energy: -142.102556846653 gnorm: 0.001405483348 xtb: 6.4.1 (a3dbbd7)
C        -1.29706647687299    0.01299293268880    3.52378441064637
C        -0.35699048768656   -1.15623191706682    3.28943408245152
C         0.96249914763181   -0.71233097905282    3.27936946191535
C         0.98103829484823    0.71699173780191    3.26958377571153
C        -0.37101316048339    1.18651485890831    3.30097680031356
C         2.31342885779941   -2.57203413121051    0.58119796217582
C         3.15993690766144   -1.40554155467693    0.58209834729100
C         2.95794093733780   -0.69684408201982    1.80459718220529
C         2.08715997851429   -1.51780919368910    2.72853109420328
C         1.57860988186574   -2.59673022648404    1.80183024254817
C         3.17791367372533    1.40265529909946    0.57866901797988
C         2.33939224614780    2.57189021299493    0.58612421040430
C         1.58870934808481    2.57358154815139    1.81695248972611
C         1.96049921139404    1.42147972449188    2.57070337817831
C         2.94570334279369    0.67734020549931    1.80006103073498
C        -0.35973184867856    3.42964198215899    0.59329842364711
C        -1.73455920023209    3.00019451896530    0.61079917265932
C        -1.96628122037400    2.30526563200374    1.78827051913355
C        -0.72659318465050    2.28610836337545    2.56751999178498
C         0.26208908158897    3.00407386728262    1.81377729118257
C        -3.39420007055406    0.71369893661331    0.56233305615832
C        -3.38872581838123   -0.72179267060993    0.56678716354162
C        -2.76845434161992   -1.14552019628434    1.79536994112993
C        -2.41920288759490    0.02187102141064    2.54289464534728
C        -2.78389362790431    1.15002807937531    1.81588354792656
C        -1.72251479747940   -2.99941371280137    0.57586561188177
C        -0.35548533578857   -3.44133070189251    0.57325502270168
C         0.26071224037126   -2.99249550176282    1.79501098375727
C        -0.74292149162015   -2.28605709275375    2.56779366090307
C        -1.95508746372511   -2.27977886600534    1.80808066880660
C        -0.24293129199311   -3.02105021983037   -1.83817828137170
C         0.75008621127983   -2.29778473245105   -2.59616792888574
C         1.97265960336969   -2.29429724728078   -1.83482206271071
C         1.73554384995456   -3.01176408200997   -0.60932799782853
C         0.37173152090001   -3.45831959333531   -0.61161454386151
C         2.78752008848122   -1.16819075215832   -1.83303043721278
C         2.41044516616558   -0.00470842555614   -2.59142715285809
C         2.78851392396068    1.16160895107410   -1.83058294459439
C         3.40513657123374    0.71411833533703   -0.60748833500736
C         3.39880451432469   -0.72041397392098   -0.60657395052132
C         1.96374055133096    2.27761175922458   -1.81893796318841
C         0.73713305735126    2.27480227140178   -2.57169200504591
C        -0.25672165732643    2.98982159730433   -1.81464900299483
C         0.37040384484946    3.45033780015852   -0.58710863749233
C         1.73381552360897    2.99938430768112   -0.59155025202643
C        -1.56955866098431    2.58041458490233   -1.83177949346172
C        -1.93294061000311    1.41199349307606   -2.56356282766448
C        -2.92801838245547    0.69008853192946   -1.81200874661399
C        -3.18894296614711    1.40547989963254   -0.60485671303796
C        -2.49666275343607    2.75219342177786   -0.64682006066184
C        -2.93382458821116   -0.70366456425146   -1.82644644902330
C        -1.94157500198713   -1.42338268044497   -2.58857052461262
C        -1.56318280528852   -2.59098798580917   -1.83432380584396
C        -2.32060800884417   -2.58989986066556   -0.60734095294427
C        -3.17160212237393   -1.42407419879476   -0.61163748470609
C        -0.98739892562517   -0.72686453759287   -3.31663522927324
C        -0.98497161376176    0.71369691394983   -3.31090511161141
C         0.37916642591446    1.15611522072585   -3.31517290890053
C         1.22995949397479   -0.00629223510738   -3.32330613897124
C         0.38384004977368   -1.17352491374873   -3.32362770182235
Cl       -1.92047713533410   -0.00863609779179    5.23106733849173
Cl       -3.70132312866303    4.08665792173529   -0.95481865417529