63
 energy: -142.102559429964 gnorm: 0.000136871127 xtb: 6.4.1 (a3dbbd7)
C        -1.29741714472116    0.01292111988100    3.52431325390575
C        -0.35770957982442   -1.15604462782689    3.28970585239185
C         0.96198316009680   -0.71195376491593    3.27969587194975
C         0.98067944532272    0.71717726488177    3.26960986917460
C        -0.37128642067505    1.18660518041129    3.30143012531665
C         2.31390129393605   -2.57234484823709    0.58095496269657
C         3.16048086200775   -1.40585539036200    0.58186352305859
C         2.95786847300395   -0.69659207809734    1.80369052578647
C         2.08686336735599   -1.51755249875653    2.72843679915782
C         1.57835807885074   -2.59659613079251    1.80094865510819
C         3.17850816236178    1.40307527883971    0.57857067498532
C         2.33982470328223    2.57218039422132    0.58613587910998
C         1.58886250401123    2.57341278347403    1.81684761744362
C         1.96046443068710    1.42091996908923    2.57040449572422
C         2.94590654478635    0.67748618975809    1.79980000032791
C        -0.35962489487456    3.42959959472761    0.59335542659000
C        -1.73452842381650    3.00004658474936    0.61089663055821
C        -1.96621419396436    2.30528899369717    1.78831781341678
C        -0.72658187378915    2.28602457587569    2.56747784799733
C         0.26220246826614    3.00381314663217    1.81381414104310
C        -3.39399738310942    0.71358516622802    0.56236859497132
C        -3.38866937412878   -0.72187101319613    0.56688506380135
C        -2.76845559742936   -1.14568967928475    1.79540202185636
C        -2.41935336231876    0.02193887477273    2.54314522140076
C        -2.78377930115339    1.14982534785110    1.81601576036811
C        -1.72276022677845   -2.99974740367811    0.57593825505093
C        -0.35571296412078   -3.44169479023064    0.57317447403941
C         0.26059109489773   -2.99232168992859    1.79465188031003
C        -0.74244172962435   -2.28554239556219    2.56756598818968
C        -1.95528350955485   -2.27994782299223    1.80788285639024
C        -0.24284883759530   -3.02094631973352   -1.83805835931172
C         0.75014002613345   -2.29767494666038   -2.59604249213756
C         1.97279924745226   -2.29441510188645   -1.83486291866199
C         1.73567128141994   -3.01213665103159   -0.60948414625685
C         0.37176279165571   -3.45840386325815   -0.61162131632042
C         2.78776766177559   -1.16828120805712   -1.83311369002928
C         2.41041371111766   -0.00479066638124   -2.59131685018309
C         2.78854497732723    1.16150593286945   -1.83044825934062
C         3.40542208308863    0.71412547636341   -0.60754188986544
C         3.39934258360753   -0.72040032133298   -0.60676109805787
C         1.96383572835639    2.27760509573621   -1.81885956665599
C         0.73713298596873    2.27474914965910   -2.57153099536529
C        -0.25669893982185    2.98976582041350   -1.81455023987224
C         0.37048945084018    3.45030229985437   -0.58696608773481
C         1.73391728972336    2.99936854806827   -0.59153249679499
C        -1.56952483427439    2.58036612308454   -1.83166826767561
C        -1.93296213234317    1.41199503120018   -2.56351940306051
C        -2.92798117402972    0.69002544788256   -1.81195302804050
C        -3.18880486479675    1.40539523572546   -0.60476966152568
C        -2.49655924095724    2.75206724189168   -0.64672345523612
C        -2.93381957494822   -0.70371174381036   -1.82641285170920
C        -1.94154809190926   -1.42340077953866   -2.58854309992844
C        -1.56319695344067   -2.59109925289744   -1.83432809869400
C        -2.32071656773878   -2.58998632882300   -0.60741173927941
C        -3.17158940319449   -1.42422009520298   -0.61162039682104
C        -0.98741572167680   -0.72684371599684   -3.31655499733260
C        -0.98497816044033    0.71371980094767   -3.31085854895933
C         0.37913963517561    1.15611706269991   -3.31504416648943
C         1.22990320930279   -0.00628564565717   -3.32311458872680
C         0.38383696488453   -1.17344691529017   -3.32348346004768
Cl       -1.92097978722144   -0.00802381887676    5.23161478322194
Cl       -3.70137075092668    4.08650953098039   -0.95450950096055
Cl        3.06951857558136   -2.23464143970022    4.09497741555764
