63
 energy: -142.116799361370 gnorm: 0.000092208731 xtb: 6.4.1 (a3dbbd7)
C        -1.28807052327950    0.01302813163187    3.51335778929934
C        -0.34575862547451   -1.15202876334482    3.27380240274114
C         0.93191687087538   -0.71902712647992    3.22910232201529
C         0.96330688404906    0.73667083493505    3.24830266714937
C        -0.37637024479045    1.19926063840396    3.29886307062931
C         2.30507512424075   -2.56224183193788    0.57495460323377
C         3.15288795925596   -1.39638704683622    0.57537713081177
C         2.94767841677472   -0.69088931616407    1.79558157806264
C         2.08697358543278   -1.52083515994960    2.72694958477601
C         1.56838045044135   -2.59582000999583    1.79785932943763
C         3.16653986017883    1.40845989089102    0.57227481950876
C         2.32664088523687    2.58085520876124    0.57530810722109
C         1.57269250448157    2.58790906232588    1.80437177567738
C         1.93938551289860    1.42922821919022    2.55570063592482
C         2.93083667090979    0.68399896140089    1.78872065913997
C        -0.36422917307645    3.46058413586492    0.57782364601262
C        -1.73954988044874    3.01724090613249    0.58119833690083
C        -1.97805259284471    2.31698358096633    1.80557261194734
C        -0.74162465165085    2.30937533993319    2.56519439482022
C         0.24715962694258    3.02098305868638    1.80475661312149
C        -3.38589308499578    0.72267532406475    0.56746344220180
C        -3.37731264244621   -0.71182313961902    0.56791562593405
C        -2.74324172440791   -1.14437355373174    1.79304331998311
C        -2.41181992048189    0.01644284682497    2.55101686943105
C        -2.76568414950362    1.16038288413479    1.80046877366775
C        -1.71879881849155   -2.97275331352381    0.58322485030536
C        -0.34797077833847   -3.42149647993732    0.57945213614833
C         0.26764258420896   -3.01718148283639    1.80335013431676
C        -0.78977279724632   -2.46962371807477    2.74376561661253
C        -1.96437768732397   -2.29032698104736    1.80339351403408
C        -0.24676820239634   -3.00124611338202   -1.84077246743239
C         0.74219124567510   -2.28185979287877   -2.60013511416004
C         1.96937333945658   -2.28088977697882   -1.84231508076928
C         1.73044082646368   -2.99615456685384   -0.61490297466504
C         0.36896162652391   -3.43695097894097   -0.61178891783460
C         2.78412491352118   -1.15755877681802   -1.84167209188657
C         2.40826568105420    0.00698459203089   -2.59931393629558
C         2.78805309564003    1.17159579058360   -1.83908983110261
C         3.39996820916029    0.72255141258935   -0.61480810431537
C         3.39377458479426   -0.71103144569108   -0.61339840505587
C         1.96841626163300    2.29250920403932   -1.83142126865606
C         0.74146417601159    2.29430432079931   -2.58647528120839
C        -0.24782572432563    3.01598701403529   -1.82959427744435
C         0.36415126945798    3.45878818556586   -0.60246795321798
C         1.73616933042756    3.01043348686383   -0.60344149496168
C        -1.57091228877433    2.58756315664369   -1.82880728746661
C        -1.94917262958887    1.42252667469012   -2.59152314206904
C        -2.94267569451102    0.70114045407302   -1.83787104140641
C        -3.17330922047222    1.42072766533678   -0.61004364487261
C        -2.32917403514935    2.59085781939018   -0.60892131615203
C        -2.94377829261381   -0.68750246978203   -1.84050401257501
C        -1.94979867967872   -1.40865282777585   -2.59854219859871
C        -1.56779067969903   -2.57053915629226   -1.83649380960273
C        -2.31904047037468   -2.56600918400055   -0.61062229629720
C        -3.16775591334957   -1.40692022475088   -0.61372342271773
C        -0.99482973092266   -0.71255369029699   -3.32658168897450
C        -0.99447271831033    0.72901895545975   -3.32239994283344
C         0.37697450495946    1.17304711061778   -3.32246640898285
C         1.22278124862957    0.00852676628779   -3.32691922747214
C         0.37689109558668   -1.15729629824284   -3.32962550537839
Cl       -1.90957193470345   -0.03524482917604    5.23071215364277
Cl        3.04105674577373   -2.19375453316669    4.10771565158002
Cl       -1.18649782416278   -3.63126114495071    4.07813031190498
