64
 energy: -146.693135579675 gnorm: 0.000316334496 xtb: 6.4.1 (a3dbbd7)
C        -1.31652180073757   -0.00004313866643    3.55169125957928
C        -0.39285150635473   -1.16072352312733    3.25924194140749
C         0.96166381415901   -0.68569541650450    3.23425482241520
C         0.96173492456783    0.68551582310803    3.23433929109159
C        -0.39277358762541    1.16060987847669    3.25932484933391
C         2.30706202278162   -2.56539975740170    0.57570597988173
C         3.15013611818858   -1.39535119479799    0.57478106371277
C         2.95027772730067   -0.68361048834483    1.79711452150461
C         2.09191207920034   -1.51488950062023    2.72686848506678
C         1.57591626709411   -2.58944266638455    1.79404078124691
C         3.15024528641696    1.39515439734358    0.57486775949957
C         2.30720984985942    2.56523389859948    0.57582989486448
C         1.57606524654552    2.58926429041487    1.79416715873653
C         2.09202588008047    1.51467054514793    2.72697420411121
C         2.95041337452291    0.68339626151478    1.79722117273391
C        -0.35985502591796    3.42254666119414    0.56944359760959
C        -1.73098303796906    2.98291378381040    0.56793636034178
C        -1.98198751422141    2.27021590215770    1.78833699299292
C        -0.74874069591156    2.27210477042578    2.56388216546615
C         0.25716715639997    2.98369834539803    1.78710488527450
C        -3.37629702795742    0.72044805258698    0.56431083800895
C        -3.37633336333058   -0.72032507767492    0.56427845113216
C        -2.79679947703919   -1.16523434795983    1.78853873284957
C        -2.65353422914618    0.00000083650354    2.74516215348588
C        -2.79673371755201    1.16527839944836    1.78858646892502
C        -1.73114859224232   -2.98288127777389    0.56780235257103
C        -0.36004403039487   -3.42258578084601    0.56929043388991
C         0.25699928224437   -2.98381322265271    1.78696932023198
C        -0.74886953633666   -2.27219158959232    2.56377604715155
C        -1.98211788680991   -2.27022049615757    1.78823448262670
C        -0.24781312314052   -3.00747392663748   -1.84724702673407
C         0.74414189559999   -2.28948716794744   -2.60577402443253
C         1.96619926555386   -2.28689891513027   -1.84246239113919
C         1.72803380186231   -3.00359297785756   -0.61563755266297
C         0.36599960286741   -3.44526831839203   -0.61731419900308
C         2.78226906696906   -1.16466876434166   -1.84329796442035
C         2.40670190174821   -0.00001809498242   -2.60325125147474
C         2.78232635716277    1.16457793827419   -1.84323845069575
C         3.38762302128267    0.71541499815393   -0.61424873617462
C         3.38759252814436   -0.71558008847278   -0.61429406731738
C         1.96631959790060    2.28685061491516   -1.84235842142193
C         0.74426430752661    2.28953278824525   -2.60567161307694
C        -0.24765178552854    3.00753608471978   -1.84711285399830
C         0.36618511240774    3.44524189577949   -0.61716022827868
C         1.72819651011437    3.00349534130447   -0.61549838793931
C        -1.56724568766020    2.57897527741224   -1.84867418005909
C        -1.94618903509759    1.41445811374300   -2.60901649476771
C        -2.93630464872694    0.69330522936920   -1.85282749994143
C        -3.16537663340843    1.41428649319081   -0.62272248036757
C        -2.32378796929291    2.57277538500776   -0.62174892590392
C        -2.93635578231189   -0.69310868383411   -1.85286931873491
C        -1.94626877389670   -1.41427763608106   -2.60908497432320
C        -1.56738492891370   -2.57884746044048   -1.84879103608933
C        -2.32392907366755   -2.57266065281467   -0.62186664434765
C        -3.16545764150001   -1.41412566467565   -0.62278831713830
C        -0.98929692241993   -0.72032581979000   -3.34125008488442
C        -0.98925217730459    0.72048834401958   -3.34120890766072
C         0.38046053231278    1.16582497751577   -3.33887705227402
C         1.22695868841471    0.00002509670187   -3.33851371583494
C         0.38039770800499   -1.16573104380913   -3.33893049770694
Cl       -1.59295852412153   -0.00009853245701    5.34060608116422
Cl       -4.10406467602270    0.00001190395699    3.82739665524709
Cl        3.03838006119551   -2.20971567187195    4.10709472347604
Cl        3.03847593265342    2.20947230720912    4.10723424955253
