64
 energy: -146.703216963582 gnorm: 0.000139355399 xtb: 6.4.1 (a3dbbd7)
C        -1.29970061428130    0.01214619068428    3.54670262855769
C        -0.36249759512977   -1.14508548864053    3.24017770422193
C         0.91795685210394   -0.71875438094393    3.20732967890302
C         0.95155572461366    0.73318584663506    3.22925916740075
C        -0.39185295129396    1.19067618616377    3.26908360127567
C         2.30440722521541   -2.56324489340842    0.57222586757418
C         3.15224153669268   -1.39747606802542    0.57523164559227
C         2.94385015613544   -0.69159710511664    1.79474689102232
C         2.07797727014237   -1.52169612860020    2.72188855613281
C         1.56496343778019   -2.59847230144072    1.79331897821907
C         3.16597521044994    1.40791382250518    0.57281724659151
C         2.32444472240449    2.58037430264471    0.57415198222832
C         1.56802037985641    2.58764438618527    1.80072624565685
C         1.93169801119342    1.42865378773443    2.54964183945092
C         2.92896750197606    0.68287048132263    1.78804684591787
C        -0.36768761255062    3.45397398868467    0.57013032363363
C        -1.73980916251503    3.01134320431982    0.56503647504068
C        -1.98743074935399    2.30054526430552    1.78830707827038
C        -0.74758456082530    2.30955972193779    2.56044850981740
C         0.23940837848115    3.01799809412573    1.80023394120646
C        -3.35662181694135    0.72931735729243    0.56771558262119
C        -3.33892154122508   -0.70849137868322    0.56978278377321
C        -2.74313273686993   -1.15383207800377    1.79036349080345
C        -2.62843131542594    0.01400428593283    2.74582706974433
C        -2.78008462215312    1.18281675101214    1.78973668530761
C        -1.71238119132684   -2.96494147274197    0.56997182723584
C        -0.34742583627886   -3.42006468611897    0.57115416273140
C         0.26395639103640   -3.01986700125807    1.79806766460463
C        -0.79634872935266   -2.47355110611811    2.73931153946782
C        -1.96028956334698   -2.27073662854608    1.79475830310625
C        -0.23908624978353   -3.00076126492427   -1.85007410214233
C         0.75179676987881   -2.28242062393608   -2.60796850082258
C         1.97657469874320   -2.28136331016469   -1.84610847835485
C         1.73400948184391   -2.99746080245577   -0.61948776698071
C         0.37255452123976   -3.43784457626497   -0.61959757537165
C         2.79022298920780   -1.15841315481178   -1.84243220663473
C         2.41516854783542    0.00753220228796   -2.60079045096897
C         2.79352056621065    1.17184518796957   -1.83948234391126
C         3.40217661554115    0.72215237072186   -0.61382220815846
C         3.39648847000714   -0.71156865380842   -0.61266376881150
C         1.97394052223508    2.29282234657026   -1.83391623807357
C         0.75043647811482    2.29485482508279   -2.59334199945598
C        -0.24251419456545    3.01539409213976   -1.83827465837413
C         0.36511224909343    3.45703706968608   -0.60869073765961
C         1.73739371955774    3.01006652009720   -0.60636510126528
C        -1.56467026542302    2.59138741446850   -1.84761161561731
C        -1.94019689660970    1.42476796883606   -2.60757204902911
C        -2.92955731706965    0.70288813053358   -1.84973268972472
C        -3.15894857098279    1.42418226017063   -0.62198410970953
C        -2.32493740177396    2.58987888759584   -0.62435216017151
C        -2.92811010955644   -0.68397511694545   -1.84954609250860
C        -1.93870194016215   -1.40759370866750   -2.61012126410865
C        -1.55839527356076   -2.57095468689940   -1.85134549724798
C        -2.30576869347295   -2.55927651653035   -0.61945989721753
C        -3.14465596814041   -1.40045055213801   -0.61888132011641
C        -0.98250615993281   -0.71187935143210   -3.33956650727540
C        -0.98274238175677    0.72989072993582   -3.33592419360482
C         0.38756435709184    1.17409588572287   -3.33073024820996
C         1.23466536078578    0.00891587290516   -3.33296214749152
C         0.38765558669067   -1.15752924603284   -3.33807317098164
Cl       -1.57718798888837   -0.03272179475417    5.33457882319975
Cl       -4.08935681896818    0.00426808668851    3.81109835603382
Cl        3.01837432113017   -2.18603935994171    4.11497229593853
Cl       -1.18861968297099   -3.61726349825993    4.08303532064865
