66
 energy: -155.832320095212 gnorm: 0.000316535326 xtb: 6.4.1 (a3dbbd7)
C        -1.28921659319161   -0.00125270108131    3.50491925661799
C        -0.37008845505510   -1.17431738774499    3.22108948742749
C         0.89945225156892   -0.72779365604122    3.14790897138769
C         0.89947711388284    0.72549468607735    3.14823101397609
C        -0.37008619083887    1.17194794768925    3.22160190365694
C         2.29583540385159   -2.56848827212775    0.56166719872932
C         3.13107301480662   -1.39463833397268    0.56532165934294
C         2.91897131762806   -0.68559068685875    1.78499874537128
C         2.07166218516499   -1.53102015669281    2.71123748964431
C         1.56140138129107   -2.61407246803155    1.78452312319575
C         3.13109146518388    1.39358220387985    0.56596751258654
C         2.29579041481243    2.56739380864435    0.56283835673203
C         1.56135736525685    2.61240232250453    1.78571264226698
C         2.07169179383341    1.52895755433740    2.71193651372342
C         2.91918491113315    0.68401041897721    1.78538233798062
C        -0.34973068752613    3.43721344236787    0.56323644028473
C        -1.71493724143795    2.98133401885004    0.56273499017583
C        -1.96404086831318    2.29192912874897    1.79011442797045
C        -0.80252736595514    2.50549973946949    2.73838899322293
C         0.26192341742957    3.04250374936264    1.79191292384869
C        -3.32888113983224    0.71808132079763    0.56539819204913
C        -3.32882189918354   -0.71933253090344    0.56505609362139
C        -2.74091457849126   -1.17148800859251    1.78488750262430
C        -2.62330477267106   -0.00111159836867    2.73894236373202
C        -2.74098535710792    1.16970900597470    1.78544190015064
C        -1.71487366681930   -2.98255653651699    0.56137821298379
C        -0.34965304686863   -3.43840179041934    0.56168034725312
C         0.26198715673750   -3.04422828283250    1.79053663056544
C        -0.80247239350659   -2.50767751433027    2.73726184018431
C        -1.96398389554968   -2.29371125894949    1.78907412960533
C        -0.24258453891379   -3.01057658213779   -1.85983421413745
C         0.74786657417338   -2.29042300547353   -2.61912485071874
C         1.97045482773092   -2.28865410101130   -1.85816938937631
C         1.72950644826036   -3.00583152548789   -0.63069189486795
C         0.36961580754415   -3.44994781383108   -0.63058175340869
C         2.78351134563775   -1.16501144662461   -1.85560923237070
C         2.40972219404498    0.00015917721772   -2.61592437700277
C         2.78346963778920    1.16500688483158   -1.85508986272401
C         3.37921121632617    0.71487719450629   -0.62230060053221
C         3.37927488954983   -0.71541692369727   -0.62262887883603
C         1.97040234458995    2.28863370381154   -1.85714048062415
C         0.74782552143858    2.29069843786396   -2.61809980632633
C        -0.24263260261306    3.01048694636315   -1.85847601695028
C         0.36953923027608    3.44932585758353   -0.62902040600226
C         1.72943023017824    3.00523711054219   -0.62932847022802
C        -1.56100023004916    2.58116806265994   -1.85886934284945
C        -1.94153889970448    1.41642778027595   -2.61766448382562
C        -2.92704311623513    0.69373322972839   -1.85542077879571
C        -3.14319908019079    1.41047400423171   -0.62437586927996
C        -2.30763304562095    2.57155616744456   -0.62634626125187
C        -2.92721377128955   -0.69394340752394   -1.85579505186822
C        -1.94159504228504   -1.41624407062286   -2.61832174345332
C        -1.56098304038619   -2.58130744169732   -1.86004607460909
C        -2.30760514511068   -2.57226719868129   -0.62751533324872
C        -3.14322759408813   -1.41121784400115   -0.62502698797307
C        -0.98697414981434   -0.72031435377662   -3.35096161879154
C        -0.98693338736863    0.72086030835077   -3.35063977910902
C         0.38324327361938    1.16644597206613   -3.35053007043710
C         1.22956054501092    0.00029652727323   -3.35042409211287
C         0.38323833144023   -1.16586007195854   -3.35104708385232
Cl       -1.52259225439542   -0.00160803664611    5.29566387619395
Cl       -4.07064328788092   -0.00144911275572    3.81543691075955
Cl        2.98946119309342   -2.16955226867005    4.12267602101126
Cl        2.98935509306693    2.16696270639092    4.12371217226102
Cl       -1.19536535897144    3.65536361049345    4.07073654743567
Cl       -1.19526961078741   -3.65814324998865    4.06908163363484
