62
 energy: -137.573669528732 gnorm: 0.049220098478 xtb: 6.4.1 (a3dbbd7)
C        -1.30074447432744    0.01273662814723    3.55230433827030
C        -0.37759056833136   -1.15054729822225    3.30531408515480
C         0.98240950938927   -0.71308453827357    3.27102231420781
C         0.97635856778600    0.72131119547122    3.25333382481321
C        -0.37754655269275    1.17704053360796    3.29526977327899
C         2.33248294445552   -2.56812790680809    0.57184684453546
C         3.18871090579716   -1.41637982548958    0.56380287561528
C         2.94170184418525   -0.69738903823124    1.78725168914420
C         1.94218331267562   -1.40119281898657    2.53959176805512
C         1.57432156301008   -2.56064833228014    1.79196105086513
C         3.19508552021284    1.39923154361311    0.55691075721725
C         2.33592120510865    2.55208681376227    0.56364954703022
C         1.56807446413717    2.54239107250176    1.77596500760714
C         1.94270575614025    1.39055540239378    2.52546469927241
C         2.94394435306649    0.68376372962113    1.77897858639721
C        -0.35963725702039    3.41720224075306    0.58482369766988
C        -1.72682900947153    3.00326735919777    0.60407288256464
C        -2.09647362130982    2.46287322987148    1.95949885644084
C        -0.73483558193089    2.27669917216715    2.58037675313821
C         0.24962088212500    2.95714504821705    1.79922299006138
C        -3.37908984097737    0.69626407097154    0.56886377609261
C        -3.37700916517913   -0.73203810152759    0.56377177304502
C        -2.77271711005714   -1.17004758954371    1.78166328214471
C        -2.37893103998474    0.02914884016264    2.52445797863048
C        -2.73532407081939    1.12538189242739    1.81239319120746
C        -1.73269334185826   -2.99595204513178    0.57786952084076
C        -0.36168641055432   -3.42170624099747    0.58576460995185
C         0.24865354288171   -2.95701786338138    1.80333134270456
C        -0.72797094722608   -2.24907391646843    2.57432188710329
C        -1.96964748024268   -2.27015682857587    1.78965869616162
C        -0.24063099488237   -3.00004480610179   -1.82199470851413
C         0.75028615209572   -2.28586682493213   -2.57873154884883
C         1.97325601769801   -2.28502507127290   -1.82524049732210
C         1.73758116211632   -2.99695963027387   -0.60134704732563
C         0.36663290985981   -3.42895422920106   -0.58992761759519
C         2.79624496203940   -1.17095408779934   -1.83472935606619
C         2.41901578610499   -0.00803150741411   -2.59189424985844
C         2.80324751363360    1.15498791998418   -1.83903690681966
C         3.42185114771925    0.71018492885399   -0.61903305394347
C         3.41357472876851   -0.72764910386268   -0.61433337443913
C         1.99038457743210    2.27388032207385   -1.83628683381303
C         0.76042167895083    2.27247002530159   -2.57653925341510
C        -0.22706824606504    2.98331685686396   -1.81285859127545
C         0.37623340125712    3.41579639893189   -0.59322191771082
C         1.74478341767736    2.98455305968392   -0.60748557257595
C        -1.54098916728197    2.55120421135989   -1.77770311299450
C        -1.92881846229897    1.40049593640392   -2.54954856352597
C        -2.92640932006769    0.67906263412073   -1.81084427856123
C        -3.15626448289870    1.38391585386609   -0.58552964455607
C        -2.29387950858810    2.57216794552766   -0.56028765299285
C        -2.93285108528632   -0.70927825198481   -1.82970433550872
C        -1.93639541418129   -1.42106518225602   -2.58794518439786
C        -1.55821770231993   -2.58530322357519   -1.83073409700110
C        -2.32316183162712   -2.58531065897481   -0.61014338807501
C        -3.17316074928103   -1.43193915218628   -0.61577340839651
C        -0.98042183577056   -0.72496877924013   -3.30261424400869
C        -0.97970528437300    0.71403460619723   -3.28503055101973
C         0.38894247311758    1.15473443332112   -3.30302316926686
C         1.23362134685234   -0.00605886858294   -3.30920623065387
C         0.38690618048430   -1.16688963070575   -3.30748780061257
Cl       -2.02391544243569    0.03901224926413    5.21503665676032
Cl       -3.16507078336840    3.56758677694661    2.92218967409790
62
 energy: -137.577512371801 gnorm: 0.020567004419 xtb: 6.4.1 (a3dbbd7)
C        -1.29432026214442    0.00703685473409    3.54828860203303
C        -0.37175806689034   -1.16692144804973    3.30895388370205
C         0.98458410628647   -0.72012237906183    3.27591265500819
C         0.98209023069618    0.72031863052615    3.26591508932488
C        -0.37122380137146    1.18078079629671    3.30308915957693
C         2.33704977390295   -2.58133064402852    0.57662961982457
C         3.18934351037455   -1.42003420048681    0.57357938256847
C         2.94926156041848   -0.69906893069112    1.79858456505732
C         1.94965448257903   -1.41232747716467    2.54986065725080
C         1.57926690175910   -2.57611105117422    1.80009339086300
C         3.19256511787220    1.40745391479083    0.57028921986155
C         2.33961656218992    2.56885225141025    0.57195101433208
C         1.57514831249917    2.55895903636975    1.79065346327410
C         1.95138892185118    1.40170902599974    2.54299132254719
C         2.95141064800058    0.68739159316979    1.79494756723296
C        -0.36285053791945    3.42649565199561    0.58068334379736
C        -1.73073055274935    3.01570395208484    0.59028902613108
C        -2.09288929047890    2.46473458468648    1.95101948784395
C        -0.73042207309673    2.28599267807024    2.58487654640208
C         0.25021997698102    2.97212151591808    1.80233022939780
C        -3.37918634587919    0.70092067600964    0.57263271127320
C        -3.38859773526185   -0.73247976714458    0.56806756892236
C        -2.77187317297329   -1.16754073048794    1.78667813457192
C        -2.38376289546963    0.02778252891209    2.52920102489201
C        -2.74168360561908    1.12840876208704    1.81433286381853
C        -1.73477954486949   -3.00750959891426    0.57921852691678
C        -0.36151605653524   -3.44046841479965    0.58279235983811
C         0.25155817875863   -2.98315736802316    1.80449374807321
C        -0.72761121478673   -2.26747971636275    2.56977399348806
C        -1.97126689331361   -2.28283689650205    1.79535223089716
C        -0.24389664971182   -3.01008576047173   -1.82520864402315
C         0.74936118183188   -2.29190516109382   -2.58225335053950
C         1.97481576515856   -2.29104727546710   -1.82624076576966
C         1.74095698735583   -3.00843031612257   -0.60114442183952
C         0.36820896171383   -3.44710698849059   -0.59548960594871
C         2.79679243887582   -1.17121024639018   -1.83118065225565
C         2.41840568894350   -0.00597847724012   -2.58881853986015
C         2.80140386999508    1.15985523826359   -1.83417090579595
C         3.41829809818614    0.71431574102917   -0.61003804665070
C         3.41393849694287   -0.72694867064961   -0.60765326651176
C         1.98628879800081    2.28316997020625   -1.83350926293265
C         0.75702615899310    2.28208322547675   -2.58460726288255
C        -0.23204122752376    2.99811550773530   -1.82284531430679
C         0.37480541922349    3.43311520717377   -0.59966347457203
C         1.74727500646697    2.99929694173783   -0.60536392840733
C        -1.55050197510422    2.56274731355003   -1.79984503003200
C        -1.93587244607817    1.40435127173524   -2.56602817271176
C        -2.93396894546552    0.68345893815175   -1.81947060745224
C        -3.16543799760248    1.39311229349297   -0.59358071599249
C        -2.30120008717619    2.57582758686573   -0.57804832797238
C        -2.94095291943498   -0.70843735518814   -1.83284985820796
C        -1.94433333522182   -1.42341965199104   -2.59011684680473
C        -1.56518263112454   -2.59058176977509   -1.83149946060497
C        -2.32899308671068   -2.59155698990209   -0.60893096478066
C        -3.18025471741257   -1.43326371207509   -0.61466495965413
C        -0.98609464527847   -0.72644598199994   -3.30990301209229
C        -0.98430157283409    0.71510937612219   -3.30123022927676
C         0.38698449957942    1.15888861346137   -3.31046432324595
C         1.23250693820680   -0.00548874661060   -3.31250584294219
C         0.38480508228989   -1.16959906201378   -3.31216811349833
Cl       -1.98835528795229    0.01301143750513    5.22254372009311
Cl       -3.14970105787426    3.59461525211023    2.89521733773656
62
 energy: -137.577989942135 gnorm: 0.006682051068 xtb: 6.4.1 (a3dbbd7)
C        -1.29429314332242    0.00433203954758    3.54594283145993
C        -0.36870408654627   -1.17191984951102    3.30683338143928
C         0.98436970132192   -0.72206034208972    3.27598651943524
C         0.98317391048283    0.71980738339806    3.26976218151568
C        -0.36962469612072    1.17997993645879    3.30231643632943
C         2.33760132719867   -2.58603266279806    0.57912180655686
C         3.18790166041008   -1.42058401568126    0.57746033839590
C         2.95063859338635   -0.69908297953492    1.80169446376588
C         1.95296029941706   -1.41683541305726    2.55493096067384
C         1.58043224760015   -2.58085903504708    1.80437142077202
C         3.18985951787404    1.41006970768754    0.57542219700278
C         2.33968874123379    2.57425236424402    0.57539189271338
C         1.57788103167974    2.56587509354251    1.79808787091652
C         1.95437916879310    1.40736674033497    2.55093546903474
C         2.95244997978711    0.68873224585556    1.80064931019281
C        -0.36416291797530    3.42805099408292    0.57914766739547
C        -1.73006948294501    3.01768082177096    0.58422826539191
C        -2.09360157934989    2.46402126137613    1.94759578370184
C        -0.72932799446245    2.28679584212836    2.58315531019822
C         0.24976418574598    2.97671738800545    1.80321334434676
C        -3.37674681733119    0.70281190529997    0.57477483783163
C        -3.39134101343156   -0.73263116720851    0.56884141168520
C        -2.76964077087829   -1.16491207577217    1.78835644073733
C        -2.38741696207323    0.02584425805223    2.53138044895620
C        -2.74623490984271    1.12953536890297    1.81439733159622
C        -1.73507222346689   -3.01064431624292    0.57957738728153
C        -0.36147626738693   -3.44719366002824    0.58179344752233
C         0.25239427407704   -2.99387065285648    1.80526554967408
C        -0.72822667847189   -2.27291213111844    2.56535914369756
C        -1.97160311817932   -2.28723842288721    1.79802874236331
C        -0.24452968611092   -3.01422214206532   -1.82638955436570
C         0.74911504559518   -2.29358056266520   -2.58308400740468
C         1.97481419395336   -2.29305371638890   -1.82589130584578
C         1.74182902452589   -3.01218704830680   -0.60011567973279
C         0.36877918834738   -3.45436543419011   -0.59753402029428
C         2.79523058136313   -1.17098568327584   -1.82893906308927
C         2.41650085381101   -0.00539259040170   -2.58637087004689
C         2.79900272119794    1.16100164646204   -1.83135525613637
C         3.41492108632623    0.71539278743675   -0.60623366195172
C         3.41224036706719   -0.72646608640817   -0.60480253824485
C         1.98358025563524    2.28575527826556   -1.83107053771665
C         0.75463953121119    2.28561063447200   -2.58662961559757
C        -0.23437484972556    3.00417149886228   -1.82496146861631
C         0.37430018767026    3.44127835516812   -0.60205280337902
C         1.74760115661342    3.00319455910316   -0.60417624704383
C        -1.55478007326090    2.56766510756756   -1.80877491535426
C        -1.93843688324528    1.40587041902853   -2.57187297155931
C        -2.93587598439170    0.68487155946217   -1.82189522703687
C        -3.16878797940735    1.39716076083957   -0.59620189216776
C        -2.30329647338759    2.57431689686280   -0.58454249239683
C        -2.94216108914367   -0.70788387629358   -1.83422983064382
C        -1.94585430780917   -1.42400337866754   -2.59094035476756
C        -1.56634506966256   -2.59204949158332   -1.83191719349264
C        -2.32946575747554   -2.59337896312442   -0.60891567520217
C        -3.17994545016605   -1.43297752055941   -0.61455635118732
C        -0.98786098657926   -0.72663341305565   -3.31296363999539
C        -0.98620580417188    0.71559869623008   -3.30737475879302
C         0.38587432194315    1.16079371951285   -3.31191296081588
C         1.23139954216417   -0.00505320190711   -3.31276760425784
C         0.38417439560408   -1.17036258897939   -3.31304895608776
Cl       -1.96328568985770   -0.00465554265187    5.23112593890134
Cl       -3.13927730178866    3.61631427370194    2.87812186072436
62
 energy: -137.578027315357 gnorm: 0.002357682073 xtb: 6.4.1 (a3dbbd7)
C        -1.29501553262123    0.00393937660310    3.54506609008347
C        -0.36798749356123   -1.17245885796060    3.30552447379011
C         0.98367252352466   -0.72212845885589    3.27526846662839
C         0.98238034670552    0.71959415271255    3.26970285478129
C        -0.37001895442532    1.17952892641896    3.30162003498681
C         2.33702188129798   -2.58619125949803    0.57946661396292
C         3.18703108170589   -1.42014645161652    0.57780792434812
C         2.95010999799459   -0.69890467663105    1.80144639981870
C         1.95337439517836   -1.41758686289934    2.55589481855962
C         1.58011711256589   -2.58063734307328    1.80507796854826
C         3.18850841509312    1.40996009413330    0.57589356850151
C         2.33885610819089    2.57425265095971    0.57576510653249
C         1.57764315266175    2.56638552744016    1.79941855042078
C         1.95397304807670    1.40825342426344    2.55199639341881
C         2.95155181938378    0.68868890710555    1.80103284599474
C        -0.36461046258815    3.42726272846802    0.57891663094762
C        -1.72936387514788    3.01718135735556    0.58295488533198
C        -2.09414609022831    2.46315642213864    1.94703925899576
C        -0.72965399368265    2.28623339834976    2.58249571371857
C         0.24903193081471    2.97645471580383    1.80317359328576
C        -3.37522527698181    0.70316239332907    0.57544747106141
C        -3.39062904444475   -0.73253858985390    0.56860095229461
C        -2.76845966406730   -1.16378585799855    1.78858979964804
C        -2.38859700523507    0.02501618087230    2.53221679434820
C        -2.74771326814028    1.12996044632747    1.81429032953783
C        -1.73487471728658   -3.01040562046377    0.57944330210120
C        -0.36147316488932   -3.44750967327685    0.58165213061314
C         0.25236347509053   -2.99513632302247    1.80535862854582
C        -0.72873049541810   -2.27339097291581    2.56436205865793
C        -1.97133964921439   -2.28748364368683    1.79849236720493
C        -0.24432576882954   -3.01466533343568   -1.82658780557482
C         0.74926688726256   -2.29342732745237   -2.58305971579680
C         1.97464955540357   -2.29298067952262   -1.82564476655305
C         1.74166248830323   -3.01208068677625   -0.59971447832754
C         0.36874891369597   -3.45499509368906   -0.59778938379407
C         2.79457783035490   -1.17076812631109   -1.82847816357793
C         2.41589427494614   -0.00541059522376   -2.58573033744448
C         2.79828861662506    1.16083027213679   -1.83073518309046
C         3.41384986480370    0.71530125837882   -0.60575829509430
C         3.41148739374124   -0.72624807884319   -0.60447272181289
C         1.98291006208858    2.28548882269465   -1.83021391562281
C         0.75396103502030    2.28566465696614   -2.58637057729054
C        -0.23474237470723    3.00461239494984   -1.82436627093337
C         0.37409966123235    3.44266721221885   -0.60241880080982
C         1.74731017710210    3.00277305819545   -0.60399180666773
C        -1.55537509900221    2.56818730927922   -1.80983998369450
C        -1.93852737660482    1.40590541750676   -2.57222073031308
C        -2.93558497959110    0.68480247162937   -1.82181880506400
C        -3.16884136270914    1.39781408333803   -0.59632156309939
C        -2.30369423445337    2.57350806588310   -0.58529483434340
C        -2.94143128214514   -0.70774453736425   -1.83444406630684
C        -1.94532708700524   -1.42397991450680   -2.59107867711665
C        -1.56581313392090   -2.59195288546394   -1.83209943445629
C        -2.32873696736130   -2.59329709351708   -0.60912896375118
C        -3.17839235373558   -1.43241581443334   -0.61449215462486
C        -0.98780078598692   -0.72658432061321   -3.31341841059271
C        -0.98640587484505    0.71552718176238   -3.30788691073662
C         0.38567084681682    1.16096846937664   -3.31143113418576
C         1.23117968956590   -0.00497601861281   -3.31241101111544
C         0.38434223095754   -1.17034334703022   -3.31285635284289
Cl       -1.95585614861077   -0.00820694748844    5.23348374996510
Cl       -3.13537025469483    3.62214159474532    2.87432401698577
62
 energy: -137.578032624453 gnorm: 0.000483732001 xtb: 6.4.1 (a3dbbd7)
C        -1.29546419063377    0.00401377987638    3.54482032236997
C        -0.36778896196776   -1.17239480465620    3.30500034851028
C         0.98327794939868   -0.72198795113924    3.27487976053296
C         0.98186253574355    0.71953091911247    3.26939768846113
C        -0.37037194382322    1.17932154730927    3.30128325873592
C         2.33662425773902   -2.58584817965443    0.57941215727026
C         3.18671587987219   -1.41982571043742    0.57765932899041
C         2.94979305926645   -0.69880943291651    1.80104693943187
C         1.95334660281901   -1.41767520048497    2.55601397400690
C         1.57981491282253   -2.58003105187869    1.80510533471618
C         3.18797822132424    1.40966834696455    0.57570347501893
C         2.33842802386857    2.57383166284270    0.57565286374865
C         1.57726681815085    2.56604001526074    1.79952559575218
C         1.95346497918360    1.40827379916964    2.55187978854540
C         2.95102351721555    0.68853679639792    1.80077559082563
C        -0.36476638302479    3.42667885343261    0.57893993621783
C        -1.72900495984705    3.01679880015887    0.58270488167826
C        -2.09439948143495    2.46271944827240    1.94709722150191
C        -0.72992524774437    2.28584175756723    2.58224132318125
C         0.24866913347325    2.97596235828383    1.80310093187448
C        -3.37453660691785    0.70323929222445    0.57568541024305
C        -3.38994281548741   -0.73247636108979    0.56838076061835
C        -2.76797324472241   -1.16335245950887    1.78864557663482
C        -2.38892356415554    0.02465223290463    2.53260164190509
C        -2.74817220147614    1.13020111417029    1.81420169464509
C        -1.73476352444976   -3.01000499875000    0.57934457939040
C        -0.36147654661041   -3.44708793710309    0.58168097198926
C         0.25228326058208   -2.99496073743201    1.80537754646178
C        -0.72905629288531   -2.27334678396428    2.56432862772146
C        -1.97124061744617   -2.28731584762158    1.79857714698298
C        -0.24419665391509   -3.01457422835246   -1.82660793578207
C         0.74940014243385   -2.29322011900896   -2.58301585808339
C         1.97458638525734   -2.29276544015387   -1.82558179311201
C         1.74147138457481   -3.01165720674970   -0.59958724091714
C         0.36863882630896   -3.45470168965325   -0.59775744596885
C         2.79446262749797   -1.17067741440329   -1.82848411692475
C         2.41583947299974   -0.00547528732281   -2.58566432552917
C         2.79823599133185    1.16067566864522   -1.83069259082428
C         3.41368729450621    0.71517931864230   -0.60586262666736
C         3.41135328868618   -0.72616451491376   -0.60456541042495
C         1.98283290829614    2.28513069301393   -1.82994735813666
C         0.75379056387871    2.28535404700584   -2.58605386586951
C        -0.23473316977571    3.00430230649738   -1.82378669524078
C         0.37402479399664    3.44277239647569   -0.60246667030210
C         1.74719672623567    3.00224709893150   -0.60402309584354
C        -1.55535164715581    2.56809631062231   -1.80969287249150
C        -1.93835336465501    1.40580852583039   -2.57189775603424
C        -2.93528147881642    0.68463888358600   -1.82156612658579
C        -3.16868779888336    1.39786869443840   -0.59618573163020
C        -2.30391463530692    2.57330824171315   -0.58519792436591
C        -2.94098099861562   -0.70771471628152   -1.83445310260075
C        -1.94496204863629   -1.42395000841627   -2.59110944645971
C        -1.56547891454482   -2.59180947079099   -1.83218929297109
C        -2.32834132120876   -2.59312961275010   -0.60923657542366
C        -3.17756714386830   -1.43209674772797   -0.61440951346564
C        -0.98765043731986   -0.72656117749920   -3.31342722695086
C        -0.98638017867628    0.71542087781035   -3.30763424794457
C         0.38566016176139    1.16087865404149   -3.31102389360291
C         1.23119812663977   -0.00499522928997   -3.31223256602598
C         0.38451759612494   -1.17028460882305   -3.31272589911539
Cl       -1.95413034128410   -0.00843222745563    5.23387567762040
Cl       -3.13415768263164    3.62317629433380    2.87388738869712
62
 energy: -137.578032820059 gnorm: 0.000157037690 xtb: 6.4.1 (a3dbbd7)
C        -1.29555128995879    0.00413901569197    3.54488658411889
C        -0.36776135286800   -1.17234113136541    3.30499802118895
C         0.98321378850654   -0.72192097425751    3.27486118481437
C         0.98180233979479    0.71955332451920    3.26934002134633
C        -0.37043965610415    1.17931480157543    3.30128361543255
C         2.33654155070594   -2.58569279342372    0.57932421760239
C         3.18673744810997   -1.41975522666328    0.57755474192471
C         2.94978852446473   -0.69880139185585    1.80093383233040
C         1.95328017277578   -1.41764092480096    2.55592869040294
C         1.57972230040030   -2.57979653628567    1.80502497126022
C         3.18796848307936    1.40957363625195    0.57556209699870
C         2.33840742152929    2.57369047275567    0.57554772730609
C         1.57716059359516    2.56582233024309    1.79939212175073
C         1.95332598607613    1.40817401552325    2.55168088323391
C         2.95098138643316    0.68848162297386    1.80063081641407
C        -0.36477687820301    3.42658425365318    0.57899775354989
C        -1.72894430207533    3.01677466377906    0.58274146680796
C        -2.09441913575572    2.46267886286601    1.94724727672326
C        -0.72997350394984    2.28579757764909    2.58225203998203
C         0.24864860968863    2.97585794514289    1.80310479334371
C        -3.37444486667752    0.70324332715393    0.57569513113496
C        -3.38974442201721   -0.73247603804267    0.56830351280013
C        -2.76792594069212   -1.16333250834208    1.78866326860677
C        -2.38883510467775    0.02458534817426    2.53264203517400
C        -2.74811405441870    1.13026971547203    1.81413223196648
C        -1.73475246046872   -3.00990028448321    0.57932844367149
C        -0.36147434496615   -3.44688891148004    0.58173026019680
C         0.25225973695999   -2.99475101597504    1.80539762705777
C        -0.72916493923668   -2.27335565689739    2.56454950776944
C        -1.97128486476689   -2.28727169220306    1.79856973909582
C        -0.24419655336016   -3.01449435303848   -1.82658840579801
C         0.74943944404165   -2.29317590773246   -2.58302158614588
C         1.97458762751051   -2.29269349726278   -1.82561051117684
C         1.74141169105546   -3.01149849060057   -0.59959512787394
C         0.36857449685111   -3.45450042600166   -0.59771306230857
C         2.79455216309034   -1.17068046674693   -1.82858175758309
C         2.41594644041682   -0.00550110847862   -2.58576293424403
C         2.79837455671054    1.16066472939994   -1.83079079782371
C         3.41384836551202    0.71515753691147   -0.60598910422974
C         3.41147027911544   -0.72616600164793   -0.60465510515806
C         1.98292266419265    2.28504282622154   -1.82996556527013
C         0.75381729352410    2.28521048456653   -2.58597742492689
C        -0.23468093128265    3.00411015898980   -1.82361067165055
C         0.37401370460170    3.44263584496767   -0.60246517442984
C         1.74722940445102    3.00212942386631   -0.60407390466406
C        -1.55527664238562    2.56802148130742   -1.80950648964108
C        -1.93827876499863    1.40578691060663   -2.57172566986216
C        -2.93521917109778    0.68459105766193   -1.82149230125906
C        -3.16869465115992    1.39782007965917   -0.59614313880954
C        -2.30405135916359    2.57342604889014   -0.58507615756269
C        -2.94094472567037   -0.70771901111846   -1.83444372046526
C        -1.94492902349749   -1.42396138410130   -2.59111677376683
C        -1.56545881124127   -2.59179181094716   -1.83221357177607
C        -2.32831369329751   -2.59311144813189   -0.60924280981485
C        -3.17748191142996   -1.43204540507769   -0.61436473453825
C        -0.98762622953301   -0.72656400563164   -3.31337648186978
C        -0.98636394309856    0.71537601131184   -3.30746188533813
C         0.38568266241503    1.16081412477177   -3.31092800308144
C         1.23124536961881   -0.00502718360273   -3.31222779713299
C         0.38456885586636   -1.17027331531731   -3.31272741183597
Cl       -1.95463049015751   -0.00797619777374    5.23360322583566
Cl       -3.13429829881387    3.62261904603603    2.87428877918148
