108
 energy: -324.517190091861 gnorm: 0.000400266487 xtb: 6.4.1 (a3dbbd7)
C        -1.34971059051182    0.00310789610126    3.61476846233615
C        -0.41603275536953   -1.16703090336013    3.38818511348866
C         1.03052809285366   -0.75738774088406    3.52526337988811
C         0.97821237828121    0.74185127237068    3.28204737588642
C        -0.39502396995463    1.16390102988466    3.31737597655529
C         2.26070497107082   -2.58760074810583    0.54514860943966
C         3.33922093640280   -1.52848039918551    0.61336264903150
C         2.85546710057210   -0.70856577763965    1.80375147510707
C         1.90172526288456   -1.37020677265339    2.47525019788611
C         1.49771215091646   -2.54966607008536    1.74086338525259
C         3.01243173324197    1.40408286787148    0.59611473387871
C         2.26724195915794    2.52479853118577    0.61533294675823
C         1.71736155134866    2.81831009484251    2.01463156124835
C         1.93879233936882    1.43373446714278    2.64717544988611
C         3.12744697192199    0.75332017737855    1.97204734366288
C        -0.36848656977196    3.41614910475328    0.60162356164386
C        -1.71905404694087    2.94513991909846    0.59919462498142
C        -1.95543408156936    2.24134793643896    1.81228766600945
C        -0.75219013923880    2.24420949818584    2.58038725269830
C         0.21215184466710    3.27712897769641    2.00446811953441
C        -3.38867492220277    0.68122973391871    0.55891696467505
C        -3.41375839814130   -0.76240508579376    0.56243562033431
C        -2.78561179622849   -1.19042113801221    1.78949172541446
C        -2.42399792669784   -0.04077710392389    2.55796026088452
C        -2.74723368846511    1.08811516606663    1.78703787169599
C        -1.77211367064170   -3.04241678561638    0.58606696571605
C        -0.39423097949581   -3.46394107295059    0.57926509591346
C         0.21096060839034   -3.01798748948540    1.78569447879366
C        -0.83017002338293   -2.44660685795836    2.73575292126873
C        -2.01356448073087   -2.33151171456557    1.79135326982126
C        -0.28096970070984   -3.01196993860858   -1.82970894547597
C         0.72751026758534   -2.28320991452200   -2.59357288097013
C         1.91170676781797   -2.29655535313249   -1.87986743347730
C         1.68456349888674   -2.98734912877377   -0.63384445834812
C         0.33088066839400   -3.46086923044789   -0.61189669732858
C         2.98527826350718   -1.25249114285546   -2.02099255578039
C         2.46859062590575   -0.00595248002597   -2.72603183740008
C         2.91554871865276    1.20914340135759   -1.96444628030441
C         3.23727509132092    0.63432726888813   -0.59585282311772
C         3.31970948957482   -0.70478450442028   -0.63577984546510
C         1.95415507115904    2.32909213351047   -1.84006532176167
C         0.74506702086438    2.24064095385383   -2.51333574110982
C        -0.25765166466918    2.95366032679901   -1.76331769493426
C         0.33626904267504    3.42797497921292   -0.56094453423903
C         1.84401817504168    3.24453056739195   -0.63334125185476
C        -1.57910661746309    2.52186144162867   -1.79342613658151
C        -1.95862578035615    1.40913359014157   -2.59063790890520
C        -3.18491424347460    0.74246230614393   -1.97662262286988
C        -3.20773100383889    1.39797353498370   -0.59568365546835
C        -2.33860918099484    2.52656738230056   -0.58468281180062
C        -2.94443261987632   -0.73555974881055   -1.84862619188477
C        -1.96967232521949   -1.41042582089817   -2.56572905193420
C        -1.59270078868188   -2.59926899524279   -1.82267213858410
C        -2.36204583104200   -2.62159776401290   -0.60835367823817
C        -3.18806725727427   -1.44862658276438   -0.61740587918232
C        -0.97263127523731   -0.73635612964148   -3.32973133567212
C        -0.97066180752379    0.71470897217215   -3.26602039520723
C         0.37376920598409    1.15711321446233   -3.31372347082158
C         1.29421918568693   -0.01449275054699   -3.65346992284339
C         0.33643128159772   -1.18267883792739   -3.38589561458808
C        -1.95226326217344    0.10597909794085    5.06237920280117
F        -1.41761052024772    1.11646197011778    5.74797233684130
F        -1.75165150911010   -1.01128782016063    5.75969592259464
F        -3.27076633031279    0.31480391527279    5.01233481012427
C         1.67027663943249   -1.03805027049397    4.92190138829759
F         0.91227077686028   -0.59587575715983    5.91576117577775
F         1.89455185453566   -2.33312340831916    5.10803575301619
F         2.84699715025126   -0.41457792916906    5.00173683027353
C         4.23236414150468   -1.88286438672157   -2.75507682382663
F         5.36987260513862   -1.60223150763151   -2.12756390701450
F         4.33491440318913   -1.43343878246952   -4.00237884930710
F         4.13100131782200   -3.20896338915374   -2.82101087510669
C         4.22979306109242    1.81563675300374   -2.58089846194827
F         5.15566888427274    0.89204589867781   -2.78090225003831
F         3.98555220887826    2.41672308089139   -3.73376467111200
F         4.73964356020161    2.71625172244826   -1.74764734700036
C         4.71209883417292   -2.21012291722227    0.86265246263527
F         4.74359484630449   -2.78985152544161    2.05923051055036
F         4.92182055669378   -3.16992223604107   -0.03964640371634
F         5.71882404527192   -1.35005863094722    0.78158137571974
C         2.68898866888719    3.82965437811443    2.71059677278703
F         3.94338931435275    3.59745495395309    2.31986898061443
F         2.45177101484080    5.09610889847698    2.39005190893574
F         2.65566462434174    3.71816179286111    4.03241093681910
C         2.55849131797241    4.62177601625819   -0.82509241037250
F         2.71978388952318    4.88739402869215   -2.12135142688898
F         3.75131131211569    4.66259845397404   -0.24690366100883
F         1.82926252402701    5.61130453034603   -0.31194141221259
C         4.51518516825188    0.94428898836254    2.67909417743851
F         5.41390685011539    1.48295153255002    1.86187811782921
F         5.00150196876829   -0.23622762961348    3.06975801085744
F         4.42950560168001    1.68664010499652    3.77460473532182
C        -4.47317162399658    1.03978325094637   -2.77303403737892
F        -4.67978964483892    2.35082144030211   -2.89725563845117
F        -4.41364709275492    0.52449594649910   -4.00090583692617
F        -5.54447800641077    0.52052464739629   -2.17171335212166
C        -0.15028390135567    4.61677184340164    2.73294082335804
F        -1.47792297394815    4.67962637043081    2.90851010551136
F         0.15680227382646    5.69151253963702    2.01354992910163
F         0.38684893793098    4.73310288768917    3.93850954833187
C         1.67770076105832   -0.03061725854890   -5.16560089625664
F         0.61774483564846    0.28502102257201   -5.91629542312380
F         2.64321461590938    0.83642342348627   -5.45244880710469
F         2.08475735251089   -1.24067517397852   -5.54904784393076
C        -1.24419582495121   -3.52141882744000    3.80095261590899
F        -1.42021974227405   -4.70304454013329    3.20794266393693
F        -0.33125520154255   -3.68205908862769    4.74464444627244
F        -2.39428492718563   -3.19739867522972    4.38204308000561
