108
 energy: -324.519176201305 gnorm: 0.000240383788 xtb: 6.4.1 (a3dbbd7)
C        -1.34299059011501    0.00126968201180    3.63925661252456
C        -0.41468903897808   -1.19566744867950    3.43827357407530
C         1.02202617591688   -0.77354100076429    3.53234443239211
C         0.90526821464682    0.72404376177041    3.25930530477940
C        -0.37890824180557    1.15131298377718    3.33411100184507
C         2.52847250470331   -2.76280339016959    0.64338850621724
C         3.19906144144269   -1.39652389956841    0.59980700172758
C         2.90994701921362   -0.69688173668152    1.80188187577243
C         1.92134868348922   -1.43571674027706    2.52494533997277
C         1.58145377652142   -2.56899942891859    1.82816967614657
C         3.18762452705724    1.41820792290609    0.61035100410993
C         2.33439872453301    2.58161229066059    0.60068196034760
C         1.56122904826392    2.56684278385915    1.78916046311878
C         1.91889380189714    1.41675922067113    2.55078481368117
C         2.91980725778811    0.69946279002149    1.82422839644737
C        -0.37557799450963    3.42258548777467    0.62095683031427
C        -1.75202357089579    2.97989629408553    0.61608378206646
C        -1.99050312121920    2.28815665613114    1.82973295611120
C        -0.81108604975727    2.47692422923256    2.77192817723781
C         0.23001106547575    3.03099004356317    1.79923610522027
C        -3.37739849725889    0.70708376902793    0.59615313243234
C        -3.38694799790134   -0.72620051620805    0.58776934751807
C        -2.76887462637029   -1.15741872173043    1.81981833465788
C        -2.42347162563113   -0.02304203043055    2.59731508449655
C        -2.74406968383592    1.12617709980154    1.81887551165343
C        -1.72033868367376   -2.97332785095018    0.60146201501290
C        -0.35124754392293   -3.40680205015653    0.61204268483010
C         0.25065943795039   -3.00425180137709    1.77917247492256
C        -0.80636178228066   -2.44459568785866    2.73943084736471
C        -1.98661964626400   -2.29951026702651    1.80753751450594
C        -0.25319822777358   -3.01054999760436   -1.83824692179773
C         0.71420061564319   -2.23084530516721   -2.53157090362859
C         1.93541862162861   -2.26174617250045   -1.73995106960046
C         1.76045799685740   -3.00769464533448   -0.62103315505902
C         0.40096588835045   -3.70328014161981   -0.65444869922410
C         2.76227025947548   -1.09260076621917   -1.79918909103187
C         2.45504907410346   -0.01374941874880   -2.56349849393749
C         3.05461923505689    1.25000962176202   -1.94586318493641
C         3.43956867877378    0.73404576679729   -0.55581980861268
C         3.40136739275961   -0.68390694839313   -0.55871807524547
C         2.00756512812718    2.30781641245799   -1.82398246087362
C         0.80397762350850    2.44688811908714   -2.74526633694500
C        -0.25670925212512    3.01035683233073   -1.80229573427804
C         0.32761705058814    3.35383096774049   -0.62315674782975
C         1.72259190683389    2.92020713980085   -0.62802448290058
C        -1.72003784124673    2.76421708954104   -1.94820832876011
C        -1.94728128955834    1.37597433960306   -2.54970161914122
C        -2.87675517577164    0.70100045682453   -1.81762032631559
C        -3.13030290726379    1.40734787278524   -0.57933781292812
C        -2.34729319027142    2.57933306632560   -0.56970144582387
C        -3.15933017050043   -0.76753608749270   -1.95579243073993
C        -1.96893475308993   -1.45392600248446   -2.59610176316210
C        -1.55826679415000   -2.51956273937407   -1.80807651769751
C        -2.33927508557980   -2.55475584135769   -0.58518301250510
C        -3.18264515243586   -1.43532411752161   -0.58108101965557
C        -1.04253337914620   -0.78382170750661   -3.56606755212542
C        -0.92112162764738    0.71317593758916   -3.28138781015612
C         0.36908538305453    1.12843515334020   -3.31220737314741
C         1.34266417799843   -0.01385032644497   -3.58382744241877
C         0.40222396223580   -1.19357534898293   -3.35010916234050
C        -1.93138292198179    0.08275585246711    5.09674762807208
F        -1.32938755060998    1.01823176800694    5.82870528915357
F        -1.78304497419049   -1.07873014272339    5.73417276443533
F        -3.23325751439922    0.36478574461228    5.07280353012464
C         1.67595921863268   -0.98033045480038    4.93645180413439
F         0.92227639321285   -0.50076530037676    5.91660647119140
F         1.90845145952301   -2.26456477364093    5.18207726144587
F         2.84890459111007   -0.34716781352091    4.98430840301410
C         0.46910588905150   -5.23426055560048   -0.90172905665727
F         1.36342848547278   -5.53317470949379   -1.84164885522526
F        -0.71637592314012   -5.68752811739671   -1.31191327898632
F         0.78717467728223   -5.90939991427205    0.19785099916217
C         3.59028899322499   -3.84768581272418    0.94392804414493
F         4.31153049415136   -3.51976348758376    2.01658438654218
F         4.43153604249102   -3.97822840951237   -0.08171155763328
F         3.04968424796780   -5.03831497715371    1.17774993802785
C         4.38129902753952    1.72957294499257   -2.60477866426024
F         5.23275445875103    0.71433691813213   -2.73795535731761
F         4.22491786353823    2.29104796650876   -3.79275235261204
F         4.96236521073835    2.63988879727105   -1.81636517970858
C         1.08823241895943    3.51397458149539   -3.84401122724849
F         1.49632858115620    4.65445449205591   -3.28659777334454
F         2.02601823428117    3.12473458885875   -4.69483347715430
F        -0.00484884281686    3.77875553170455   -4.55060428049451
C        -2.50141068636638    3.83655183416990   -2.76205643133797
F        -3.77566283205344    3.89300474580997   -2.36661652768384
F        -2.51676235097768    3.57378679824290   -4.06477106739057
F        -1.97777755960621    5.04834615192117   -2.58854882308146
C        -1.13821891702614    3.52090409348974    3.86822736821635
F        -1.37113700736777    4.71789104200422    3.32493906325137
F        -2.22589971064167    3.18550690120897    4.55698689801020
F        -0.12902439925555    3.65975744461845    4.72387457987342
C        -4.52752446331550   -0.98280778866455   -2.66522417152547
F        -4.61718200747555   -2.20195984601235   -3.18944383214967
F        -4.74403074152593   -0.09596501554935   -3.63064277108374
F        -5.52548446118594   -0.84921585569048   -1.78822840322328
C        -1.51871624869600   -1.08366887787321   -5.01954165498003
F        -0.83885570808042   -0.39249905887639   -5.92507577489573
F        -2.80455981075001   -0.78656417855998   -5.17929262359417
F        -1.36692577019291   -2.37846922311921   -5.29056167499515
C         1.94230304957285   -0.04016740561639   -5.03715784397612
F         1.40025740688530    0.87309859179671   -5.83108247570878
F         3.25797990712363    0.16683213461489   -5.02162427478988
F         1.75149823612649   -1.23564030544794   -5.59800381621622
C        -1.19508267329392   -3.57965293817202    3.75351488062246
F        -1.37969602902346   -4.73020612460923    3.10902939037042
F        -0.25153942104108   -3.77462464827388    4.66108582553406
F        -2.32800076767857   -3.29102933661140    4.38112964984321
