108
 energy: -324.592088722024 gnorm: 0.000180398321 xtb: 6.4.1 (a3dbbd7)
C        -1.32256074748833    0.04214514193293    3.65804955664238
C        -0.40800934007807   -1.26544856138195    3.58703341138899
C         0.98072560667843   -0.72044894452077    3.27333671915146
C         0.96185400510109    0.67590659804842    3.23255779342936
C        -0.34959413165709    1.12433051932415    3.20675962406993
C         2.56381010720402   -2.81283279121193    0.64944321469522
C         3.16119521163815   -1.40373077193591    0.55611069012175
C         2.89059156991929   -0.68558314227040    1.75030657093693
C         1.90594820312275   -1.41564989257525    2.51267691682457
C         1.55364680213213   -2.59022941098454    1.76840897437266
C         3.16726912591315    1.41128283374761    0.57888337824672
C         2.33739451570892    2.59427403181772    0.58555032270636
C         1.59770900557588    2.61594271358076    1.79906981956471
C         2.09506236701353    1.50990913789311    2.72028626098099
C         2.95561662619624    0.69590124533281    1.77876803438902
C        -0.37932400644207    3.72613491187244    0.64101062777145
C        -1.74117652816839    3.05498565528638    0.60852691638721
C        -1.91933162353492    2.28440020035926    1.75129002707203
C        -0.69236019262088    2.27379407852764    2.51799058067436
C         0.28421592799342    3.01395734666148    1.81412763151984
C        -3.31572005488360    0.74652503213390    0.56911553993926
C        -3.31530398513488   -0.70026556481989    0.62053025611298
C        -2.74937994424777   -1.12718755255434    1.79820973579968
C        -2.63954116389698    0.02654667349265    2.78977366435589
C        -2.79162989152205    1.20066655771603    1.82221498453304
C        -1.91699845787522   -3.28645512010428    0.67120922882625
C        -0.41349984273837   -3.79996441040606    0.66621953241311
C         0.24307557242183   -2.97295694035179    1.76581691678412
C        -0.73855831032256   -2.22418062139543    2.47363872200859
C        -1.92468392900894   -2.25716465298084    1.80045923897978
C        -0.22033696259907   -2.93788119050561   -1.71031340380345
C         0.74447559651714   -2.21610900711472   -2.51373005404489
C         1.96753267620409   -2.24168298181842   -1.80812279015461
C         1.87200900590711   -3.27009676523446   -0.67835731537589
C         0.34018047442793   -3.42801681917208   -0.58726766104735
C         2.80723962841114   -1.15985239259139   -1.84962097453823
C         2.42415252626284    0.00354742748558   -2.59840731239310
C         2.79692659752990    1.16549938773830   -1.83310554117488
C         3.40852752540786    0.71502148329607   -0.60836977758913
C         3.41405240235416   -0.71484060267677   -0.60267461390526
C         1.97928891070474    2.28599884860973   -1.82795249652994
C         0.74778117829434    2.28114425700196   -2.56744841056885
C        -0.23990138642061    2.99389741354516   -1.78995310392490
C         0.38462243390778    3.45748035120830   -0.62106238710603
C         1.73033254285664    3.01332467344802   -0.60416654412384
C        -1.58144870968386    2.57785510136626   -1.82696275114937
C        -1.93993920886334    1.45379706738938   -2.55323079067059
C        -3.16648589561354    0.76781535292297   -1.95898398393669
C        -3.22709743358312    1.44976663917611   -0.59690077088033
C        -2.52430322200635    2.80046744126311   -0.64529863264315
C        -2.86635379564055   -0.69646227178325   -1.80261386913313
C        -1.95044208637989   -1.37540445095458   -2.57025550400188
C        -1.67925822678953   -2.73861369003763   -1.93759812650800
C        -2.33298681129174   -2.59038746354303   -0.59359732124151
C        -3.04632849697064   -1.42365852020467   -0.57649977359614
C        -0.99299798304345   -0.68620580315547   -3.33223217531905
C        -0.98862454711870    0.73398106263743   -3.29888135866152
C         0.38216858430516    1.17238287509596   -3.30657771766182
C         1.23579212862892    0.01055931478121   -3.32790876019190
C         0.38222487111359   -1.13741651832967   -3.30746220569249
C        -1.56969889437295    0.54365886219887    5.11982617905844
F        -0.40337165521511    0.72234825334565    5.74985989321235
F        -2.31474014739992   -0.23482935194090    5.88612630578920
F        -2.13103200643643    1.75574007222325    5.08144280383402
C        -0.38305183054390   -2.18418250267587    4.84769676562075
F         0.08725653460561   -1.62088273535271    5.95047376539486
F        -1.59374353409093   -2.66793191215544    5.10810304220177
F         0.41663542543832   -3.22977068525022    4.59964407283383
C         2.46755225853130   -4.53961484613907   -1.37719906352645
F         1.66894475633877   -4.90583674112261   -2.38684435008702
F         3.65307911212658   -4.26337498445060   -1.92461272172835
F         2.62069286993654   -5.60483343149655   -0.61175746153960
C         3.74538245313775   -3.67627759917473    1.19572489955474
F         4.28358582566481   -3.04958716207894    2.25197991349467
F         4.72155196916898   -3.79522405066134    0.29597457443546
F         3.42453907475443   -4.88624019649709    1.61978863749993
C         2.90910528417782    2.09639128179179    3.90201845373204
F         3.93868147206371    2.81820026842019    3.46065893102916
F         2.15459023169501    2.88977890100593    4.65781051692580
F         3.39659621868864    1.13126497741782    4.67685208207839
C        -0.41542434584415    5.25495003533487    0.93867905560791
F        -1.33453351197944    5.55619098685385    1.85040806726977
F        -0.65673281552015    5.97680507285578   -0.14942467950316
F         0.76870743907585    5.65392202970025    1.41109622964415
C        -4.44155516706865    0.94869940857334   -2.84638191092317
F        -4.29416350490442    1.92108232781024   -3.74534171884386
F        -4.70496080287557   -0.16481595636674   -3.53768364860550
F        -5.51553727211453    1.22044984957325   -2.11105546151125
C        -3.53834251720676    3.95776281416653   -0.87479388538116
F        -4.31723751257702    3.74593670810660   -1.92885764134046
F        -2.91712706113490    5.11854437160036   -1.07210645372828
F        -4.32790716561392    4.09701270320028    0.18976825202416
C        -2.26946284712044   -3.86256371037036   -2.82157961567994
F        -3.58695357789887   -3.73321248763342   -2.94923132396622
F        -1.73763920823120   -3.82844758282375   -4.04255548558127
F        -2.02472617175242   -5.06302505686697   -2.30681321357376
C        -3.97489725683678   -0.13436561804751    3.59841399299948
F        -5.00274010180126   -0.18333859149617    2.74504423474432
F        -3.98307072291019   -1.28102827377517    4.27547616219144
F        -4.25321079174581    0.85061592041427    4.43925871669746
C        -3.04790182378527   -4.30947817928628    1.02917446696297
F        -3.07939855915800   -4.60215454546360    2.32529443872979
F        -2.97923202413116   -5.43674349241167    0.33556318950350
F        -4.23168553216818   -3.75117829591743    0.74911735155576
C        -0.21918658942093   -5.31162147923490    0.97032035078017
F        -0.97273387104073   -5.75597429220135    1.96722301185569
F        -0.44813974832364   -6.06404861599923   -0.10123001889607
F         1.04190666930369   -5.52408842140195    1.34359142627454
