62
 energy: -137.552600497666 gnorm: 0.000098782613 xtb: 6.4.1 (a3dbbd7)
C        -1.30016129574936    0.01056757273196    3.52362093008433
C        -0.35745315095289   -1.15796450110284    3.29730088570390
C         0.95030116706507   -0.71419999193630    3.26961554674317
C         0.96931928907306    0.72449711396010    3.26179902060176
C        -0.38086047734302    1.18840520926497    3.30069468869488
C         2.31459982645928   -2.57348794755622    0.57628219421297
C         3.15628224874184   -1.40303430926017    0.57930827727200
C         2.94771438874078   -0.69418318298284    1.80013932389684
C         2.08132429179151   -1.51863692515446    2.72689766586447
C         1.57439514632105   -2.59897981047962    1.79758127972364
C         3.16553135599603    1.40255344920525    0.57526719805836
C         2.32156282146194    2.57223336317728    0.57888108210911
C         1.56923269462672    2.57580150745156    1.81006438493474
C         1.94427515199035    1.42634256948126    2.56539061605096
C         2.93034048208319    0.67976622998437    1.79397206671328
C        -0.36760336848622    3.44641322792468    0.58665374049994
C        -1.74337764876349    3.00875683537249    0.58416988456849
C        -1.98986082359736    2.30093166590776    1.80573082682374
C        -0.74488456890830    2.29028691167177    2.56683826702245
C         0.24236907117040    3.01035937093637    1.80866555210103
C        -3.40821265548328    0.73116973470956    0.57170216749630
C        -3.39414465431838   -0.70574897999306    0.57722812845860
C        -2.76685479347008   -1.13130579037589    1.81837814714490
C        -2.42665494131278    0.00236898158847    2.55079290560248
C        -2.78984146887423    1.16914538225986    1.80060607870017
C        -1.71675859426716   -2.99759205061317    0.58316604033465
C        -0.35149362909097   -3.45056210203956    0.57331893003244
C         0.26309977201698   -3.00275246451409    1.79130439119015
C        -0.75111041726932   -2.29653757821830    2.57025165697413
C        -1.94524046354691   -2.28919601850643    1.82756076414536
C        -0.24247913191874   -3.01523063073026   -1.83654439119563
C         0.74582128196990   -2.29025099960443   -2.59578893828927
C         1.97367967719500   -2.28930146892448   -1.83982137487133
C         1.73623653452689   -3.00975257791715   -0.61207151293839
C         0.37311719462582   -3.45876270582365   -0.61419391147676
C         2.78575116803723   -1.16642053031833   -1.83622910900011
C         2.40776587845993    0.00266396694354   -2.59353544262495
C         2.78851065847034    1.16570323943030   -1.83566941868305
C         3.39934493105494    0.71654955736482   -0.61058206539323
C         3.39602368981349   -0.71788331589512   -0.60920990192101
C         1.96777265455289    2.28776315278596   -1.82882356288562
C         0.74407693712195    2.28928604479114   -2.58256018474667
C        -0.24955586857508    3.01198263376414   -1.82045555078683
C         0.36171144577077    3.45294180674648   -0.59885472032494
C         1.73285789986262    3.00454059886192   -0.59901692842250
C        -1.57301505934028    2.58650946357905   -1.82551284460138
C        -1.95039342957890    1.42029525589332   -2.58692964285630
C        -2.94561810862423    0.70183870971116   -1.83135531930551
C        -3.18427577715269    1.42525936312639   -0.60920260772397
C        -2.33433374535150    2.58904678466338   -0.60632146328221
C        -2.93916061896203   -0.68784984282748   -1.82265205954597
C        -1.94483662851573   -1.41109471400288   -2.57782554307981
C        -1.56216351428810   -2.57625655739587   -1.82185342096196
C        -2.30828396580425   -2.57286784498523   -0.59246298449639
C        -3.16597691209426   -1.39928177302691   -0.59430445681331
C        -0.99318214707660   -0.71742315488547   -3.31194880209189
C        -0.99477236653365    0.72459797272969   -3.31287769471021
C         0.37748273488129    1.16850737767963   -3.31510968258379
C         1.22378397650273    0.00345512518300   -3.31964607885067
C         0.37740813788182   -1.16398850979401   -3.31855540255269
Cl       -1.93409649145464   -0.00606788977356    5.23209686311430
Cl        3.05919692025137   -2.23400892877926    4.09236225145677
