62
 energy: -137.481884659508 gnorm: 0.201218758446 xtb: 6.4.1 (a3dbbd7)
C        -1.23626340000000    0.00000000000000    3.32997640000000
C        -0.38202640000000   -1.17575640000000    3.32997640000000
C         1.00015810000000   -0.72665740000000    3.32997640000000
C         1.00015810000000    0.72665740000000    3.32997640000000
C        -0.38202640000000    1.17575640000000    3.32997640000000
C         2.34433560000000   -2.60145750000000    0.59464210000000
C         3.19857260000000   -1.42570110000000    0.59464210000000
C         2.96246730000000   -0.69904370000000    1.83090550000000
C         1.96230920000000   -1.42570110000000    2.59495830000000
C         1.58028280000000   -2.60145750000000    1.83090550000000
C         3.19857260000000    1.42570110000000    0.59464210000000
C         2.34433560000000    2.60145750000000    0.59464210000000
C         1.58028280000000    2.60145750000000    1.83090550000000
C         1.96230920000000    1.42570110000000    2.59495830000000
C         2.96246730000000    0.69904370000000    1.83090550000000
C        -0.36750900000000    3.48258920000000    0.59464210000000
C        -1.74969350000000    3.03349030000000    0.59464210000000
C        -1.98579880000000    2.30683290000000    1.83090550000000
C        -0.74953540000000    2.30683290000000    2.59495830000000
C         0.25062270000000    3.03349030000000    1.83090550000000
C        -3.42570570000000    0.72665740000000    0.59464210000000
C        -3.42570570000000   -0.72665740000000    0.59464210000000
C        -2.80757400000000   -1.17575640000000    1.83090550000000
C        -2.42554760000000    0.00000000000000    2.59495830000000
C        -2.80757400000000    1.17575640000000    1.83090550000000
C        -1.74969350000000   -3.03349030000000    0.59464210000000
C        -0.36750900000000   -3.48258920000000    0.59464210000000
C         0.25062270000000   -3.03349030000000    1.83090550000000
C        -0.74953540000000   -2.30683290000000    2.59495830000000
C        -1.98579880000000   -2.30683290000000    1.83090550000000
C        -0.25062270000000   -3.03349030000000   -1.83090550000000
C         0.74953540000000   -2.30683290000000   -2.59495830000000
C         1.98579880000000   -2.30683290000000   -1.83090550000000
C         1.74969350000000   -3.03349030000000   -0.59464210000000
C         0.36750900000000   -3.48258920000000   -0.59464210000000
C         2.80757400000000   -1.17575640000000   -1.83090550000000
C         2.42554760000000    0.00000000000000   -2.59495830000000
C         2.80757400000000    1.17575640000000   -1.83090550000000
C         3.42570570000000    0.72665740000000   -0.59464210000000
C         3.42570570000000   -0.72665740000000   -0.59464210000000
C         1.98579880000000    2.30683290000000   -1.83090550000000
C         0.74953540000000    2.30683290000000   -2.59495830000000
C        -0.25062270000000    3.03349030000000   -1.83090550000000
C         0.36750900000000    3.48258920000000   -0.59464210000000
C         1.74969350000000    3.03349030000000   -0.59464210000000
C        -1.58028280000000    2.60145750000000   -1.83090550000000
C        -1.96230920000000    1.42570110000000   -2.59495830000000
C        -2.96246730000000    0.69904370000000   -1.83090550000000
C        -3.19857260000000    1.42570110000000   -0.59464210000000
C        -2.34433560000000    2.60145750000000   -0.59464210000000
C        -2.96246730000000   -0.69904370000000   -1.83090550000000
C        -1.96230920000000   -1.42570110000000   -2.59495830000000
C        -1.58028280000000   -2.60145750000000   -1.83090550000000
C        -2.34433560000000   -2.60145750000000   -0.59464210000000
C        -3.19857260000000   -1.42570110000000   -0.59464210000000
C        -1.00015810000000   -0.72665740000000   -3.32997640000000
C        -1.00015810000000    0.72665740000000   -3.32997640000000
C         0.38202640000000    1.17575640000000   -3.32997640000000
C         1.23626340000000    0.00000000000000   -3.32997640000000
C         0.38202640000000   -1.17575640000000   -3.32997640000000
Cl       -1.84886636902500    0.00000000000000    5.03315507598844
Cl        2.97309908083776   -2.16008291853538    3.90457166332547
62
 energy: -137.528566227501 gnorm: 0.111763892389 xtb: 6.4.1 (a3dbbd7)
C        -1.25573896598709    0.00635916694261    3.34996990427658
C        -0.36869492127374   -1.17197710391615    3.32788961684446
C         0.97623653473442   -0.71303179379824    3.31939009479090
C         0.99360419747217    0.73098571848650    3.31450072511519
C        -0.37202032321450    1.18954421061963    3.32451692798366
C         2.32937030515915   -2.58544013585850    0.58218587220288
C         3.17845889974934   -1.41279086061350    0.58219833101181
C         2.94786700578552   -0.68616718368204    1.80102768512765
C         2.01462237674125   -1.46447461093353    2.65266312980816
C         1.56744693683326   -2.59315851214873    1.80155907641759
C         3.18849843085722    1.42104173389829    0.58544305110229
C         2.33429639158721    2.58847380381887    0.58955204939228
C         1.57841434844934    2.58905824841232    1.82496077034322
C         1.95882869495089    1.42908025188330    2.58615547341378
C         2.94473063874644    0.69713050701286    1.80913914555813
C        -0.36406440236525    3.46303682032169    0.59583482898856
C        -1.74211941377940    3.01810472885876    0.59349236973786
C        -1.98016858065390    2.29653675850721    1.81722249480589
C        -0.73987981568160    2.29941029186569    2.58096715597883
C         0.25240892558084    3.02728165027803    1.82604723377010
C        -3.42355062465700    0.72652905751481    0.57771045729613
C        -3.42255539368855   -0.72058399088247    0.58068276834510
C        -2.79606086397252   -1.16218099963949    1.80914023317858
C        -2.43886038061888   -0.00052419915222    2.54235807148471
C        -2.80383402053975    1.17288125742505    1.80333121564869
C        -1.73512637604802   -3.01915172930596    0.59201899878433
C        -0.36334369675099   -3.47461833333698    0.58744743528257
C         0.25180884559494   -3.01883445770089    1.80880460931377
C        -0.74416168424817   -2.29657225284046    2.58197052868042
C        -1.96616061858722   -2.29666334081772    1.82526535357334
C        -0.24885540362958   -3.02163567195623   -1.82527753575921
C         0.74484856718355   -2.29657454814141   -2.58655795874919
C         1.97719604554732   -2.29688972530071   -1.82986572905367
C         1.74044508325343   -3.02180052000321   -0.60088105700286
C         0.36771991450151   -3.47059625302770   -0.59903769424379
C         2.79432127289018   -1.17078508187752   -1.82953873302075
C         2.41276846350929    0.00086465318406   -2.58769768143335
C         2.79430845971546    1.16999506121320   -1.82763043533511
C         3.41328504358071    0.72391858355499   -0.60027193070900
C         3.41260662285710   -0.72011525249052   -0.60235142468123
C         1.97544753843772    2.29608009040132   -1.82491045752748
C         0.74533685478871    2.29609921955472   -2.58279304770063
C        -0.25002596362740    3.02024198971550   -1.81957851618633
C         0.36542140684360    3.46551931397487   -0.59170642307753
C         1.74098812312887    3.01781362432892   -0.59291453072251
C        -1.57507679517446    2.59011188469481   -1.82121388394540
C        -1.95484051852043    1.42008191078742   -2.58336077700033
C        -2.95161380476607    0.69681276479051   -1.82607007530378
C        -3.19098581222548    1.42328401655108   -0.60029993821950
C        -2.33604311244786    2.59087004959806   -0.59418458531529
C        -2.95147254505983   -0.69533658484631   -1.82370011160986
C        -1.95441173459319   -1.41960625233155   -2.58135893861128
C        -1.57312485892090   -2.58947168503478   -1.82132197083463
C        -2.32981109711763   -2.58949170767967   -0.59022756477150
C        -3.18802290732605   -1.41806522092771   -0.59531355304757
C        -0.99789625587668   -0.72302507282758   -3.31387048134660
C        -0.99771197156490    0.72363925407776   -3.31398214137202
C         0.37818876271691    1.17084627136433   -3.31471801669447
C         1.22752403816556    0.00081145047579   -3.31676164442088
C         0.37762224869968   -1.16996769893843   -3.31564332592331
Cl       -1.88760387560115    0.01270523040914    5.09268825013825
Cl        3.04344847226930   -2.21570171304731    3.98463304453728
62
 energy: -137.549103938075 gnorm: 0.047199101130 xtb: 6.4.1 (a3dbbd7)
C        -1.29599729272533    0.01260078797044    3.46961846065841
C        -0.35051329486123   -1.15514008768319    3.27294924609942
C         0.94473660009111   -0.69942149347604    3.27679915144362
C         0.97568670682743    0.73008458119637    3.26361686691007
C        -0.36840295514625    1.19507543473413    3.28120428470649
C         2.31289641331575   -2.57110852883233    0.57325471529664
C         3.15683337380602   -1.40047053084089    0.57613167772215
C         2.93693223089888   -0.67628608598090    1.77735210000247
C         2.07584899026734   -1.51184141423275    2.71471638424856
C         1.55531088841674   -2.58935631945449    1.77430278899858
C         3.17577467064662    1.41364149098270    0.57769121502084
C         2.32458021766442    2.57631163649053    0.58379047400122
C         1.57432514970217    2.58082754878419    1.81647279928753
C         1.95198652542998    1.43513836867956    2.56787072578007
C         2.93160681244415    0.69134557525442    1.78987074052441
C        -0.36445540312744    3.44881260437490    0.59197304880830
C        -1.73856885309899    3.00416654052963    0.58807633639656
C        -1.98299816952291    2.29155651967328    1.80181925291231
C        -0.73693551148852    2.29297539493868    2.55457392870018
C         0.24812093469253    3.02488945238272    1.81439349092908
C        -3.41757155452194    0.72720772006538    0.56762668286538
C        -3.41138279815396   -0.71182312827472    0.57386594884665
C        -2.77786563436525   -1.13874389291466    1.80461274809400
C        -2.44797594418209   -0.00238116076898    2.52765707398420
C        -2.79319184901205    1.16507763932808    1.78842365203780
C        -1.72342317444192   -3.00426736153886    0.58545893432539
C        -0.36062285223530   -3.46490846845291    0.57402908202913
C         0.25443336288452   -3.00862554735944    1.78133958090703
C        -0.74660720965423   -2.28875771978757    2.55102910233416
C        -1.94964607827790   -2.28978227910445    1.82262582797565
C        -0.24462701340223   -3.01251673097569   -1.82561658069283
C         0.74409530746847   -2.28774997257066   -2.58228908696742
C         1.97193303506993   -2.28826373777264   -1.83078613938894
C         1.73247309555158   -3.01256437964590   -0.60837450925980
C         0.36956109544561   -3.46061684128031   -0.60874334131175
C         2.78467609765064   -1.16658268196106   -1.82751454245511
C         2.40499611415816    0.00184665924838   -2.58083174031718
C         2.78621942080858    1.16450381642892   -1.82480352634849
C         3.40209023073224    0.71914426035317   -0.60461679066013
C         3.40097325378558   -0.71464838558476   -0.60703129447358
C         1.96806998948169    2.28644429442796   -1.81976917432324
C         0.74495813976443    2.28596977742407   -2.57249930515505
C        -0.24788171513834    3.00822716759890   -1.81125574419570
C         0.36322900503933    3.45177726845487   -0.59291668748272
C         1.73350957141915    3.00462362987405   -0.59244661116941
C        -1.56981448534570    2.57997458861347   -1.81616620519460
C        -1.94629980479948    1.41496455098351   -2.57675364627107
C        -2.94112662001664    0.69618052147603   -1.82506061466719
C        -3.18242902578215    1.42001540405574   -0.60595507978757
C        -2.33005820690173    2.58146830280960   -0.59988896018924
C        -2.93920229094569   -0.69113765994043   -1.81856752146773
C        -1.94424851534734   -1.41311634458014   -2.57063633305809
C        -1.56488861272055   -2.57821637203587   -1.81520371530700
C        -2.31558828429659   -2.57719967918850   -0.58968906885643
C        -3.17388001322989   -1.40545897013981   -0.59390718709311
C        -0.99184811994674   -0.71910268286234   -3.30115901818323
C        -0.99209544551307    0.72112971817826   -3.30238164152619
C         0.37849861673650    1.16611878251250   -3.30281815767903
C         1.22327463745118    0.00191610984023   -3.30577784944825
C         0.37742176995892   -1.16408974344622   -3.30507677031477
Cl       -1.93320504968724    0.01505761920854    5.24097302679369
Cl        3.10253223209180   -2.26497848472206    4.07214423391874
62
 energy: -137.551415372022 gnorm: 0.023867410817 xtb: 6.4.1 (a3dbbd7)
C        -1.29505720599339    0.01160340332277    3.48568176664659
C        -0.35538529864837   -1.15831621052578    3.29720645721769
C         0.95376374506684   -0.70999832378390    3.28702526266288
C         0.97461721932678    0.72539207138363    3.27126369302440
C        -0.37469567901472    1.19196029355548    3.29933510243228
C         2.31437063131534   -2.57221516941270    0.57636614053628
C         3.15725528229428   -1.40206706920549    0.57913404309723
C         2.94503385622349   -0.68789424948747    1.79353845436878
C         2.07903000278096   -1.51568857531107    2.72200110563891
C         1.56813050996638   -2.59523877757473    1.79096225887039
C         3.16938672688026    1.40703998787923    0.57740866229419
C         2.32240564794948    2.57393330961060    0.58164774898743
C         1.57008069372060    2.57545324128976    1.81340423187363
C         1.94781891664879    1.42871646846530    2.56933457421686
C         2.93258667615335    0.68456808447246    1.79592839718011
C        -0.36700285525685    3.44690266519853    0.58803504138959
C        -1.74160564522869    3.00467080936902    0.58405738459174
C        -1.98613349804064    2.29446273432664    1.80304599788960
C        -0.74252970935452    2.29088015978820    2.56308892870688
C         0.24363770985496    3.01590200724160    1.81107051847543
C        -3.41483111156724    0.73015572080958    0.56738374394432
C        -3.40423824566726   -0.70872436021734    0.57350012457878
C        -2.77390408281193   -1.13528977543535    1.80956681922445
C        -2.43952601086347    0.00137485979157    2.54181522280282
C        -2.79344286858706    1.16744855007458    1.79357248312098
C        -1.71963322549216   -2.99870506029336    0.58357617756631
C        -0.35533118847601   -3.45512482477937    0.57410619054162
C         0.25913816039975   -3.00450645851868    1.79007157560835
C        -0.74820491522516   -2.29039899973760    2.56548746566852
C        -1.94649876688644   -2.28610881285494    1.82403191311268
C        -0.24361528113094   -3.01349729651644   -1.83273156092413
C         0.74476059415709   -2.28832039300122   -2.59087703897393
C         1.97263466161349   -2.28829007353931   -1.83668152823344
C         1.73441389556555   -3.00991122866351   -0.61033602667689
C         0.37151011131814   -3.45807241487503   -0.61214536731724
C         2.78542740654415   -1.16615483168739   -1.83309255894199
C         2.40580253009889    0.00258611899927   -2.58814711328463
C         2.78719597596705    1.16528302524630   -1.83061169580761
C         3.40032845395371    0.71766905165154   -0.60760248997682
C         3.39816404823003   -0.71636072076071   -0.60803065988714
C         1.96740047921243    2.28708762943182   -1.82463099208914
C         0.74368350018291    2.28735299354628   -2.57810681561411
C        -0.24980765680783    3.01003595829094   -1.81731133906521
C         0.36146097889539    3.45192643216334   -0.59696384508360
C         1.73250309808655    3.00442317093908   -0.59588489463069
C        -1.57269372924831    2.58340979807580   -1.82353345878357
C        -1.95002375645052    1.41823388389392   -2.58526721125991
C        -2.94569752963569    0.69946458992947   -1.83240626819152
C        -3.18538016591276    1.42309732679534   -0.61085369897841
C        -2.33363802653301    2.58519818142220   -0.60571661109159
C        -2.94105533440494   -0.68930999707892   -1.82448856609492
C        -1.94538237938598   -1.41192683769635   -2.57697380825783
C        -1.56376089307468   -2.57692990337673   -1.82075891685274
C        -2.31195616296475   -2.57382321712157   -0.59269974017246
C        -3.17041345456906   -1.40209494959154   -0.59686418661579
C        -0.99338741928733   -0.71782967897338   -3.30904315419367
C        -0.99451161598810    0.72326979563925   -3.31028379270136
C         0.37705732638468    1.16760130067648   -3.31002538635883
C         1.22290247678936    0.00315044643686   -3.31380437951018
C         0.37674969931275   -1.16343920653814   -3.31370883805168
Cl       -1.93830761972806    0.01880391431983    5.24141840805024
Cl        3.10263302915521   -2.26290348601404    4.07324278861494
62
 energy: -137.552206872834 gnorm: 0.013552591290 xtb: 6.4.1 (a3dbbd7)
C        -1.29744692976318    0.01081906972681    3.50729242840054
C        -0.35808310410268   -1.15939756462113    3.30637796796023
C         0.95433035349512   -0.71569948381319    3.28310498213435
C         0.97113421306443    0.72328349688089    3.26916728566190
C        -0.38005768620421    1.18898427059984    3.30516374542645
C         2.31432193366783   -2.57257150361924    0.57739026365400
C         3.15580275062563   -1.40244817561551    0.58033411270418
C         2.94791536498118   -0.69472865114480    1.80235019618517
C         2.08172819871497   -1.51942178537919    2.72707734334263
C         1.57520931907869   -2.59849078646165    1.79976994056666
C         3.16424556294271    1.40215722385246    0.57599017628746
C         2.32019154363902    2.57149483082341    0.57925146885608
C         1.56759396740359    2.57358115378944    1.81059173895451
C         1.94371473336600    1.42574080242799    2.56770812543077
C         2.93044707374084    0.67979549505948    1.79659806925256
C        -0.36819730027418    3.44531580169489    0.58590908018632
C        -1.74345410007405    3.00646167708309    0.58270480501746
C        -1.98948403524744    2.29845014536637    1.80446539899447
C        -0.74572843532479    2.28894109825831    2.56678164958122
C         0.24116440141807    3.01015761780690    1.80862785807899
C        -3.41067545767777    0.73176789720435    0.56919139714068
C        -3.39668756922188   -0.70600577898212    0.57488601113527
C        -2.76922516607015   -1.13181918747575    1.81521965132767
C        -2.43113819926752    0.00316203726724    2.55040128231195
C        -2.79266254140187    1.16942377228273    1.79869564601598
C        -1.71602638657366   -2.99490615886899    0.58248932756936
C        -0.35126021849192   -3.44851629993268    0.57360323733452
C         0.26274099296384   -3.00115225357686    1.79312475003669
C        -0.75045503480671   -2.29313009304398    2.57220097583534
C        -1.94430827429265   -2.28543779436819    1.82607527869160
C        -0.24238769921772   -3.01464685495001   -1.83689295715545
C         0.74585390043150   -2.28968463855825   -2.59613637712218
C         1.97342739910754   -2.28867200398248   -1.84000652152283
C         1.73597018042483   -3.00864225413421   -0.61177389493456
C         0.37328393494276   -3.45717431648866   -0.61426682292282
C         2.78564332375388   -1.16598850307395   -1.83630934347276
C         2.40723592257430    0.00286149742091   -2.59338732590647
C         2.78804501137917    1.16574299160512   -1.83526716639073
C         3.39866204745711    0.71653594528618   -0.61019459256422
C         3.39559432722255   -0.71752241651912   -0.60882964046684
C         1.96717938554579    2.28752930317162   -1.82856795373414
C         0.74355432057518    2.28866583438036   -2.58239934688910
C        -0.25016433485614    3.01138969888256   -1.82087136200588
C         0.36084223164020    3.45215581000090   -0.59946933226390
C         1.73192554289563    3.00398011032302   -0.59887272182758
C        -1.57363986074222    2.58601254446909   -1.82683449779826
C        -1.95108763184453    1.42029069711491   -2.58870066525733
C        -2.94685418327580    0.70183269196827   -1.83426364928561
C        -3.18573061398155    1.42526535899949   -0.61176063272588
C        -2.33511560752239    2.58837630658452   -0.60803132544404
C        -2.94019563553362   -0.68789107902233   -1.82545803929291
C        -1.94504336769719   -1.41109640709629   -2.57936913735383
C        -1.56209236909431   -2.57586571691275   -1.82295535708124
C        -2.30820448096268   -2.57149197684766   -0.59356993607107
C        -3.16662641302444   -1.39921368712367   -0.59670641475934
C        -0.99331224331269   -0.71730197892418   -3.31297902071924
C        -0.99501784354307    0.72445803232653   -3.31384308994500
C         0.37707323745757    1.16838830998593   -3.31510789895417
C         1.22346791883492    0.00357428117000   -3.31950136581308
C         0.37723964830222   -1.16367455006797   -3.31893425590457
Cl       -1.94073717372860    0.01128186294196    5.24510021056680
Cl        3.08979386729728   -2.25536868468615    4.08134298025712
62
 energy: -137.552490001497 gnorm: 0.007692497617 xtb: 6.4.1 (a3dbbd7)
C        -1.29939339124060    0.01057164276000    3.52041452102338
C        -0.35851339802987   -1.15907644468694    3.30456426828392
C         0.95218075200196   -0.71668210017988    3.27541391488764
C         0.96909958358510    0.72338429605382    3.26455191849660
C        -0.38220670515580    1.18756625781690    3.30355208822666
C         2.31422165849958   -2.57291221598559    0.57691508197425
C         3.15528155457169   -1.40262785632150    0.58008511478730
C         2.94779956364749   -0.69615368354121    1.80369676817696
C         2.08206247137689   -1.52003522206730    2.72778210701788
C         1.57637364368359   -2.59897817953005    1.80093609341943
C         3.16322539257344    1.40097477374491    0.57527502898670
C         2.32006308202647    2.57110578849126    0.57844058983429
C         1.56756791892038    2.57441609395670    1.80950903129984
C         1.94251697352919    1.42538712651685    2.56599983761310
C         2.92917375825211    0.67848002214448    1.79512897112196
C        -0.36833569613445    3.44543976906709    0.58565583099474
C        -1.74406737947090    3.00846181386251    0.58294864742023
C        -1.99082917110780    2.30105111360098    1.80521157940417
C        -0.74629240486354    2.28887429649474    2.56739909887813
C         0.24098804153763    3.00868625201042    1.80783284195800
C        -3.40823342950718    0.73184922908418    0.57097956527877
C        -3.39309986313790   -0.70502912086544    0.57641734801865
C        -2.76657953825658   -1.13040771511382    1.81843442164150
C        -2.42610964333406    0.00325362570096    2.55277908136771
C        -2.79121311438670    1.17003427236710    1.80106320693269
C        -1.71525220206139   -2.99508994070277    0.58242724521267
C        -0.35023243185276   -3.44751094613523    0.57329733119095
C         0.26389503009869   -3.00064330939570    1.79271357928386
C        -0.75169804430509   -2.29566998943698    2.57278906828929
C        -1.94410141074359   -2.28713326879679    1.82742228899261
C        -0.24209353382342   -3.01542279167218   -1.83779602699849
C         0.74625682324485   -2.29056198673031   -2.59726512669140
C         1.97388260503188   -2.28917317880801   -1.84066336237399
C         1.73662747185475   -3.00892564072834   -0.61230199360787
C         0.37369330559286   -3.45789217038505   -0.61473905583565
C         2.78578899462638   -1.16616547493086   -1.83692732453566
C         2.40812616180848    0.00285371324550   -2.59476406874989
C         2.78860000662916    1.16593709754469   -1.83669323449016
C         3.39853819906506    0.71635003903540   -0.61097684710447
C         3.39506543216000   -0.71801656419933   -0.60912695976248
C         1.96742592069728    2.28781636470277   -1.82968828931606
C         0.74391127308841    2.28940181355691   -2.58364666983165
C        -0.24988153591892    3.01207168900449   -1.82161329469222
C         0.36111570312857    3.45271889812981   -0.59985497889382
C         1.73224823387719    3.00422532412202   -0.59972489267426
C        -1.57351392955993    2.58699727767545   -1.82705356224465
C        -1.95086925156765    1.42077257660493   -2.58860368620285
C        -2.94635442471491    0.70242797991412   -1.83307719087373
C        -3.18513365096541    1.42585789906908   -0.61068219369067
C        -2.33518408392401    2.58973950463350   -0.60784612622540
C        -2.93921777424742   -0.68756399670096   -1.82407518873336
C        -1.94474366934861   -1.41097704567016   -2.57912811404584
C        -1.56159726827657   -2.57580736097187   -1.82285911499155
C        -2.30714814862660   -2.57162307806296   -0.59320659473535
C        -3.16522410260634   -1.39842280107233   -0.59540482215489
C        -0.99301932145194   -0.71733349919245   -3.31336470569275
C        -0.99483215679311    0.72475106271882   -3.31411259475010
C         0.37745915004409    1.16857766927168   -3.31642833253220
C         1.22396713466407    0.00354460349440   -3.32102181378420
C         0.37765872154498   -1.16401664400522   -3.32000632647023
Cl       -1.93902836023836    0.00147197879003    5.24285738492788
Cl        3.07341718610193   -2.24528255783267    4.08788537705805
62
 energy: -137.552582005583 gnorm: 0.003528437328 xtb: 6.4.1 (a3dbbd7)
C        -1.30020136116649    0.01063143669845    3.52486224032849
C        -0.35790498885372   -1.15832006614215    3.29957661958331
C         0.95029221992717   -0.71549399289088    3.26994744541716
C         0.96862327816149    0.72417136921881    3.26142531169352
C        -0.38210941542430    1.18752749381144    3.30071007379262
C         2.31434881236976   -2.57329352774574    0.57628288858241
C         3.15566362852213   -1.40285395609209    0.57949159000976
C         2.94716796399366   -0.69510963059324    1.80179681159292
C         2.08134924058462   -1.51911234660893    2.72681547888842
C         1.57508190686044   -2.59866391842362    1.79901142187908
C         3.16437181712731    1.40172462683041    0.57514244880052
C         2.32094489411045    2.57178684380212    0.57857915061210
C         1.56855526322492    2.57571075705322    1.80956779906699
C         1.94313507674802    1.42593404664298    2.56513588840306
C         2.92934168692209    0.67901968497278    1.79385962454906
C        -0.36798279697949    3.44625094855920    0.58619937999880
C        -1.74386894144989    3.00943834405307    0.58370888422043
C        -1.99062794829643    2.30177613148337    1.80554179782971
C        -0.74560528664009    2.28978570147204    2.56705974289779
C         0.24178307685758    3.00940713557057    1.80807075375203
C        -3.40754650780022    0.73137136553750    0.57192359541986
C        -3.39273663706261   -0.70519181315821    0.57732182841871
C        -2.76594234526099   -1.13053018621520    1.81925077935895
C        -2.42467510347326    0.00266801024208    2.55198600409990
C        -2.78997144441262    1.16971141314506    1.80132639058502
C        -1.71601903648064   -2.99687000060934    0.58283375023934
C        -0.35080812899690   -3.44924841252036    0.57322580540833
C         0.26363026788340   -3.00185087474615    1.79160100497703
C        -0.75177240670563   -2.29704139864652    2.57120113976302
C        -1.94474210123235   -2.28898839749922    1.82788527588895
C        -0.24225348778823   -3.01558076966520   -1.83717742891663
C         0.74613631951880   -2.29066395077276   -2.59649874286475
C         1.97394572293872   -2.28943814005382   -1.84018726790829
C         1.73661805040681   -3.00959677669837   -0.61225663964135
C         0.37339827767524   -3.45881077565868   -0.61446102307246
C         2.78584609685507   -1.16638483140814   -1.83649320456570
C         2.40821451552509    0.00273906538784   -2.59419176505636
C         2.78872584604314    1.16588114903214   -1.83633061309310
C         3.39905903625604    0.71654134464542   -0.61083013301179
C         3.39556719642532   -0.71806449967148   -0.60916841259436
C         1.96771285103925    2.28788435504582   -1.82934484810740
C         0.74415843274502    2.28955426221973   -2.58322590723454
C        -0.24958367666555    3.01221772166705   -1.82106087050998
C         0.36157088602472    3.45313656334556   -0.59931066479400
C         1.73275162668599    3.00460218961033   -0.59944771923825
C        -1.57313518589177    2.58696559458639   -1.82613249805181
C        -1.95042862542317    1.42054040646764   -2.58743475523113
C        -2.94566102985494    0.70217044005371   -1.83152825505822
C        -3.18444288083946    1.42562225393048   -0.60944221693854
C        -2.33468102322312    2.58972540902933   -0.60684302270993
C        -2.93884400677502   -0.68771288891644   -1.82267921746247
C        -1.94467519346860   -1.41107028922774   -2.57815792071936
C        -1.56180857615426   -2.57613577783762   -1.82213129295168
C        -2.30763313153866   -2.57261805596344   -0.59262328608170
C        -3.16537418906001   -1.39878626984851   -0.59434723516070
C        -0.99294845132149   -0.71745073440647   -3.31242869195185
C        -0.99465571481228    0.72468176999097   -3.31327913244474
C         0.37763998854705    1.16853687119381   -3.31582610964927
C         1.22404500242985    0.00344812906996   -3.32040858401585
C         0.37769010543949   -1.16412790285853   -3.31921648931803
Cl       -1.93581877427074   -0.00523909490929    5.23719625757106
Cl        3.06132202128708   -2.23699647311647    4.09165350403981
62
 energy: -137.552597501218 gnorm: 0.001511717631 xtb: 6.4.1 (a3dbbd7)
C        -1.30022769800733    0.01068966619312    3.52427351122778
C        -0.35750334956401   -1.15795256468317    3.29726243289891
C         0.94995543342356   -0.71450649155020    3.26890415006883
C         0.96896656837172    0.72454447095768    3.26106015765243
C        -0.38137673140589    1.18799407598116    3.29996730459107