63
 energy: -142.081297456560 gnorm: 0.136654480901 xtb: 6.4.1 (a3dbbd7)
C        -1.29585809770389    0.00401118895665    3.54517689253707
C        -0.36796043462932   -1.17243305037605    3.30515820978008
C         0.98298838983527   -0.72191219207564    3.27512267938171
C         0.98156472667820    0.71960753568128    3.26971969810914
C        -0.37066843460465    1.17924059903467    3.30150764336582
C         2.33648296603916   -2.58548060331365    0.57950289353032
C         3.18657767574002   -1.41946403927647    0.57781419519059
C         2.94957050639235   -0.69854930596759    1.80123308070154
C         1.95308396824160   -1.41752165468763    2.55613481575760
C         1.57961582989334   -2.57968580837377    1.80518673242103
C         3.18767024140451    1.40991878522763    0.57593180000620
C         2.33807592116844    2.57402574447607    0.57591940981122
C         1.57683795432701    2.56605672107525    1.79975339071644
C         1.95304946465436    1.40835201077487    2.55205927518980
C         2.95072023087345    0.68875745016373    1.80098024572921
C        -0.36516779407368    3.42666371337356    0.57921714423118
C        -1.72924376763824    3.01648005769000    0.58287705261872
C        -2.09463355992581    2.46231283092052    1.94730853815858
C        -0.73027134402217    2.28553619303067    2.58224921102021
C         0.24829448349984    2.97593693112150    1.80334175266563
C        -3.37466967425340    0.70300551354290    0.57574930054980
C        -3.39003092747716   -0.73268815647906    0.56838248265369
C        -2.76818811332164   -1.16356142379097    1.78871572221350
C        -2.38904763706855    0.02437925876362    2.53264263719760
C        -2.74834472563595    1.12995086275151    1.81420011519069
C        -1.73481952350512   -3.00995345714269    0.57938225060336
C        -0.36149853481650   -3.44686666227317    0.58178847315895
C         0.25217194581416   -2.99475012292755    1.80551621994623
C        -0.72930832442940   -2.27346636839910    2.56467955448571
C        -1.97147545426586   -2.28746259170963    1.79868366133100
C        -0.24419850626392   -3.01431906333444   -1.82647673840836
C         0.74940205407495   -2.29291975825760   -2.58286291053874
C         1.97453700933417   -2.29239152843074   -1.82543977586922
C         1.74139873400736   -3.01127177410490   -0.59946235558356
C         0.36858334367966   -3.45436466613801   -0.59762914044760
C         2.79442417392884   -1.17031401259636   -1.82833550603033
C         2.41574661888024   -0.00512369156855   -2.58546959716668
C         2.79806943075341    1.16104826420258   -1.83045397172065
C         3.41356646771945    0.71553904943849   -0.60565027142670
C         3.41126633561149   -0.72579612454708   -0.60436594395851
C         1.98256115248497    2.28538932455247   -1.82964816243281
C         0.75350030257848    2.28551308199782   -2.58573232036207
C        -0.23508280213456    3.00436687409655   -1.82344140492918
C         0.37359850932028    3.44286488622179   -0.60220138863872
C         1.74684322376492    3.00246743943424   -0.60372642363492
C        -1.55566653231806    2.56818250386052   -1.80941223575869
C        -1.93859434646944    1.40592010794080   -2.57168095880615
C        -2.93551210457882    0.68461262535792   -1.82146846772098
C        -3.16898901542976    1.39767486975662   -0.59605965548237
C        -2.30435127723071    2.57332623923171   -0.58497549467516
C        -2.94114405309208   -0.70773319324488   -1.83440725641731
C        -1.94505174577217   -1.42387954875747   -2.59102123506710
C        -1.56548890447542   -2.59170746585215   -1.83211639425372
C        -2.32839595515909   -2.59312664323360   -0.60918315818311
C        -3.17773883494341   -1.43218193772331   -0.61434027474195
C        -0.98775846759569   -0.72638522820754   -3.31322849837523
C        -0.98659864719709    0.71557045430270   -3.30737103326374
C         0.38544609985482    1.16109326139683   -3.31071431261235
C         1.23106807703669   -0.00470839638716   -3.31198800126459
C         0.38446650889097   -1.17000629330740   -3.31255499443923
Cl       -1.95494402230001   -0.00808767739961    5.23350834621500
Cl       -3.13453400437008    3.62205440029917    2.87428256883422
Cl        4.45187837800386   -1.07415346056724    2.73829902178657
63
 energy: -142.105524471647 gnorm: 0.058517785599 xtb: 6.4.1 (a3dbbd7)
C        -1.29714500935486    0.00456466344709    3.54409382312038
C        -0.37392404702402   -1.17475597006394    3.30442443045371
C         0.97354261798037   -0.72293604879004    3.26453359602999
C         0.97755320272476    0.72252826348235    3.26561033920539
C        -0.37107215859011    1.17995661484049    3.29955540034052
C         2.32827839954437   -2.58066330036240    0.57233496455413
C         3.17738229200747   -1.42465899080605    0.56455059053068
C         3.04052888768272   -0.72310327109129    1.85769142165807
C         1.93832289629041   -1.42144512352851    2.55299357742237
C         1.56992114333205   -2.57349086305377    1.79956831315011
C         3.17362721026185    1.41463780607219    0.57628344494610
C         2.33142190012433    2.58572987824846    0.57403490818715
C         1.57160915135063    2.57879903460141    1.79615508651336
C         1.94612260829054    1.41338808778045    2.53976210175752
C         2.95772029315397    0.71318817811477    1.80457093854406
C        -0.36969533431055    3.43133596568752    0.57776578345091
C        -1.73248656090348    3.01829498653703    0.58226245773666
C        -2.09672100866450    2.46347959206248    1.94676290976569
C        -0.73272327348682    2.29057443074084    2.58177424100526
C         0.24315048722051    2.98437013200383    1.80268262399915
C        -3.37573843407246    0.70339790396454    0.57528664957663
C        -3.39140049193830   -0.73244997732457    0.56772939404707
C        -2.76994360837012   -1.16347495303285    1.78758207848448
C        -2.39010362082252    0.02462340523482    2.53173688982752
C        -2.74940513296682    1.13028617872466    1.81360068599252
C        -1.73867044960030   -3.01168196937305    0.57786470371860
C        -0.36607039699084   -3.44925990221209    0.57966671784940
C         0.24389484515713   -2.99790404975974    1.80488236039531
C        -0.73524621770928   -2.27742717646793    2.56408337227834
C        -1.97552909633221   -2.28916551048451    1.79719770967312
C        -0.24744329474725   -3.01642743179448   -1.82932527956553
C         0.74652757781959   -2.29554818931511   -2.58609368018631
C         1.97210288346879   -2.29805333617999   -1.83145660345516
C         1.73731175852081   -3.01493272054908   -0.60702359439967
C         0.36455906540610   -3.45665895420857   -0.60060841444203
C         2.79187999976203   -1.17421804612258   -1.83451918621129
C         2.41330223782430   -0.00625317915684   -2.58556556210992
C         2.79633394620796    1.16094370160051   -1.82944868085183
C         3.40863379055595    0.71793390909804   -0.60821360892409
C         3.39747882335352   -0.72780235715899   -0.60891695264942
C         1.98028301808933    2.28920871007632   -1.83156356754927
C         0.75286659811078    2.28645048790196   -2.58581687658377
C        -0.23745529232350    3.00561118725980   -1.82452150472118
C         0.36930172301647    3.44717006546317   -0.60399554904508
C         1.74269205063883    3.00921166087815   -0.60664125195956
C        -1.55700591383291    2.56823793314505   -1.80995964332134
C        -1.93946554071267    1.40572289593286   -2.57235952705287
C        -2.93551149771226    0.68454965347629   -1.82225087024433
C        -3.16960245595032    1.39776658855808   -0.59642886120356
C        -2.30627597946960    2.57378699990422   -0.58558290668651
C        -2.94212115235562   -0.70779863874004   -1.83546961303942
C        -1.94646453590513   -1.42401110486625   -2.59224461342970
C        -1.56796242771037   -2.59206416962266   -1.83379643137982
C        -2.33095082687371   -2.59326474282855   -0.61075629250284
C        -3.17900839935246   -1.43197856816928   -0.61544287143219
C        -0.98858897504544   -0.72669794715623   -3.31415238224171
C        -0.98667476029808    0.71560696509362   -3.30789538158603
C         0.38448009470756    1.16097900551704   -3.31167739283204
C         1.22934483401065   -0.00533938821670   -3.31224861899062
C         0.38281290633756   -1.17093252586240   -3.31389967665875
Cl       -1.95516996367569   -0.00760937005120    5.23269038782588
Cl       -3.13714946535583    3.62180476379520    2.87479503063433
Cl        4.57756323729133   -1.11453899466995    2.81395559546015
63
 energy: -142.111530989467 gnorm: 0.013437982298 xtb: 6.4.1 (a3dbbd7)
C        -1.29803668950245    0.00544459433819    3.54041431295664
C        -0.37282326045807   -1.17095834652426    3.29637031929751
C         0.97640491734431   -0.72380779960007    3.25871701193808
C         0.97754943970209    0.72403537354769    3.26667461956059
C        -0.36967499160499    1.17905273334636    3.29601310901420
C         2.32593399330152   -2.56911850095411    0.56968474185628
C         3.18168176024320   -1.42804551150254    0.56359192032155
C         3.12000461768965   -0.74741415646529    1.90668183185935
C         1.94056541250212   -1.42336203604828    2.55610189516360
C         1.56704423628176   -2.56035709674405    1.79719422271927
C         3.16508539342830    1.40819909269765    0.58021805305450
C         2.32517456448620    2.58403689006993    0.57272275793663
C         1.56752502152562    2.57790096512886    1.79268935593383
C         1.94533617961771    1.40727367377262    2.53103946745827
C         2.95510082368770    0.71600811418030    1.80227244004565
C        -0.37409787251311    3.43454649938295    0.57654422988772
C        -1.73657100794672    3.02027229661407    0.58083406299480
C        -2.09962048094037    2.46445916323976    1.94552632086604
C        -0.73550322562921    2.29292399488018    2.58055068383743
C         0.23925521965878    2.98550375652711    1.80078534451191
C        -3.37862491269086    0.70434081730404    0.57337067037120
C        -3.39411881552816   -0.73169303971440    0.56566937203232
C        -2.77301362148262   -1.16282584314152    1.78522827600289
C        -2.39218844609460    0.02559163557981    2.52924397349332
C        -2.75218918061617    1.13114229637581    1.81167648782128
C        -1.74248294989384   -3.01156864213681    0.57533725588870
C        -0.36936688073619   -3.44726911931169    0.57760265749618
C         0.24062229077661   -2.99307637972019    1.80207938084801
C        -0.73750537099058   -2.27514333722090    2.55891989407016
C        -1.97973403002110   -2.28952367244131    1.79516434004538
C        -0.25152375546652   -3.01688083330212   -1.83190889913295
C         0.74294123114951   -2.29708495609760   -2.58958133533910
C         1.96702541293485   -2.29830399101760   -1.83237338603712
C         1.73382496227245   -3.01174301273129   -0.60919756060797
C         0.36130292481201   -3.45501728307180   -0.60264173399859
C         2.78493834681912   -1.17282360873713   -1.83053563005052
C         2.40874588751036   -0.00634458460556   -2.58379934911860
C         2.79301548489895    1.15986303745260   -1.82575086703963
C         3.40906725081268    0.71886819022114   -0.60936250489053
C         3.39332591339218   -0.73028001559365   -0.60454226346079
C         1.97632623995600    2.29076201284853   -1.83329214401436
C         0.75048764107622    2.28673131874436   -2.58626121490158
C        -0.24118602325987    3.00689145862022   -1.82610311385090
C         0.36517753681600    3.45006438665078   -0.60577082325490
C         1.73792856074745    3.00965324780381   -0.60782433170650
C        -1.56002004568733    2.56884089103370   -1.81152132047658
C        -1.94257883270450    1.40610084151592   -2.57409155399410
C        -2.93779144922686    0.68499873867749   -1.82427238181333
C        -3.17219241186376    1.39858530390281   -0.59811104012348
C        -2.30970400433396    2.57471437945784   -0.58711359526181
C        -2.94547496589896   -0.70730756442054   -1.83787719753417
C        -1.95001150418243   -1.42375684174482   -2.59460528575594
C        -1.57210531579282   -2.59195282558797   -1.83650310926572
C        -2.33516904675750   -2.59293924596836   -0.61342151466381
C        -3.18225114055067   -1.43145550088641   -0.61785768019034
C        -0.99134238538074   -0.72650438064517   -3.31578130859646
C        -0.98905506156213    0.71606360076903   -3.30919517754671
C         0.38136942420447    1.16108213465262   -3.31333281735014
C         1.22627297760027   -0.00532327041589   -3.31286278629707
C         0.37964062204537   -1.17130436143414   -3.31607063495798
Cl       -1.95475081915360   -0.00634507802741    5.22955647467867
Cl       -3.14201787142346    3.62107386878890    2.87408264506518
Cl        4.67187724038531   -1.13790159408857    2.86961156508323
63
 energy: -142.111846588435 gnorm: 0.008113564390 xtb: 6.4.1 (a3dbbd7)
C        -1.29669429233040    0.00576404122381    3.53771193671947
C        -0.37013872600700   -1.16903651049755    3.29255422633875
C         0.98090647960379   -0.72421221965299    3.26047256519883
C         0.97797972065205    0.72475946932772    3.26921862788900
C        -0.36903027782697    1.17966399642134    3.29529577090859
C         2.32750575603478   -2.56535842379687    0.57037904307318
C         3.19049686567152   -1.43023627753883    0.56787483504217
C         3.13930540251591   -0.75485716294281    1.91868665871097
C         1.94844491260232   -1.42479952271590    2.56183397890638
C         1.56842904233387   -2.55583012686957    1.79791161889676
C         3.16507981954481    1.40371702566549    0.58219209491571
C         2.32297399528869    2.57991592654248    0.57221213832820
C         1.56622137608645    2.57423852285693    1.79140566569132
C         1.94716209328819    1.40337926043664    2.53057817029543
C         2.95353521748183    0.71107790886246    1.80139675469008
C        -0.37539991774719    3.43496379142700    0.57604224098055
C        -1.73816863243772    3.02119183641509    0.58011706350919
C        -2.10089643868042    2.46480161057593    1.94483811386305
C        -0.73670054869942    2.29354845250213    2.58022241016530
C         0.23829156908413    2.98424552050918    1.79968323187139
C        -3.38032680921022    0.70499612697813    0.57224390498426
C        -3.39594148293584   -0.73109782243954    0.56453249755722
C        -2.77416326985455   -1.16199499388935    1.78379208008735
C        -2.39203879134176    0.02623210413064    2.52745744752456
C        -2.75318122598739    1.13158166191947    1.81040867728859
C        -1.74402115529629   -3.01066682122983    0.57415191686797
C        -0.37032295642073   -3.44453500358826    0.57661179017814
C         0.24114734531521   -2.98893291238150    1.79985778911856
C        -0.73716481283338   -2.27277834469543    2.55610289023808
C        -1.98094539197560   -2.28865084957605    1.79402889357026
C        -0.25342419362238   -3.01642551772974   -1.83282383901566
C         0.74123746339880   -2.29698695444595   -2.59048100728020
C         1.96475590360382   -2.29706169620762   -1.83122181068435
C         1.73241711336406   -3.00870374046962   -0.60790074999347
C         0.36005900315198   -3.45264936598761   -0.60306701224104
C         2.78192945545424   -1.17161709787672   -1.82638040725644
C         2.40621372389317   -0.00644468554535   -2.58166359390662
C         2.79194750324188    1.15936777140243   -1.82441486520246
C         3.41129036864628    0.71885370056326   -0.61017553050301
C         3.39646830757693   -0.73153695260686   -0.60142390549362
C         1.97470723643823    2.29027350395589   -1.83385915247751
C         0.74927221803043    2.28639557231359   -2.58658879903575
C        -0.24263614018818    3.00726283085488   -1.82691335447971
C         0.36395783736548    3.45023242762067   -0.60637257329865
C         1.73616383374128    3.00801098638317   -0.60779494916483
C        -1.56147492780727    2.56939353078287   -1.81248313506516
C        -1.94436926965057    1.40656156777371   -2.57518445415085
C        -2.93947506341978    0.68553011470908   -1.82545187803023
C        -3.17384886724200    1.39935473588094   -0.59914850960868
C        -2.31132328625717    2.57543594388799   -0.58794827310154
C        -2.94766589378653   -0.70685256909281   -1.83920842582173
C        -1.95231168791254   -1.42362814989355   -2.59604644178546
C        -1.57436028345445   -2.59185810988239   -1.83788759194049
C        -2.33751828594754   -2.59266525874171   -0.61466188674289
C        -3.18450798715346   -1.43110192194999   -0.61910946668509
C        -0.99326074245383   -0.72635141633108   -3.31691103082833
C        -0.99070444561688    0.71632317813196   -3.31013499506442
C         0.37970930579087    1.16102755540591   -3.31413636018262
C         1.22461009156158   -0.00533464819717   -3.31244566906918
C         0.37774508201143   -1.17118945812989   -3.31668268388109
Cl       -1.95330582779568   -0.00927626430155    5.22664763800825
Cl       -3.14548597274009    3.62001549800631    2.87315875848676
Cl        4.68866871964382   -1.13785249603933    2.87950805496544
63
 energy: -142.111945243867 gnorm: 0.004745104142 xtb: 6.4.1 (a3dbbd7)
C        -1.29582646137429    0.00582666206530    3.53668634406979
C        -0.36869248761397   -1.16814044267615    3.29056197363940
C         0.98302985488115   -0.72419540401585    3.26175458273002
C         0.97754973375049    0.72545301698225    3.27121956465632
C        -0.36905240949424    1.18031167330158    3.29561565710592
C         2.32789389362029   -2.56302363454775    0.57057260152973
C         3.19531771375431   -1.43094729307583    0.57042205455537
C         3.14702753353126   -0.75808014712094    1.92358038575033
C         1.95285935963227   -1.42500778768106    2.56496404070582
C         1.56867662362969   -2.55301271084282    1.79811565681026
C         3.16531090478636    1.40081238033845    0.58291624187215
C         2.32173931298785    2.57720593700709    0.57181447490630
C         1.56552385647693    2.57176339944587    1.79056024402665
C         1.94808500423929    1.40095257389075    2.53071813966343
C         2.95105031604637    0.70702085784939    1.79997285425875
C        -0.37546629603733    3.43489476788346    0.57595447077800
C        -1.73845754530221    3.02165149389298    0.58000823063729
C        -2.10136847169183    2.46500602157061    1.94469831160422
C        -0.73735986066425    2.29395918511954    2.58045703170892
C         0.23809139269347    2.98344752757615    1.79932474820573
C        -3.38095579646796    0.70530033077929    0.57193766550368
C        -3.39686017236008   -0.73081487002607    0.56424031237753
C        -2.77470625998430   -1.16153356271533    1.78331599848998
C        -2.39175542934513    0.02653281327283    2.52686738121648
C        -2.75328451853204    1.13175801410396    1.80999365996887
C        -1.74488188156441   -3.01034984822273    0.57387337491161
C        -0.37083010181931   -3.44292923920416    0.57615140722574
C         0.24139219185497   -2.98636254590168    1.79838354896702
C        -0.73714014318068   -2.27149373382324    2.55481715403905
C        -1.98167468262560   -2.28822201489707    1.79368275450110
C        -0.25418865701259   -3.01632764237428   -1.83335358444584
C         0.74048249453140   -2.29703110511998   -2.59104166310438
C         1.96379622081990   -2.29646751694247   -1.83075114029902
C         1.73138011599524   -3.00678710683329   -0.60698179130490
C         0.35941982210728   -3.45125599126144   -0.60318871756943
C         2.78046234199274   -1.17115211332543   -1.82416544263457
C         2.40505584515366   -0.00658119251809   -2.58051446501613
C         2.79196001474626    1.15926873182627   -1.82439295611864
C         3.41293907820106    0.71906751819155   -0.61146617429174
C         3.39814521218597   -0.73199825573012   -0.60010535161736
C         1.97433962964698    2.28994743555032   -1.83444698863229
C         0.74912259329256    2.28613506019809   -2.58686364958443
C        -0.24280334878675    3.00738207950565   -1.82727376577510
C         0.36392979255367    3.45005427199541   -0.60653813971452
C         1.73574425796106    3.00710139607960   -0.60780746093715
C        -1.56161665408138    2.56959938590086   -1.81276329269588
C        -1.94476024026004    1.40668212343083   -2.57550112869582
C        -2.93978440970715    0.68571308763800   -1.82572658193876
C        -3.17416861537683    1.39971651086011   -0.59937420262009
C        -2.31155204059586    2.57572424948380   -0.58810125886026
C        -2.94839977503891   -0.70669480337634   -1.83956948748985
C        -1.95319880019262   -1.42370783699371   -2.59657996021818
C        -1.57532976579302   -2.59204003616283   -1.83845395697326
C        -2.33864004881157   -2.59274636714933   -0.61505017687169
C        -3.18546286495473   -1.43102086527691   -0.61944175789350
C        -0.99401546157501   -0.72638488878093   -3.31744796281750
C        -0.99118890650890    0.71633857095938   -3.31056286092714
C         0.37926491279767    1.16090047707605   -3.31463056995003
C         1.22410419624824   -0.00544611367800   -3.31236158803722
C         0.37697050017430   -1.17118282980441   -3.31690198323665
Cl       -1.95254140926093   -0.01307292985720    5.22548554581461
Cl       -3.14738496749147    3.61947319847887    2.87275224082615
Cl        4.69050892099734   -1.13339704409521    2.88054654009380
63
 energy: -142.111986434860 gnorm: 0.002544655229 xtb: 6.4.1 (a3dbbd7)
C        -1.29561324424513    0.00571329252898    3.53677775237549
C        -0.36829511014476   -1.16797718186867    3.28993210069502
C         0.98331989272535   -0.72411078074054    3.26197656579456
C         0.97694825185982    0.72579339132685    3.27214565437719
C        -0.36926581130736    1.18056769077819    3.29631858555705
C         2.32753245516602   -2.56199492214874    0.57037900863792
C         3.19631638496521   -1.43081960094942    0.57106735671526
C         3.14934556075937   -0.75888699168063    1.92506507019467
C         1.95387147929766   -1.42463360953860    2.56550640205819
C         1.56824549434711   -2.55179089549068    1.79793323479734
C         3.16508577467138    1.39946991984315    0.58290542436077
C         2.32129420457808    2.57621883905692    0.57166156134220
C         1.56533951291698    2.57084573394711    1.79019789332783
C         1.94813530639959    1.39985332156900    2.53063122925452
C         2.94866126388815    0.70481381399864    1.79852210734183
C        -0.37504946483313    3.43467751495976    0.57610667012122
C        -1.73813842004339    3.02176182375327    0.58017097178503
C        -2.10123946200470    2.46506086709032    1.94482454031703
C        -0.73752251014198    2.29410777896793    2.58090367330760
C         0.23825265443460    2.98318155689123    1.79947915551381
C        -3.38089474220014    0.70538531936709    0.57203978472297
C        -3.39702597940363   -0.73072218277560    0.56437931065484
C        -2.77483899205166   -1.16141207894396    1.78341219588599
C        -2.39162819671477    0.02660040796889    2.52700815437641
C        -2.75295548146542    1.13177362540509    1.81003542288005
C        -1.74516924563708   -3.01040134138089    0.57404829265162
C        -0.37099877602838   -3.44249150634298    0.57610107430313
C         0.24137238473608   -2.98556275030126    1.79784271782425
C        -0.73733035364187   -2.27121670975114    2.55465852689632
C        -1.98199540420066   -2.28820692948826    1.79380463770008
C        -0.25425299739650   -3.01643044286595   -1.83354055667349
C         0.74036268137846   -2.29721547018199   -2.59131432676194
C         1.96368515682208   -2.29649496265456   -1.83080816185109
C         1.73090315279312   -3.00623354102675   -0.60666502189769
C         0.35924849943149   -3.45088442572778   -0.60316649715668
C         2.78010937883474   -1.17124227051111   -1.82358427791083
C         2.40497286220147   -0.00673799095249   -2.58029737070636
C         2.79246085395495    1.15927789871099   -1.82485346121370
C         3.41365682884504    0.71922316441229   -0.61244037287366
C         3.39826560833395   -0.73210034409438   -0.59997093135159
C         1.97462462097161    2.28983768541234   -1.83482709006900
C         0.74948967101229    2.28602018297666   -2.58692772251311
C        -0.24243381476547    3.00735233812587   -1.82725720721114
C         0.36434888277526    3.44984585883308   -0.60643105082775
C         1.73602290099936    3.00691115882264   -0.60783050196937
C        -1.56119259395148    2.56959584451202   -1.81263185142945
C        -1.94443684811752    1.40665435392214   -2.57536896647198
C        -2.93941726432835    0.68574481036850   -1.82555658774609
C        -3.17380278888905    1.39980945597597   -0.59920455806482
C        -2.31116124181117    2.57574743647360   -0.58793330513378
C        -2.94826379175864   -0.70663556897623   -1.83941414828769
C        -1.95315441863586   -1.42375039673301   -2.59649366312262
C        -1.57543132965544   -2.59217464728011   -1.83846443021408
C        -2.33883363648442   -2.59285186200498   -0.61496593641124
C        -3.18547214976129   -1.43099932956441   -0.61930085429512
C        -0.99397390317845   -0.72642214606809   -3.31746579353878
C        -0.99098921820831    0.71630318566941   -3.31056962568618
C         0.37949762095251    1.16080271222871   -3.31476482102689
C         1.22429701357034   -0.00556098367573   -3.31247457708079
C         0.37694495602075   -1.17123960045577   -3.31685806915068
Cl       -1.95237472875358   -0.01559456364114    5.22560080165732
Cl       -3.14796972261688    3.61932928782959    2.87258307115707
Cl        4.68633549051832   -1.12789136568678    2.87796992294170
63
 energy: -142.111999283962 gnorm: 0.001390669564 xtb: 6.4.1 (a3dbbd7)
C        -1.29578654031819    0.00558107456160    3.53720235870314
C        -0.36849971173025   -1.16821307005667    3.29016752631419
C         0.98283058405039   -0.72416245127395    3.26168221395899
C         0.97671870825940    0.72573540779947    3.27211979948689
C        -0.36936810043093    1.18046565671296    3.29676210222694
C         2.32720870941469   -2.56218165894518    0.57018236422202
C         3.19537927606225   -1.43063904017010    0.57059474022945
C         3.14926222900406   -0.75856946913029    1.92500512734387
C         1.95302929983973   -1.42444247147111    2.56481372791901
C         1.56789920206925   -2.55201701503086    1.79777246477548
C         3.16472149565527    1.39947169621630    0.58263724191258
C         2.32145212911746    2.57651971460468    0.57172993767956
C         1.56550922597656    2.57114520829600    1.79027718053618
C         1.94778127701009    1.39987142134985    2.53041344339556
C         2.94754738713303    0.70456103926135    1.79779802504276
C        -0.37472661797676    3.43459172643295    0.57626585276409
C        -1.73779480282619    3.02168625039351    0.58033189621613
C        -2.10093985865674    2.46502299203518    1.94497024022466
C        -0.73737425401856    2.29406652750297    2.58115101180993
C         0.23844509410716    2.98328924954987    1.79975749494369
C        -3.38062452532008    0.70535958349525    0.57221036641908
C        -3.39682416575075   -0.73074195921817    0.56457193562298
C        -2.77477298470760   -1.16151545787350    1.78365456530887
C        -2.39165207586257    0.02653320856294    2.52731455225662
C        -2.75268505770840    1.13172654357048    1.81021051599262
C        -1.74509329236474   -3.01054750259941    0.57422731338918
C        -0.37096621990330   -3.44280892639321    0.57621316478764
C         0.24126489701387   -2.98601828240029    1.79801534488251
C        -0.73749664868998   -2.27154380409006    2.55500879339457
C        -1.98198769309398   -2.28839001515477    1.79400286796131
C        -0.25408008693360   -3.01653824657450   -1.83349453653587
C         0.74051394632117   -2.29736603000363   -2.59131976812521
C         1.96391615121902   -2.29677593393168   -1.83102397431619
C         1.73095806339298   -3.00662465788876   -0.60679986905359
C         0.35932911421693   -3.45116717092541   -0.60313162363828
C         2.78036932248537   -1.17151567009535   -1.82394025702622
C         2.40537144411474   -0.00684052612935   -2.58059812306846
C         2.79287745335215    1.15925307843196   -1.82516336678415
C         3.41364704043140    0.71918172090796   -0.61265679682765
C         3.39781216558583   -0.73214364894698   -0.60030939940266
C         1.97499375857918    2.28986789553847   -1.83488419368216
C         0.74982893998066    2.28603487790904   -2.58683515268009
C        -0.24211646033645    3.00730219188537   -1.82708885507570
C         0.36466282864933    3.44980281811143   -0.60628410078711
C         1.73640276545641    3.00709487944006   -0.60784563049416
C        -1.56085836926711    2.56955821055785   -1.81243292578371
C        -1.94409592274838    1.40664297560927   -2.57517508585487
C        -2.93909338427533    0.68576179183159   -1.82536729808444
C        -3.17344968465035    1.39979174683109   -0.59901211981340
C        -2.31081867574067    2.57569732934586   -0.58776166384713
C        -2.94795406962097   -0.70659924874974   -1.83920230305647
C        -1.95284732532659   -1.42370705564690   -2.59625592697625
C        -1.57520716109030   -2.59216134914422   -1.83829256207511
C        -2.33860730494470   -2.59285332160195   -0.61480450274055
C        -3.18516872999209   -1.43097320610214   -0.61911079201386
C        -0.99369004305778   -0.72640525110912   -3.31728147500717
C        -0.99068034984816    0.71631300672283   -3.31041308272673
C         0.37982051381836    1.16079215793602   -3.31468190764796
C         1.22460933733974   -0.00560875240192   -3.31257655868469
C         0.37717997767031   -1.17129408174658   -3.31675389376696
Cl       -1.95255805091498   -0.01599910136418    5.22607214592513
Cl       -3.14770938862700    3.61943509444800    2.87260929022152