156
 energy: -517.191567779630 gnorm: 0.683514003209 xtb: 6.4.1 (a3dbbd7)
C        -1.23931588510814    0.02154584359428    3.43882407644122
C        -0.39007609511825   -1.23413788959626    3.42715812786708
C         1.04487794029979   -0.75444420069290    3.43774182164746
C         1.02801288781885    0.77395361713646    3.43165718258033
C        -0.37127341659095    1.19797462962720    3.27673641330880
C         2.41291319483809   -2.69566839393164    0.59787287189995
C         3.30769154244272   -1.47056323779910    0.64301045771009
C         2.88641700466374   -0.69625055695008    1.83567356866493
C         1.95607333080632   -1.38058905869634    2.49957236506688
C         1.62035957845610   -2.68629144964341    1.89658680718849
C         3.28244446088651    1.47519559669376    0.61777080321098
C         2.32122530367164    2.60464955477753    0.57139612886170
C         1.62909762340377    2.67433009792567    1.86501276266518
C         1.97282786723637    1.39030009080682    2.51043293238876
C         2.89998852160803    0.70936358799276    1.84097655796097
C        -0.38282109635095    3.59796449494206    0.62567996764516
C        -1.73704694811391    2.97827801803767    0.60386794342057
C        -1.94166010169152    2.32938797464712    1.80667440529184
C        -0.73574777128845    2.28793314363061    2.54302182833526
C         0.21965154920060    2.99857641154276    1.82767942636929
C        -3.36470521122542    0.64755308203596    0.59151997959365
C        -3.37725487206357   -0.69323112635324    0.55634890248680
C        -2.91089130492407   -1.23228926438143    1.86524028150315
C        -2.52984117848101   -0.00346068211011    2.67467711026930
C        -2.89657886968205    1.22185246869698    1.86823567994454
C        -1.74581604726627   -3.03522996677331    0.58256237591394
C        -0.37643596020984   -3.44356133740947    0.61386991234927
C         0.19741649767178   -3.01273747249132    1.76611588341143
C        -0.77821926674479   -2.30020076815289    2.50098358318864
C        -1.93290458097681   -2.31388822394667    1.79992274004321
C        -0.26427205054686   -2.99671846760602   -1.85362642286928
C         0.73747930764186   -2.32334559638327   -2.58714870514712
C         1.95369983442765   -2.30517518097609   -1.81754270314905
C         1.71725986343968   -2.96810818961706   -0.64779220162032
C         0.37545420875156   -3.57735506066154   -0.63946986261565
C         2.76118156222317   -1.16160510740701   -1.85638717750040
C         2.40715114140052   -0.05057029477999   -2.56545597220224
C         2.89181281120517    1.19251415334337   -1.89027065684969
C         3.37152368569582    0.71289303950594   -0.59589435922832
C         3.51994332847094   -0.73332580226944   -0.64605380744637
C         1.97514522186389    2.31572205156415   -1.77393117139391
C         0.79557749939109    2.40298623058833   -2.63765180617754
C        -0.20567582548039    2.99968853168636   -1.73244175574398
C         0.37317524003106    3.42678706345821   -0.61500659922753
C         1.74620412313559    2.99578190068146   -0.59485493049972
C        -1.61970678347044    2.70925756920058   -1.82171122318959
C        -1.99306884996604    1.47923747380771   -2.59522819570839
C        -3.06080147130979    0.69426742777208   -1.87063310707681
C        -3.30141783208043    1.48249528257118   -0.59507401908172
C        -2.31217208729843    2.58203897587955   -0.53870401744267
C        -2.89937740095353   -0.76483908307017   -1.78263233782644
C        -1.96496283429723   -1.45459205476594   -2.52151701845165
C        -1.58137767492324   -2.60558355847708   -1.81952095232719
C        -2.34812092268422   -2.61348675835118   -0.58004925062602
C        -3.18895986881513   -1.45757953274529   -0.60668825610679
C        -1.01302476361953   -0.79022415149325   -3.42389676253460
C        -0.97436304193118    0.72761742295565   -3.38793517127469
C         0.45495974273811    1.18225602902346   -3.42082305879175
C         1.23695057714713   -0.06704012687019   -3.28382849863843
C         0.42344235120558   -1.17580242635944   -3.28436365573507
C        -1.73068434862169    0.15933783340314    4.90839025146036
F        -0.96933742278891    0.40081351640058    5.95951732529304
F        -2.31320940017867   -0.78981393652600    5.53961501425007
F        -2.15027603556172    1.42254232517851    5.20720555344216
C        -0.60729481901131   -1.90771931300443    4.78418471813083
F        -0.50081681618005   -1.37919001170557    5.92376121506989
F        -1.80433647847017   -2.49904863270597    4.89393387417281
F         0.02274053037195   -3.02605497560358    4.98767240912376
C         1.62933404466936   -1.14248255406847    4.79700525928769
F         1.27315808335883   -0.75433147002355    5.94486918988751
F         1.76723044269751   -2.38587131263981    5.08350638687926
F         2.93009328381399   -0.89191362851341    4.91940539430275
C         1.48762439259159    1.21020323502313    4.82559410497542
F         0.72597434812722    1.02036381417453    5.81018294541270
F         2.74880234491971    0.98505747310409    5.06388058351116
F         1.42319201151831    2.49856952587789    5.01937821931153
C         3.35970708386137   -3.88338459285991    0.69530398277864
F         4.18583305583760   -4.07183501694579    1.62502101287131
F         4.07703220422573   -4.09354266307420   -0.40578534454018
F         2.86605253646863   -5.07722301526169    0.69354909965478
C         4.69256648812152   -1.98501464118407    1.04843149124897
F         4.86609648932330   -2.45703427859740    2.31682734710961
F         5.31793046699012   -2.85160000883810    0.35602734077218
F         5.56966167858034   -1.09613997829264    1.40023381214576
C         2.22996537719819   -3.78514017740297    2.77519941150282
F         3.39765711213836   -3.49047926260512    3.28069851773153
F         1.95616317387499   -4.99015457494243    2.33168665134315
F         1.63413190295530   -3.94627242900075    3.91269240746774
C         4.67417600062321    2.06363158219737    0.85661732153419
F         4.82118581467847    2.71147236206068    1.94757002031208
F         5.00984013662247    2.89296947081869   -0.08489669750753
F         5.57485428037286    1.14481427009727    1.02456847079568
C         2.27028438205210    3.81181373126278    2.67076025195529
F         3.50607953266399    3.64805115348423    2.94917325626407
F         2.20139745148429    4.94530344281859    2.04302033425434
F         1.73598321303534    3.98834600782439    3.82909155667368
C        -0.55844291947593    5.07598375285883    0.88357743263192
F        -1.23667994234330    5.24771743416060    2.00117680190369
F        -1.19426794241386    5.65111411664217   -0.09841242489791
F         0.59484345742360    5.67923867468860    0.95756278891835
C        -4.12511393778860   -1.84188434565385    2.55018593908130
F        -5.21808531217194   -1.10639106265261    2.31328819402798
F        -4.60100965972409   -2.88191216189278    1.90030079772078
F        -3.74176735381994   -2.52275023466068    3.64165883569311
C        -3.60354719458399   -0.00778526384634    3.81439627647867
F        -4.95856451765317    0.01152958200520    3.77865390107463
F        -3.82193675795278   -0.99197754337182    4.62336166115195
F        -3.78047500464884    0.93044817974241    4.67626296964431
C        -4.11579053384110    1.82840926757479    2.58068993778072
F        -5.21489076958843    1.10822304749567    2.31047596184843
F        -4.58394233449657    2.91180728951453    2.06949739896660
F        -3.74041757355790    2.47153116047205    3.69285421088295
C         0.52535618700343   -5.06748948836892   -0.89948453311429
F         1.23378919843174   -5.25309607348969   -1.99928654247242
F        -0.66420136842704   -5.62504187804512   -1.02485915345840
F         1.07764046264043   -5.68567193359551    0.09703350783171
C         4.06682451953573    1.74708058183195   -2.68763415389827
F         5.00226297265798    0.94276992615114   -2.96401770489463
F         3.73443817884728    2.06277323497553   -3.90545999274504
F         4.60852882367196    2.78020351654841   -2.11410128098841
C         4.99878157688524   -1.03742849187520   -0.99239844950667
F         5.46643446953150   -0.59238179888443   -2.09547906057046
F         5.16460078004253   -2.28746050958739   -1.45697224480135
F         5.89359076966941   -0.40414223994959   -0.29561161674877
C         1.14377928981471    3.51185463472083   -3.64811568065531
F         1.50799119631981    4.62656229497004   -3.03286311598812
F         2.21241896658333    3.37419985765047   -4.33311936858375
F         0.15575351799684    4.02462472217403   -4.28517619703033
C        -2.24480835228270    3.92913735091270   -2.54179435286085
F        -3.51561147156893    4.05509106682677   -2.48878997600099
F        -1.64435303448765    4.32303353930789   -3.62486886285554
F        -2.02040499128957    5.04417838687322   -1.89595737449547
C        -2.73101202420971    2.18338712173383   -3.67690439700203
F        -3.93749943920064    2.82403257327387   -3.82032293318254
F        -2.46342294025157    3.08206360651772   -4.55494409541842
F        -3.72459744247164    1.35751194182958   -4.96934440991391
C        -4.37191140425576    0.80370234588208   -2.64025176419170
F        -5.06343637965176    1.83092285850592   -2.88889567353919
F        -4.40057019827336    0.09348920897432   -3.77147697947521
F        -5.37851038827718    0.10347690130994   -2.13932848644638
C        -4.68363892327375    2.12605453657785   -0.72250674457662
F        -4.84203695504148    3.10235472103107   -1.53617568394350
F        -5.66618584214551    1.26842226743847   -0.67708353619969
F        -5.00559860355935    2.90917428686388    0.24788506329229
C        -1.42215920267654   -1.24315287760388   -4.81624781434897
F        -0.48056912473530   -1.09998424844252   -5.71541893255229
F        -2.74246139700283   -1.06888212139209   -5.01288619055539
F        -1.42112599141774   -2.55145815909849   -4.94685312168699
C        -1.33198373035486    1.14204220472441   -4.77379899213694
F        -1.08096348642423    0.60213929704621   -5.98745695316671
F        -2.87708582631386    0.70897590714162   -5.59053303346814
F        -1.45371247290899    2.19077929397879   -5.54092133965194
C         0.73320066246269    1.57022609025710   -4.89785488354119
F         0.76323390050688    0.55717852094318   -5.79144792082753
F         0.26670350896563    2.59024657837064   -5.50135219868584
F         1.99100396937372    1.72999388274886   -5.22016952899767
