156
 energy: -483.796168684311 gnorm: 10.130727401022 xtb: 6.4.1 (a3dbbd7)
C        -1.23626340000000    0.00000000000000    3.32997640000000
C        -0.38202640000000   -1.17575640000000    3.32997640000000
C         1.00015810000000   -0.72665740000000    3.32997640000000
C         1.00015810000000    0.72665740000000    3.32997640000000
C        -0.38202640000000    1.17575640000000    3.32997640000000
C         2.34433560000000   -2.60145750000000    0.59464210000000
C         3.19857260000000   -1.42570110000000    0.59464210000000
C         2.96246730000000   -0.69904370000000    1.83090550000000
C         1.96230920000000   -1.42570110000000    2.59495830000000
C         1.58028280000000   -2.60145750000000    1.83090550000000
C         3.19857260000000    1.42570110000000    0.59464210000000
C         2.34433560000000    2.60145750000000    0.59464210000000
C         1.58028280000000    2.60145750000000    1.83090550000000
C         1.96230920000000    1.42570110000000    2.59495830000000
C         2.96246730000000    0.69904370000000    1.83090550000000
C        -0.36750900000000    3.48258920000000    0.59464210000000
C        -1.74969350000000    3.03349030000000    0.59464210000000
C        -1.98579880000000    2.30683290000000    1.83090550000000
C        -0.74953540000000    2.30683290000000    2.59495830000000
C         0.25062270000000    3.03349030000000    1.83090550000000
C        -3.42570570000000    0.72665740000000    0.59464210000000
C        -3.42570570000000   -0.72665740000000    0.59464210000000
C        -2.80757400000000   -1.17575640000000    1.83090550000000
C        -2.42554760000000    0.00000000000000    2.59495830000000
C        -2.80757400000000    1.17575640000000    1.83090550000000
C        -1.74969350000000   -3.03349030000000    0.59464210000000
C        -0.36750900000000   -3.48258920000000    0.59464210000000
C         0.25062270000000   -3.03349030000000    1.83090550000000
C        -0.74953540000000   -2.30683290000000    2.59495830000000
C        -1.98579880000000   -2.30683290000000    1.83090550000000
C        -0.25062270000000   -3.03349030000000   -1.83090550000000
C         0.74953540000000   -2.30683290000000   -2.59495830000000
C         1.98579880000000   -2.30683290000000   -1.83090550000000
C         1.74969350000000   -3.03349030000000   -0.59464210000000
C         0.36750900000000   -3.48258920000000   -0.59464210000000
C         2.80757400000000   -1.17575640000000   -1.83090550000000
C         2.42554760000000    0.00000000000000   -2.59495830000000
C         2.80757400000000    1.17575640000000   -1.83090550000000
C         3.42570570000000    0.72665740000000   -0.59464210000000
C         3.42570570000000   -0.72665740000000   -0.59464210000000
C         1.98579880000000    2.30683290000000   -1.83090550000000
C         0.74953540000000    2.30683290000000   -2.59495830000000
C        -0.25062270000000    3.03349030000000   -1.83090550000000
C         0.36750900000000    3.48258920000000   -0.59464210000000
C         1.74969350000000    3.03349030000000   -0.59464210000000
C        -1.58028280000000    2.60145750000000   -1.83090550000000
C        -1.96230920000000    1.42570110000000   -2.59495830000000
C        -2.96246730000000    0.69904370000000   -1.83090550000000
C        -3.19857260000000    1.42570110000000   -0.59464210000000
C        -2.34433560000000    2.60145750000000   -0.59464210000000
C        -2.96246730000000   -0.69904370000000   -1.83090550000000
C        -1.96230920000000   -1.42570110000000   -2.59495830000000
C        -1.58028280000000   -2.60145750000000   -1.83090550000000
C        -2.34433560000000   -2.60145750000000   -0.59464210000000
C        -3.19857260000000   -1.42570110000000   -0.59464210000000
C        -1.00015810000000   -0.72665740000000   -3.32997640000000
C        -1.00015810000000    0.72665740000000   -3.32997640000000
C         0.38202640000000    1.17575640000000   -3.32997640000000
C         1.23626340000000    0.00000000000000   -3.32997640000000
C         0.38202640000000   -1.17575640000000   -3.32997640000000
C        -1.76086815247998    0.00000000000000    4.78849957557021
F        -0.76911826531252    0.00000000000000    5.67468926254662
F        -2.50968386795825   -1.06794314680471    5.04863888333743
F        -2.50968386795825    1.06794314680471    5.04863888333743
C        -0.54413818249354   -1.67468516033722    4.78849957845317
F        -0.23767107904745   -0.73147481112462    5.67468925997942
F        -1.79120914301982   -2.05683909935453    5.04863874564184
F         0.24013968171955   -2.71686350152345    5.04863903502921
C         1.42457227037960   -1.03501233722714    4.78849957248258
F         0.62223011468481   -0.45207589682711    5.67468926529602
F         1.40265511061956   -2.33913928186680    5.04863905501621
F         2.65809836182651   -0.61117154425495    5.04863869666890
C         1.42457227037960    1.03501233722714    4.78849957248258
F         0.62223011468481    0.45207589682711    5.67468926529602
F         2.65809836182651    0.61117154425495    5.04863869666891
F         1.40265511061956    2.33913928186680    5.04863905501621
C         3.37204091334889   -3.72927672645244    0.86730596148276
F         4.06564647311728   -3.51265957144659    1.98125763710228
F         4.25569947457670   -3.84739838595791   -0.11965645964809
F         2.78580317558591   -4.91533944031226    1.00324916143779
C         4.58877084110522   -2.05459160147071    0.86730597290559
F         4.59709252483521   -2.78118520641283    1.98125951001435
F         4.97417519512416   -2.85850196315549   -0.11965482382298
F         5.53562669678859   -1.13053295630600    1.00324569798425
C         2.28376457660886   -3.72927671755932    2.62817408867206
F         3.59030321655004   -3.51265997057976    2.75037870097715
F         2.14318168460923   -4.91533956626619    2.04303190988612
F         1.79618325340524   -3.84739782561575    3.85992562899767
C         4.58877084110522    2.05459160147071    0.86730597290559
F         4.59709252483521    2.78118520641283    1.98125951001435
F         4.97417519512416    2.85850196315549   -0.11965482382298
F         5.53562669678859    1.13053295630600    1.00324569798425
C         2.28376457660886    3.72927671755932    2.62817408867206
F         3.59030321655004    3.51265997057976    2.75037870097715
F         2.14318168460923    4.91533956626619    2.04303190988612
F         1.79618325340524    3.84739782561575    3.85992562899767
C        -0.53602450593361    4.99908416128281    0.86730591619822
F        -1.22448605650957    5.23152837615597    1.98125850960180
F        -1.18149064144157    5.61404773804446   -0.11965571789346
F         0.63540201352706    5.61404743764837    1.00324736766175
C        -4.03961820246674   -1.67468514775899    2.62817407948106
F        -4.96930660042402   -0.73147479244129    2.75037763231441
F        -4.62303373288711   -2.71686348978894    2.04303253910982
F        -3.71458666614022   -2.05683907990832    3.85992603200073
C        -3.49548004549360    0.00000000000000    3.71645041414084
F        -4.73163621497510    0.00000000000000    3.22571838476757
F        -3.39327517264965   -1.06794314680471    4.50254938956302
F        -3.39327517264965    1.06794314680471    4.50254938956303
C        -4.03961820246674    1.67468514775899    2.62817407948106
F        -4.96930660042401    0.73147479244129    2.75037763231445
F        -4.62303373288714    2.71686348978891    2.04303253910981
F        -3.71458666614023    2.05683907990836    3.85992603200072
C         0.53602450593361   -4.99908416128281   -0.86730591619822
F         1.22448605650957   -5.23152837615597   -1.98125850960180
F        -0.63540201352706   -5.61404743764837   -1.00324736766175
F         1.18149064144157   -5.61404773804446    0.11965571789346
C         4.03961820246674    1.67468514775899   -2.62817407948106
F         4.96930660042402    0.73147479244129   -2.75037763231441
F         3.71458666614022    2.05683907990832   -3.85992603200073
F         4.62303373288711    2.71686348978894   -2.04303253910982
C         4.92005227074660   -1.03501232949151   -0.86730592957069
F         5.35386609588658   -0.45207588830481   -1.98125865327758
F         5.14292645153878   -2.33913927311179   -1.00324714649869
F         5.70437742108406   -0.61117153086585    0.11965558739362
C         1.08016271022039    3.32439912180418   -3.71645041587937
F         1.46215754230407    4.50005299330749   -3.22571838851551
F         2.06425285383526    2.89718320022386   -4.50255037491024
F         0.03290491502764    3.55721032900471   -4.50254840735999
C        -2.28376457660886    3.72927671755932   -2.62817408867206
F        -3.59030321655004    3.51265997057978   -2.75037870097715
F        -1.79618325340527    3.84739782561575   -3.85992562899768
F        -2.14318168460923    4.91533956626621   -2.04303190988614
C        -2.82790274436383    2.05459160758554   -3.71645040671519
F        -3.82797483682855    2.78118494419178   -3.22571836876305
F        -2.11749631416700    2.85850222732984   -4.50254863174647
F        -3.37293748548841    1.13053297859378   -4.50255013394648
C        -4.25247495652193    1.01957928511255   -2.62817407757680
F        -4.45020405360863    2.32910962270744   -2.75037677428969
F        -4.21414295278388    0.51936236815955   -3.85992636334025
F        -5.33704498641440    0.51936149478958   -2.04303305824604
C        -4.58877084110522    2.05459160147071   -0.86730597290559
F        -4.59709252483521    2.78118520641283   -1.98125951001435
F        -5.53562669678859    1.13053295630600   -1.00324569798425
F        -4.97417519512416    2.85850196315549    0.11965482382298
C        -1.42457227037960   -1.03501233722714   -4.78849957248258
F        -0.62223011468481   -0.45207589682711   -5.67468926529602
F        -2.65809836182651   -0.61117154425495   -5.04863869666891
F        -1.40265511061956   -2.33913928186680   -5.04863905501621
C        -1.42457227037960    1.03501233722714   -4.78849957248258
F        -0.62223011468481    0.45207589682711   -5.67468926529602
F        -2.65809836182651    0.61117154425495   -5.04863869666891
F        -1.40265511061956    2.33913928186680   -5.04863905501621
C         0.54413818249354    1.67468516033722   -4.78849957845317
F         0.23767107904745    0.73147481112462   -5.67468925997942
F        -0.24013968171955    2.71686350152345   -5.04863903502921
F         1.79120914301982    2.05683909935453   -5.04863874564184
156
 energy: -491.518730369687 gnorm: 8.386418357358 xtb: 6.4.1 (a3dbbd7)
C        -1.22999804730023    0.00006830987592    3.31741061836816
C        -0.38264822589411   -1.17703033351872    3.32139417501929
C         1.00135855015431   -0.72767667866023    3.32260625211781
C         0.99973886773906    0.72825984102732    3.32547127607241
C        -0.38235385381132    1.17690532843201    3.33229898372159
C         2.33820160230579   -2.59762531237691    0.59012872828177
C         3.18952980819521   -1.42037928691852    0.59563010709455
C         2.96365690000292   -0.69844910450812    1.83020540633373
C         1.96428069851917   -1.42748263298475    2.59418372426188
C         1.57616548956891   -2.59843597126019    1.82972500284315
C         3.20070933199647    1.42751342434937    0.59602835357997
C         2.34287000785146    2.60358300827175    0.59220421047380
C         1.58274122314548    2.60266781706354    1.83158256705784
C         1.96424817631129    1.42403099287204    2.59291975648073
C         2.96018390925654    0.69898567543136    1.83244773909268
C        -0.36861322690593    3.48378209610998    0.59580601511070
C        -1.75031917624411    3.03104899935234    0.59690720062108
C        -1.98294716725089    2.30926972692263    1.83045159250557
C        -0.74843823871718    2.30881826981173    2.59129325401189
C         0.24654227332182    3.03106710387741    1.83395666867747
C        -3.42651749977732    0.72561894142168    0.59613230692826
C        -3.42748340542202   -0.72763936330592    0.59361948646774
C        -2.80312691147472   -1.17618104642991    1.82534677803970
C        -2.41508286773077   -0.00002928426154    2.58286779969897
C        -2.80311834817576    1.17611140780186    1.82567837435169
C        -1.74765464860433   -3.03288810529864    0.59518189160248
C        -0.37082102597711   -3.48319875190031    0.59814813993796
C         0.24738341327297   -3.03359426624356    1.83054372351236
C        -0.75024524069792   -2.30903105179153    2.59208549707158
C        -1.98342865454799   -2.30938835717408    1.83040341848908
C        -0.25091210038976   -3.03133472119565   -1.83276795695252
C         0.74931158761643   -2.30730493688324   -2.59262813886647
C         1.98446605678269   -2.30707268709867   -1.83130642210657
C         1.74986314057209   -3.03230577189274   -0.59753270435156
C         0.36804646350560   -3.48379527895658   -0.59608452922721
C         2.80664128007195   -1.17565939083763   -1.83226997210278
C         2.42514648943142   -0.00224233277222   -2.59501552199213
C         2.80938825144559    1.17539282076214   -1.83150602003000
C         3.42540722505844    0.72498095216656   -0.59583853363440
C         3.41969497011578   -0.72251660559810   -0.59797652699255
C         1.98429006438134    2.31007775749443   -1.83057625952081
C         0.74991734127185    2.30601999707928   -2.58694396544271
C        -0.24810090262279    3.03462304035817   -1.82981636500769
C         0.37051235149639    3.48344750500762   -0.59733024251857
C         1.74754827634950    3.03141977135139   -0.59411699379293
C        -1.57643869552370    2.59918400377060   -1.82584643129737
C        -1.95254729941914    1.41825655430621   -2.58163984357281
C        -2.95567769454890    0.69341004287264   -1.82629299973486
C        -3.19492064020565    1.42439521053763   -0.59158994994606
C        -2.34529016599537    2.60270977154254   -0.59448678353362
C        -2.96295692231730   -0.70305187147779   -1.83033017499478
C        -1.96389547825941   -1.42817411247493   -2.59217151747017
C        -1.58045340341626   -2.60047623149983   -1.83010611786870
C        -2.34499479914849   -2.60090348978734   -0.59570589229840
C        -3.19627707524915   -1.42640953307535   -0.59530605529097
C        -0.99847556963028   -0.72909965581764   -3.32374040185973
C        -0.99472498913997    0.72241443634131   -3.31122661414791
C         0.38293448314675    1.16852800555890   -3.31989482701022
C         1.23665531741524    0.00004878825491   -3.33140892650660
C         0.38310678231387   -1.17702834156306   -3.33108664629110
C        -1.77574485699141    0.00147260498704    4.74665462130060
F        -0.79405530771832    0.04058823803570    5.71112406387451
F        -2.52782191373449   -1.02737430528951    5.08256502649431
F        -2.48235311770979    1.08743364623732    5.08361842970628
C        -0.54979467005632   -1.69573225320201    4.75898200326944
F        -0.25980914944855   -0.77733245351757    5.71412597666183
F        -1.75463858469720   -2.12733406450932    5.05119601470334
F         0.17375708695946   -2.74616321897374    5.05181370811186
C         1.44311773660699   -1.04959377439153    4.75888350467654
F         0.66745060856222   -0.47027129835566    5.71015825317687
F         1.47301793328603   -2.32162393208274    5.05350205732766
F         2.66393481597116   -0.68366632279217    5.05096829411953
C         1.44274443208201    1.04610091902318    4.76583663654247
F         0.62779922604814    0.50798085146800    5.70034069456069
F         2.66480503929336    0.68560532600772    5.05082741664047
F         1.40067775849799    2.34010090122309    5.05313093232426
C         3.35520096063710   -3.72767750774311    0.84850895363135
F         4.08241485350063   -3.55695338820052    1.96370192398550
F         4.21598649087990   -3.91464743598166   -0.12801502462823
F         2.82560953663347   -4.92027789120599    0.94390028680379
C         4.56603156276868   -2.03399755579264    0.82961415063752
F         4.64830766595806   -2.75309926265232    2.02017105351581
F         5.02281632844839   -2.83207529438515   -0.10382156569075
F         5.54802640236577   -1.13145607815962    1.04184454923640
C         2.25963651319331   -3.73227732301105    2.62290973520978
F         3.57722629598513   -3.51777145779154    2.81149493795949
F         2.10446797142866   -4.92019463941771    2.10484361023658
F         1.79715964926663   -3.85025129657834    3.86245088497677
C         4.58718198389154    2.05629281999293    0.86635572178671
F         4.61817489083606    2.76809480506818    1.96820020061932
F         4.97603396985253    2.85947112055125   -0.11741415938833
F         5.53899249266668    1.13065611107102    1.00483478401335
C         2.28261275216770    3.72979086172947    2.62703286109211
F         3.57308066321130    3.52742357453821    2.76663263918481
F         2.14573260715213    4.91577291287087    2.04466117506446
F         1.79589084729227    3.85068610876094    3.86051908447063
C        -0.53525745122745    4.99838233285906    0.86766021996432
F        -1.22554105569718    5.23277870473887    1.98245174070102
F        -1.18232008536882    5.61574858197997   -0.12014401973870
F         0.63330587853993    5.61639307386420    1.00153399340302
C        -4.01885359817692   -1.68679988099063    2.62418300221586
F        -5.00832043557902   -0.77127788509225    2.72250889041643
F        -4.62693525447945   -2.71927181889449    2.04178017625367
F        -3.73291975375695   -2.12920779142276    3.82900564338287
C        -3.45320718434273    0.00275204658377    3.70673323688319
F        -4.75601341221038    0.00013124845774    3.26969420614507
F        -3.42031686053612   -1.02950606878636    4.53606988531395
F        -3.41679201241697    1.03886028324024    4.53615773509268
C        -4.01805567911334    1.68675289060694    2.62466041638738
F        -5.00869758871560    0.77071999244889    2.72253706326717
F        -4.62683477748804    2.71938524243221    2.04461827447921
F        -3.73366405827712    2.12901481907594    3.82772812886007
C         0.53506601613006   -4.99816963385959   -0.86768144226555
F         1.22549181289914   -5.23283298940135   -1.98236308615039
F        -0.63607573140609   -5.61536240315929   -1.00344513800175
F         1.17995480855339   -5.61695777568605    0.11912880262627
C         4.03906157791143    1.67573286459297   -2.62598611369626
F         4.96491079676094    0.75299090254692   -2.76669656189106
F         3.71681421204537    2.05701630462370   -3.86279726938962
F         4.62349196194079    2.71791177678455   -2.04653189168213
C         4.90632500019828   -1.02586220506952   -0.87274692414148
F         5.36364644695256   -0.47461053554690   -1.96841448390872
F         5.15537114571641   -2.34089234520168   -1.04165084387177
F         5.72476287981853   -0.58722948623591    0.10249954795390
C         1.08150707200780    3.31960218611502   -3.69839963854681
F         1.46308724124351    4.50334171153156   -3.22670075265145
F         2.08809740656425    2.92076430151252   -4.49727354148013
F         0.03378399970503    3.60832722007033   -4.48833253829465
C        -2.25383022240745    3.72700728832017   -2.62225520996760
F        -3.59640178874945    3.57497648463786   -2.73077895399530
F        -1.77010861643302    3.91934996578155   -3.82845684250024
F        -2.14558337760337    4.92011609871404   -2.04228925818329
C        -2.79487957768317    2.02839310496792   -3.70446956298474
F        -3.83428529639298    2.80016341984378   -3.28434974332310
F        -2.16757019991029    2.84721021690557   -4.53364085478157
F        -3.37131473497950    1.17397427191388   -4.53908957056943
C        -4.23947570089828    0.98809009185843   -2.61846884918331
F        -4.50533649295843    2.30501631784935   -2.76627383316447
F        -4.27117545491951    0.47193244003877   -3.83258288688036
F        -5.33207607858932    0.47986738448581   -2.10405965120992
C        -4.58531286107902    2.03378177203040   -0.84365993847734
F        -4.62731193652133    2.82327263327216   -1.94456132364947
F        -5.55412134229057    1.16362754339237   -0.93872463020908
F        -4.97723505042017    2.86354309781609    0.11875307507062
C        -1.43590885639724   -1.04078204316293   -4.76861464579243
F        -0.61274564156988   -0.50974627442970   -5.69943083400949
F        -2.66658116473991   -0.69126340483484   -5.05329170300660
F        -1.40168687039177   -2.34317169341079   -5.05189697802042
C        -1.42748360639410    1.02839519086602   -4.74969452484904
F        -0.64859536832236    0.47101291481367   -5.71156183600369
F        -2.65659712923280    0.65385101573042   -5.08307515669652
F        -1.43784652857283    2.32219094259771   -5.09680608202470
C         0.54113742594533    1.68060484681521   -4.74565915669282
F         0.29759388118010    0.72941147290886   -5.70605686699700
F        -0.19609909919024    2.73111969341767   -5.08886121766691
F         1.80945283274761    2.03383974628018   -5.07533292306011
156
 energy: -499.158519112096 gnorm: 7.628651273170 xtb: 6.4.1 (a3dbbd7)
C        -1.22317722221399    0.00177778148625    3.31158690368225
C        -0.38270222599828   -1.17901912566464    3.31430525687077
C         1.00258601195001   -0.72873532613259    3.31923813816538
C         0.99954814515789    0.73003628018245    3.32529816451093
C        -0.38314288773856    1.17769944234564    3.33386206884708
C         2.33418849601513   -2.59750948371359    0.58648755846325
C         3.18950968008220   -1.41865522652471    0.59863658416962
C         2.96481007128725   -0.69658217884183    1.83072224173430
C         1.96626020258494   -1.42891172941542    2.59355607713154
C         1.57411604064389   -2.59730500293515    1.83186093284005
C         3.20421451117490    1.43003333555773    0.59812773952960
C         2.34098008481622    2.60387211408681    0.58935746526789
C         1.58603494327720    2.60641862093146    1.83439312521539
C         1.96793216348783    1.42179480389797    2.58856831765517
C         2.95491320993604    0.69845360813202    1.83349065999512
C        -0.37014423204135    3.48963417457956    0.59797750100603
C        -1.75091927577657    3.02789836695511    0.59859496413293
C        -1.97948257612512    2.31267079855029    1.82839866909540
C        -0.74660203593414    2.31064806996239    2.58648926226783
C         0.24141206791243    3.02733576946933    1.83582869000130
C        -3.42822729409712    0.72460765652437    0.59745737805621
C        -3.42795960831235   -0.72861370266673    0.59198965554926
C        -2.80217554693637   -1.17785589209305    1.82164995558564
C        -2.41189850577477    0.00115798406608    2.57768386171405
C        -2.80219229238693    1.17846667182591    1.82301961471805
C        -1.74541372289130   -3.03221213133136    0.59576231084193
C        -0.37448102968686   -3.47961518327397    0.60203997183563
C         0.24281339305273   -3.03338506503437    1.82869059952766
C        -0.75069841635691   -2.31124202321691    2.58847274003081
C        -1.98040778304652   -2.31272339759960    1.82881793252632
C        -0.25087122289394   -3.02885614631794   -1.83553640185309
C         0.74860429795010   -2.30797728592253   -2.59023165949125
C         1.98310863554552   -2.30662559079238   -1.83107771605900
C         1.75050512145747   -3.03079654140417   -0.60004451091707
C         0.36870267756354   -3.48983663391788   -0.59822409924059
C         2.80468486393918   -1.17551366247377   -1.83491239795813
C         2.42367071125687   -0.00463015001774   -2.59463473507952
C         2.81273595585111    1.17551876765017   -1.83405980389544
C         3.42493594178315    0.72273846681056   -0.59730940606094
C         3.41677165070708   -0.71797176631081   -0.60265011351595
C         1.98221299952863    2.31307466618583   -1.82849666220534
C         0.75144181756445    2.30825400033945   -2.58108378423640
C        -0.24567288263835    3.03570686548911   -1.82691785992043
C         0.37364087097931    3.48046318196888   -0.60065325608168
C         1.74542920730987    3.02925869744990   -0.59348970114033
C        -1.57412268516004    2.59830171168715   -1.82203925252637
C        -1.94352388226376    1.41533728766474   -2.56919745883522
C        -2.95276505642443    0.68903250545787   -1.82412188302445
C        -3.19281449867058    1.42490021635639   -0.58976785407229
C        -2.34551689135583    2.60387024418195   -0.59378715594152
C        -2.96166544876953   -0.70731019014826   -1.82875244407606
C        -1.96542376909755   -1.43095571984493   -2.58852996515100
C        -1.58084592429142   -2.59879109985138   -1.82881456501824
C        -2.34580001970608   -2.60047169670276   -0.59713870650212
C        -3.19370726487932   -1.42720544581748   -0.59553995944808
C        -0.99767061655584   -0.73281572360880   -3.32060248050850
C        -0.98907314166980    0.71904085012755   -3.29745923693570
C         0.38404647490018    1.16379585389044   -3.31519522531344
C         1.23781931610353   -0.00140569934079   -3.32980330939600
C         0.38494592413089   -1.17826531085643   -3.33178798278869
C        -1.79117873360764   -0.01533464656834    4.70364004205353
F        -0.81961860660437    0.10340659187165    5.74976650536918
F        -2.52488915834043   -0.99505657016308    5.11724661155350
F        -2.42586740097467    1.11459718188574    5.13144850347148
C        -0.55361402042553   -1.71356509479809    4.72964625054958
F        -0.33304115153492   -0.85222251052333    5.74642155254530
F        -1.73038983146774   -2.17333351426115    5.05206976967677
F         0.13200332861889   -2.76480880435008    5.05355558100433
C         1.45734551976055   -1.06401192212341    4.73223985611366
F         0.77402534058973   -0.48323185633741    5.74239581349350
F         1.51685641873152   -2.30881512363967    5.05736654192361
F         2.66647406178675   -0.72685411826061    5.05312585894401
C         1.45937564002619    1.05455952646507    4.74455723215187
F         0.62274347552845    0.57549569115415    5.72269151949873
F         2.66827857321893    0.73022509428283    5.05280668335535
F         1.39837321097221    2.33889377502642    5.05736325703839
C         3.34270031777070   -3.72516369356401    0.82997787461101
F         4.08846676268644   -3.61959695223576    1.91971215585505
F         4.18982204735236   -3.95613847570667   -0.13462088565248
F         2.85270647604069   -4.92151596620674    0.90823830322793
C         4.54710367416756   -2.01718167127414    0.79038735115514
F         4.70259652166987   -2.71501434558214    2.06917455761828
F         5.05398132240378   -2.81465808279146   -0.06453144208213
F         5.54508175687999   -1.16043965874099    1.10064613573524
C         2.23558253259888   -3.73529230511760    2.61617386238868
F         3.56508654994204   -3.51510841661253    2.88275578105400
F         2.08098676867481   -4.92402733579896    2.14381533347837
F         1.79868981754817   -3.85309330616100    3.86263326377893
C         4.58571330316434    2.05821043879024    0.86599066080641
F         4.63740760283830    2.75590177845566    1.95613046845700
F         4.97767462799065    2.86023087373261   -0.11463387343919
F         5.54161075134579    1.13170001769942    1.00690363356161
C         2.28227264523679    3.73031947092436    2.62604806640924
F         3.55712023319724    3.54076265995920    2.78144720877266
F         2.14859062118043    4.91587106504737    2.04648029855824
F         1.79577583560126    3.85406788734431    3.86059771615054
C        -0.53440262027095    4.99830414602700    0.86819940182623
F        -1.22645414194502    5.23383808017270    1.98362208217317
F        -1.18294633718142    5.61722218003821   -0.12040985503228
F         0.63092309302075    5.61872480428627    0.99966582654847
C        -3.99520014923725   -1.69947903930814    2.62186994198554
F        -5.05203680697973   -0.81163618751909    2.68483384577270
F        -4.62988241879763   -2.71958450470904    2.04112600817471
F        -3.74386677444364   -2.17738033909362    3.80814345658395
C        -3.39488827336727    0.01099405033686    3.70472239515324
F        -4.78439886182189   -0.00063135571534    3.33339287787811
F        -3.45657957416986   -1.00220652147974    4.55369799264105
F        -3.46922216980407    0.99248722050590    4.53381385676920
C        -3.99238601112651    1.70087185674686    2.62270681934405
F        -5.05396581991946    0.81064913536412    2.68482213606688
F        -4.62965149701961    2.72003963878583    2.04716752003232
F        -3.74612837234907    2.17552836666451    3.80377700664528
C         0.53398029298889   -4.99780942002009   -0.86821860741108
F         1.22643287968801   -5.23397704035518   -1.98349530362784
F        -0.63675265331453   -5.61648483155378   -1.00371425877304
F         1.17784748517497   -5.61982366322855    0.11843955087637
C         4.03908092578287    1.67621068037219   -2.62378185703912
F         4.96052527945473    0.77285803009219   -2.78160416838048
F         3.71949088451675    2.05659375927491   -3.86506960933692
F         4.62363734705746    2.71873037147129   -2.05029180712481
C         4.89217858106466   -1.01336484307539   -0.87253669867720
F         5.37423038240840   -0.49623500542884   -1.95747641400178
F         5.16623700885849   -2.34443870745723   -1.09398384714832
F         5.74737995838506   -0.54898941521308    0.05458235636184
C         1.08225329337441    3.31362648788057   -3.68354181224862
F         1.46436134601433    4.50773516218674   -3.22779404753358
F         2.11177747866171    2.96160966570477   -4.47942722919372
F         0.03938364361681    3.67880517085972   -4.45384033491754
C        -2.22708396288679    3.72561468164400   -2.61896616084518
F        -3.59836073813979    3.64528391420139   -2.69464987733775
F        -1.75523255401773    3.96595044442078   -3.80426633013335
F        -2.14778044365506    4.92248166643076   -2.04192051172276