72
 energy: -177.376783297530 gnorm: 0.259243680559 xtb: 6.4.1 (a3dbbd7)
C        -1.23626340000000    0.00000000000000    3.32997640000000
C        -0.38202640000000   -1.17575640000000    3.32997640000000
C         1.00015810000000   -0.72665740000000    3.32997640000000
C         1.00015810000000    0.72665740000000    3.32997640000000
C        -0.38202640000000    1.17575640000000    3.32997640000000
C         2.34433560000000   -2.60145750000000    0.59464210000000
C         3.19857260000000   -1.42570110000000    0.59464210000000
C         2.96246730000000   -0.69904370000000    1.83090550000000
C         1.96230920000000   -1.42570110000000    2.59495830000000
C         1.58028280000000   -2.60145750000000    1.83090550000000
C         3.19857260000000    1.42570110000000    0.59464210000000
C         2.34433560000000    2.60145750000000    0.59464210000000
C         1.58028280000000    2.60145750000000    1.83090550000000
C         1.96230920000000    1.42570110000000    2.59495830000000
C         2.96246730000000    0.69904370000000    1.83090550000000
C        -0.36750900000000    3.48258920000000    0.59464210000000
C        -1.74969350000000    3.03349030000000    0.59464210000000
C        -1.98579880000000    2.30683290000000    1.83090550000000
C        -0.74953540000000    2.30683290000000    2.59495830000000
C         0.25062270000000    3.03349030000000    1.83090550000000
C        -3.42570570000000    0.72665740000000    0.59464210000000
C        -3.42570570000000   -0.72665740000000    0.59464210000000
C        -2.80757400000000   -1.17575640000000    1.83090550000000
C        -2.42554760000000    0.00000000000000    2.59495830000000
C        -2.80757400000000    1.17575640000000    1.83090550000000
C        -1.74969350000000   -3.03349030000000    0.59464210000000
C        -0.36750900000000   -3.48258920000000    0.59464210000000
C         0.25062270000000   -3.03349030000000    1.83090550000000
C        -0.74953540000000   -2.30683290000000    2.59495830000000
C        -1.98579880000000   -2.30683290000000    1.83090550000000
C        -0.25062270000000   -3.03349030000000   -1.83090550000000
C         0.74953540000000   -2.30683290000000   -2.59495830000000
C         1.98579880000000   -2.30683290000000   -1.83090550000000
C         1.74969350000000   -3.03349030000000   -0.59464210000000
C         0.36750900000000   -3.48258920000000   -0.59464210000000
C         2.80757400000000   -1.17575640000000   -1.83090550000000
C         2.42554760000000    0.00000000000000   -2.59495830000000
C         2.80757400000000    1.17575640000000   -1.83090550000000
C         3.42570570000000    0.72665740000000   -0.59464210000000
C         3.42570570000000   -0.72665740000000   -0.59464210000000
C         1.98579880000000    2.30683290000000   -1.83090550000000
C         0.74953540000000    2.30683290000000   -2.59495830000000
C        -0.25062270000000    3.03349030000000   -1.83090550000000
C         0.36750900000000    3.48258920000000   -0.59464210000000
C         1.74969350000000    3.03349030000000   -0.59464210000000
C        -1.58028280000000    2.60145750000000   -1.83090550000000
C        -1.96230920000000    1.42570110000000   -2.59495830000000
C        -2.96246730000000    0.69904370000000   -1.83090550000000
C        -3.19857260000000    1.42570110000000   -0.59464210000000
C        -2.34433560000000    2.60145750000000   -0.59464210000000
C        -2.96246730000000   -0.69904370000000   -1.83090550000000
C        -1.96230920000000   -1.42570110000000   -2.59495830000000
C        -1.58028280000000   -2.60145750000000   -1.83090550000000
C        -2.34433560000000   -2.60145750000000   -0.59464210000000
C        -3.19857260000000   -1.42570110000000   -0.59464210000000
C        -1.00015810000000   -0.72665740000000   -3.32997640000000
C        -1.00015810000000    0.72665740000000   -3.32997640000000
C         0.38202640000000    1.17575640000000   -3.32997640000000
C         1.23626340000000    0.00000000000000   -3.32997640000000
C         0.38202640000000   -1.17575640000000   -3.32997640000000
C        -1.76086815247998    0.00000000000000    4.78849957557021
F        -0.76911826531252    0.00000000000000    5.67468926254662
F        -2.50968386795825   -1.06794314680471    5.04863888333743
F        -2.50968386795825    1.06794314680471    5.04863888333743
C         2.28376457660886   -3.72927671755932    2.62817408867206
F         3.59030321655004   -3.51265997057976    2.75037870097715
F         2.14318168460923   -4.91533956626619    2.04303190988612
F         1.79618325340524   -3.84739782561575    3.85992562899767
C        -0.34440953624153   -4.35941144868709   -2.62817404748705
F         0.83992598883967   -4.95213069234126   -2.75037577510431
F        -0.80829780400759   -4.16837989546168   -3.85992670963205
F        -1.15529636597892   -5.23632261667420   -2.04303359185445
72
 energy: -177.436245854206 gnorm: 0.164662281199 xtb: 6.4.1 (a3dbbd7)
C        -1.24616507688285   -0.00039053424284    3.33563600794170
C        -0.36251061187808   -1.18741984997626    3.33663490472950
C         1.00145412801270   -0.71076303864122    3.31645526763366
C         0.99809373792404    0.73498207154574    3.31626061928944
C        -0.36299230740155    1.19202386058629    3.33831879914445
C         2.35774006824317   -2.60429230492123    0.56995054139013
C         3.18368718845357   -1.42173554212417    0.58467219017082
C         2.95386012989999   -0.68730405482908    1.81680651698806
C         1.96353683777255   -1.38542879178016    2.57835694451937
C         1.62033879653921   -2.62843157593505    1.85290509422635
C         3.18649904070048    1.42547934557539    0.58714820121214
C         2.33704771490815    2.59519539127202    0.58983410547285
C         1.57978813519750    2.59586229219321    1.82137953924640
C         1.96257272761611    1.42994987622529    2.58131939303618
C         2.95036760573471    0.70688791597208    1.81861577744267
C        -0.36426942142650    3.46813569502770    0.59444574610576
C        -1.74088572321486    3.01996270278408    0.59394368636696
C        -1.97593480435961    2.29637202225633    1.82065487690351
C        -0.73840181399707    2.29992817548593    2.58620651495639
C         0.25346086707178    3.02515051738182    1.82428042867648
C        -3.42570796138630    0.72951667592714    0.57734108634355
C        -3.43047555337277   -0.71709131258756    0.57570778277605
C        -2.80720560275677   -1.16391407811004    1.80368055610500
C        -2.44014658725636   -0.00353031721338    2.53292765233849
C        -2.80216139217972    1.17223513645325    1.80258989698542
C        -1.75692345053807   -3.01534149562200    0.59886888523633
C        -0.36926238428362   -3.44547279154181    0.61352527680470
C         0.22600643636170   -3.02737322497912    1.84743371308007
C        -0.74708651053762   -2.29399213040130    2.58235630364368
C        -1.98695947188748   -2.29868018639656    1.81484714922805
C        -0.25585571927275   -3.08648149077924   -1.84759189202899
C         0.75494231790051   -2.26777132106983   -2.57368004898698
C         1.97821262689368   -2.28748053558817   -1.82792226214391
C         1.74215597405124   -3.01061557566085   -0.59832334143652
C         0.37292990120961   -3.45446742222569   -0.55938267809305
C         2.80554603413757   -1.16220312221365   -1.82706412196381
C         2.42012832379469    0.00629247624190   -2.58409929859116
C         2.79835115527396    1.17558150214139   -1.82478814579552
C         3.41277295118841    0.72741907871622   -0.59546772324886
C         3.41862480406151   -0.72120833425117   -0.59990780879990
C         1.97688134423058    2.30128273234134   -1.82343345506118
C         0.74460205462632    2.30110044978295   -2.58231339983432
C        -0.24967720177733    3.02598790102463   -1.82310230457778
C         0.36529873034678    3.46878657168463   -0.59181236878812
C         1.74225862007970    3.02371144053292   -0.59442102306576
C        -1.57477242480496    2.59368848924779   -1.82291030592538
C        -1.95620805050260    1.42569918143190   -2.58398643982020
C        -2.95814274918434    0.70539778794929   -1.82692886252004
C        -3.19354327320542    1.42788066938098   -0.59986816007944
C        -2.33478505135462    2.59390551989177   -0.59327773818456
C        -2.96634620637556   -0.68433695251907   -1.82919634242400
C        -1.96415378480868   -1.40342347478251   -2.58273872766305
C        -1.61149847268399   -2.57283447447417   -1.83192352754052
C        -2.34331751386203   -2.58001762309469   -0.60302839847071
C        -3.20257732912339   -1.41074396722610   -0.60190320837883
C        -0.99976081369762   -0.71475782617236   -3.31604961833146
C        -0.99779164120092    0.72813614210089   -3.31654860894643
C         0.37993352661046    1.17508430063241   -3.31506519962643
C         1.23224704866687    0.00848567549777   -3.31339142914403
C         0.38160897416402   -1.15752669040305   -3.31317649587469
C        -1.77132389487057   -0.00221656642842    4.81355996340721
F        -0.77549374528784   -0.00162385617720    5.70069558987948
F        -2.52013242105979   -1.07399210242629    5.06843673700829
F        -2.51952431730314    1.07042942561048    5.06805648762827
C         2.31701025048970   -3.76306923578162    2.65381633362727
F         3.62537327739514   -3.54433323626054    2.77225989391265
F         2.16156891361093   -4.94331405080777    2.05599630782408
F         1.81548049353549   -3.86941161157301    3.88286656552996
C        -0.34449125071552   -4.40683233609515   -2.65147668088261
F         0.84500751749519   -4.99280620618517   -2.77355206618488
F        -0.81136839194229   -4.19418146705580   -3.88097429659856
F        -1.16153446772944   -5.27465904752752   -2.05901854855286
72
 energy: -177.473122281966 gnorm: 0.090295332353 xtb: 6.4.1 (a3dbbd7)
C        -1.27653893452524   -0.00155392082996    3.42999080170842
C        -0.34051833933139   -1.19467919999874    3.29298125281747
C         0.99570654196901   -0.69637312750357    3.27651154924909
C         0.99405334519575    0.74003460175874    3.28583259253199
C        -0.33734586047898    1.19912392219980    3.28538062740898
C         2.35544731265468   -2.55913603720856    0.54740925707574
C         3.16798181973692   -1.40159936282595    0.57396728970306
C         2.93384833749321   -0.67293729851598    1.80244028160032
C         1.96188885052465   -1.34928475227205    2.55680426724245
C         1.67607285706682   -2.70100574409811    1.90617196300021
C         3.17721122396241    1.42824086970518    0.58204212697336
C         2.33151480507686    2.59022337652350    0.58492692796724
C         1.58051293132890    2.59170088647076    1.80962932337444
C         1.96769366798638    1.43708147006392    2.56504619195830
C         2.94563988069181    0.71989462011940    1.81292321170252
C        -0.36154199843231    3.45749996650027    0.58731883965578
C        -1.73293220508172    3.00782257090851    0.58818149772583
C        -1.97074435116413    2.29167612764911    1.80558077615469
C        -0.72749875217321    2.29206371635583    2.55276611107093
C         0.25606036865755    3.02067707902473    1.80759905691791
C        -3.42289817746293    0.73470953905793    0.56317771870785
C        -3.43184504716685   -0.70344377779153    0.56242579271615
C        -2.80051612118135   -1.14451035743703    1.78749928266609
C        -2.45314636428528   -0.00883930603790    2.48791338646224
C        -2.78796542803579    1.16513734226445    1.77897893169006
C        -1.76752836681940   -2.99767135067311    0.60442458775777
C        -0.37061661822561   -3.40954288117255    0.61161943656576
C         0.19114301026017   -3.02331208310744    1.83228635522619
C        -0.74005684088880   -2.27986691689747    2.53791818579827
C        -1.99383418257668   -2.29999151197525    1.79130920193246
C        -0.25654469686757   -3.16778473899670   -1.89557616786431
C         0.76810226270234   -2.22497235104106   -2.55865360539199
C         1.96589965579848   -2.26053124911096   -1.82425639078714
C         1.72771910139949   -2.96617198885123   -0.59651713816669
C         0.38319026343277   -3.42473330845453   -0.53459685756113
C         2.80519961974820   -1.14270753793752   -1.82473356150019
C         2.41743483189813    0.01357706085450   -2.57605975009368
C         2.79068283545524    1.17576984887431   -1.81936893428577
C         3.40239935118716    0.73334876804553   -0.59635289298597
C         3.41445366268679   -0.70820535159658   -0.60861248217937
C         1.96860768164436    2.29565271744986   -1.81632053207628
C         0.74139864664212    2.29398147062082   -2.57126640157394
C        -0.24651306092301    3.01807964882338   -1.81916349560042
C         0.36413739073233    3.45544134420973   -0.59406939199612
C         1.73550179340228    3.01316768439192   -0.59581495186418
C        -1.56757343100879    2.58460406764731   -1.81721199850102
C        -1.94850680639999    1.42491610257556   -2.57406811805825
C        -2.95355988777797    0.71291904985236   -1.82490296771694
C        -3.18710098723344    1.42996283081913   -0.60563382709579
C        -2.32482237533853    2.58631057232237   -0.59653962127360
C        -2.96678798699909   -0.66800189957730   -1.82380397881360
C        -1.96019499278003   -1.38361409836344   -2.56009978425962
C        -1.63731409796707   -2.53014443667152   -1.80338692415190
C        -2.33929901248024   -2.55172531742254   -0.60861529911316
C        -3.20521849064161   -1.38945932624498   -0.60389365882925
C        -1.00020503884807   -0.70630179953326   -3.30330550142154
C        -0.99301805364356    0.72506046622485   -3.30122230455683
C         0.37984770023610    1.17253062719322   -3.30201084030430
C         1.22962218525045    0.01644384491824   -3.30103714934860
C         0.38334409307900   -1.14010442313057   -3.29357716081287
C        -1.79616672277266   -0.00334687735913    4.88823184684143
F        -0.78460809310284   -0.00020860525462    5.75854876471646
F        -2.54330670809023   -1.08301168634757    5.11752394816830
F        -2.54113403986147    1.08018755134015    5.11450929597789
C         2.35499077070201   -3.81871556818912    2.69540151532892
F         3.66237494782758   -3.58119296250242    2.80399547550614
F         2.18244774312315   -4.98575203715754    2.07356928837111
F         1.83177709110256   -3.90486089009644    3.91846760330576
C        -0.34619031740212   -4.46537585201702   -2.68524639262397
F         0.85261072489277   -5.03671101631410   -2.79971645983290
F        -0.81695999551988   -4.22540276809357   -3.91087473430360
F        -1.16996406198461   -5.31597475934172   -2.07432847938584
72
 energy: -177.484305115753 gnorm: 0.051169888974 xtb: 6.4.1 (a3dbbd7)
C        -1.28664188238853    0.00457520807519    3.46077482865170
C        -0.35056029892650   -1.18364107958730    3.30907707642668
C         0.99352069014623   -0.69928564584458    3.27473356552633
C         0.98732183504148    0.74037192301084    3.27737936884076
C        -0.35076861085134    1.19952111141470    3.29900746768014
C         2.36375676973801   -2.56937722653667    0.56147830325447
C         3.16830706254440   -1.39899638089666    0.57275322896410
C         2.93434159855614   -0.67083642925480    1.80004012337737
C         1.97132747246862   -1.36594729058758    2.56419543098761
C         1.69666892868905   -2.71878639551346    1.92125879680362
C         3.17979846532486    1.43859368769827    0.57618251747823
C         2.33347077708550    2.60193900836744    0.57939659591912
C         1.58001759721835    2.59969347368557    1.80478799393524
C         1.96183685056222    1.44045102328443    2.55691082966662
C         2.94446428990582    0.72447257983886    1.80505439117366
C        -0.36187830454607    3.46345960653036    0.58238943468716
C        -1.73342934034037    3.01514080841198    0.58237586696988
C        -1.97101485584566    2.29729468375003    1.80109924534693
C        -0.73230987140223    2.29361387005709    2.55603751378359
C         0.25345036365845    3.02020694061225    1.80290720058026
C        -3.42515667242676    0.74857042051627    0.55808443958561
C        -3.43185832093182   -0.69112835827227    0.55605487365658
C        -2.79872998312759   -1.13251740803233    1.78620289766460
C        -2.44737268976959    0.00092682194369    2.50637305909235
C        -2.78661652017411    1.17309026977795    1.77901245835890
C        -1.76113375880747   -2.98576200491184    0.59689456061502
C        -0.36382993520444   -3.40715221776505    0.60333519933807
C         0.21343569958049   -3.02122995919092    1.83391484047714
C        -0.73554058994641   -2.26851872323253    2.54356633495643
C        -1.98772230321015   -2.28526075114624    1.78744022343743
C        -0.25883499460279   -3.18626285798791   -1.91340743478493
C         0.75825590452953   -2.24126027748012   -2.56934256681710
C         1.95573418556385   -2.25372328076283   -1.82026780855897
C         1.72531636826223   -2.96755744845892   -0.59221007292163
C         0.37925255693061   -3.43672217825395   -0.55379641182037
C         2.79696760802315   -1.13541237357606   -1.82577570452225
C         2.41491637925181    0.02204942049202   -2.58002187181053
C         2.79203271069293    1.18702727676554   -1.82611120545284
C         3.40479586502562    0.74323150743322   -0.60271719220091
C         3.41077965889803   -0.70002965507249   -0.61025331837560
C         1.96930716125565    2.30708606476537   -1.82261645912054
C         0.74092205876542    2.30467947677209   -2.57658362604023
C        -0.24742668650771    3.02975969842747   -1.82489596168234
C         0.36423154915596    3.46606454002410   -0.59897232121087
C         1.73651440075330    3.02521880115165   -0.60135787556941
C        -1.56876739464728    2.59785192245136   -1.82408078592767
C        -1.95185676624959    1.43865773352537   -2.58278574683482
C        -2.95905023733233    0.72694239169547   -1.83615481806046
C        -3.19300738337417    1.44569745838233   -0.61424808714940
C        -2.32784138060468    2.59995474820447   -0.60350930658900
C        -2.96812906966019   -0.65781851498195   -1.83521724373923
C        -1.95892592039721   -1.38128218141756   -2.56839285381303
C        -1.62832255476767   -2.54267189179268   -1.81713116905954
C        -2.33669651441857   -2.54581612686404   -0.61716823523650
C        -3.20500838140815   -1.37933584561463   -0.61336337907027
C        -1.00257386530959   -0.69884304190045   -3.30754443577244
C        -0.99526461354168    0.73502338134083   -3.30459982096996
C         0.37754636177477    1.18131684972314   -3.30384805360411
C         1.22377430235677    0.02125889165034   -3.29879618281804
C         0.37789375607599   -1.14128637301997   -3.29589699205701
C        -1.81270576495880    0.00085471954618    4.91950857322870
F        -0.81066498651425    0.00240277342339    5.80228254469344
F        -2.56180339556167   -1.07642640151459    5.16090920368490
F        -2.56151240836213    1.07958375111057    5.16214249216201
C         2.38105413908479   -3.84539809197007    2.71599942288176
F         3.69331354379828   -3.62904837468120    2.83767084430438
F         2.21692728484424   -5.02191192837194    2.10690412610313
F         1.86821791384680   -3.94578427115809    3.94385679070005
C        -0.35069833587101   -4.49564749564666   -2.70741693768544
F         0.84219278558305   -5.08168483494487   -2.83171253302800
F        -0.82069109818845   -4.27409823919030   -3.93830260021126
F        -1.17131834473946   -5.36104002161159   -2.10902684323244
72
 energy: -177.489897600176 gnorm: 0.022793655492 xtb: 6.4.1 (a3dbbd7)
C        -1.30015207168375    0.00933935910641    3.50748187982573
C        -0.35985926501034   -1.17383360337609    3.31603567549180
C         0.98971254059683   -0.70212802051338    3.26613716538122
C         0.97861339651754    0.73890628160328    3.26250911085306
C        -0.36375522725842    1.19690617020461    3.30011956051992
C         2.36572313405314   -2.57336284740934    0.57377851352010
C         3.16147217637119   -1.39511418347688    0.57109109306302
C         2.92640678103305   -0.66939260699860    1.79792867849859
C         1.97712950647472   -1.38328174116367    2.57230046722007
C         1.71842635702011   -2.74171849616043    1.94001770106119
C         3.17957434280429    1.44653693622388    0.57200671855989
C         2.33529784757594    2.61279084411285    0.57425853490255
C         1.57812568632554    2.60677336497119    1.79916337074163
C         1.95340054094492    1.44261403236761    2.54722915092961
C         2.93914767291627    0.72662325169391    1.79797849733778
C        -0.36294378292034    3.46896637313704    0.57625716849605
C        -1.73503041711840    3.02351579287055    0.57575586383538
C        -1.97381486542538    2.30595040621976    1.79685327003458
C        -0.73628666448126    2.29352498873553    2.55389699276331
C         0.25011388195087    3.01892024849196    1.79615195623836
C        -3.41972106186393    0.75899824874739    0.55628095892643
C        -3.42042205606304   -0.67960624892517    0.55371498319345
C        -2.78790248478293   -1.11959831243200    1.78892770641706
C        -2.43649186765218    0.00939426692982    2.52338679188785
C        -2.78353169707388    1.18078696328589    1.78224484535932
C        -1.75011935098166   -2.97397759066027    0.59265464828557
C        -0.35295265995381   -3.40292746458384    0.59452881256348
C         0.23392033312925   -3.01043309651260    1.82505147986577
C        -0.72500617696206   -2.25874400339629    2.54177556309584
C        -1.97645152284353   -2.27383577886279    1.78234277557429
C        -0.25893560124628   -3.20984875562663   -1.93621083002585
C         0.74955377792443   -2.25632073812865   -2.57999224322877
C         1.94317140249693   -2.24390417500162   -1.81427322242491
C         1.72123579815536   -2.96428346330258   -0.58676321453169
C         0.37676630393275   -3.45008890740620   -0.57403440229261
C         2.78608078475465   -1.12777267415877   -1.82604534086454
C         2.41184542791590    0.02974504024378   -2.58408855043853
C         2.79350845765245    1.19698245504514   -1.83264638185591
C         3.40461422138303    0.75119032399550   -0.60786253626371
C         3.40208413392975   -0.69236952946435   -0.61074180843445
C         1.97071855147750    2.31772505013481   -1.82923593081910
C         0.74114692157948    2.31433790727380   -2.58288895601019
C        -0.24775658614951    3.04156583541841   -1.83219426359446
C         0.36466856827765    3.47678035695063   -0.60500358389969
C         1.73808473828380    3.03661813302577   -0.60715822665503
C        -1.56961965732241    2.61070017260821   -1.83186809706388
C        -1.95454616545387    1.45069148717099   -2.59124772522342
C        -2.96087627283285    0.73749732990193   -1.84421486500687
C        -3.19450863624599    1.45727524274243   -0.62017893770389
C        -2.33059073276248    2.61265992283432   -0.61105613542165
C        -2.96247072550648   -0.65014816723912   -1.84130903143622
C        -1.95549161030345   -1.38080464878859   -2.57528309843435
C        -1.61404821982377   -2.54853136794827   -1.82196852128131
C        -2.32584043606425   -2.53864994636015   -0.62325908268251
C        -3.19443232504802   -1.36875062439086   -0.61756903617207
C        -1.00505013397134   -0.69293598141069   -3.31335273918682
C        -0.99741941594112    0.74333933431667   -3.30863260052401
C         0.37529495616548    1.18785900097565   -3.30570702799470
C         1.21812716970176    0.02448202116215   -3.29642514726486
C         0.37400689934911   -1.14247765361053   -3.29547774963509
C        -1.83283551676991    0.00565511665481    4.95691217249003
F        -0.83844381237402    0.00655398081520    5.84999156756730
F        -2.58418689262812   -1.06994046318360    5.20638600061429
F        -2.58552869636577    1.08113592978425    5.21024026373352
C         2.40205152560881   -3.87297216131952    2.73599839414350
F         3.71800789790226   -3.67098061204740    2.86701445476975
F         2.24648181805228   -5.05707832259922    2.13628225116033
F         1.89873602398807   -3.98489151570012    3.96839620239589
C        -0.35745361698934   -4.52395067681935   -2.73114607918705
F         0.83071441356075   -5.12216237948825   -2.86347047282397
F        -0.82804915568311   -4.31702206463486   -3.96616501249006
F        -1.17543774817286   -5.40042207984068   -2.14114358119850
72
 energy: -177.490890425599 gnorm: 0.010338420023 xtb: 6.4.1 (a3dbbd7)
C        -1.30572769295244    0.01115529478760    3.53321803433583
C        -0.36417744532860   -1.17053550638536    3.31799411186430
C         0.98737443520515   -0.70312117702817    3.26271248708763
C         0.97431270190705    0.73773398416283    3.25623003798240
C        -0.36954016709524    1.19472044887018    3.29619033691203
C         2.36194108796840   -2.57232859642078    0.57728898588386
C         3.15559932266530   -1.39326640942763    0.57092462663477
C         2.92024028013155   -0.66958325837143    1.79852396301542
C         1.97649634695223   -1.39062277630588    2.57669779329813
C         1.72495272606000   -2.75222818239567    1.94783122171739
C         3.17730913445682    1.44781211877837    0.57124959658536
C         2.33493214295349    2.61597625349040    0.57219263453478
C         1.57582866683305    2.60873380492941    1.79646273684298
C         1.94794195948170    1.44259817678211    2.54346171833730
C         2.93499064104537    0.72567538348382    1.79611607180019
C        -0.36450325437918    3.47178646250698    0.57328067888405
C        -1.73719159742971    3.02848930322079    0.57328622245590
C        -1.97676636982723    2.31202351070999    1.79648114236686
C        -0.73806666313408    2.29415566539758    2.55244282131250
C         0.24777961020681    3.01836239017069    1.79278882575694
C        -3.41226717390417    0.76043673063838    0.55854709713404
C        -3.40731085779852   -0.67649171893725    0.55635808559653
C        -2.77731718460805   -1.11469531933291    1.79414181971420
C        -2.42890971352688    0.01248997283588    2.53278804863309
C        -2.78156004009026    1.18384743520529    1.78716316543064
C        -1.74225623005592   -2.97162869406898    0.59329005537429
C        -0.34563206859835   -3.40314939824039    0.59020280533885
C         0.24309249763075   -3.00274134809850    1.81624610576629
C        -0.71773873184385   -2.25677079882632    2.54001736624569
C        -1.96871498214958   -2.27234953530296    1.78190251482650
C        -0.25698451362329   -3.21984919727450   -1.94820694116922
C         0.74803736120618   -2.26259108138830   -2.58550348104549
C         1.93933259511304   -2.24124604589708   -1.81254948355916
C         1.72043448893237   -2.96418926745345   -0.58594790525389
C         0.37743937301283   -3.45974958319966   -0.58455653968208
C         2.78079683170717   -1.12593274908338   -1.82615913630596
C         2.41046814649841    0.03195283181465   -2.58612318226943
C         2.79355975951710    1.19995793171243   -1.83531628714936
C         3.40255593956320    0.75294851579046   -0.60927804348232
C         3.39571444600526   -0.69008616255352   -0.60990260447610
C         1.97106363478043    2.32140829961737   -1.83262522074623
C         0.74127091497617    2.31772445560265   -2.58721420879670
C        -0.24814841324166    3.04615952844762   -1.83652954975704
C         0.36424145775262    3.48153001561476   -0.60826373236117
C         1.73817647190014    3.04066277273132   -0.60991052789404
C        -1.57031417787863    2.61542803229864   -1.83593591583691
C        -1.95484796273622    1.45368103399605   -2.59479684078431
C        -2.95850699590207    0.73866077123503   -1.84482393862223
C        -3.19186209691327    1.45857447142995   -0.62023865467085
C        -2.33164260868319    2.61704210642006   -0.61408184814935
C        -2.95508637870626   -0.64962422696823   -1.84008045156090
C        -1.95163524293322   -1.38239724898536   -2.57738290703657
C        -1.60336418265113   -2.54919262500540   -1.82008878047822
C        -2.31543288118572   -2.53654482949536   -0.62348673358704
C        -3.18251919132352   -1.36559670901047   -0.61538497352593
C        -1.00479955562465   -0.69221105104064   -3.31747649638221
C        -0.99794306317256    0.74534851826948   -3.31216742309128
C         0.37466324247821    1.18937648865536   -3.30834167824863
C         1.21685496437217    0.02470860194857   -3.29745480966055
C         0.37465918100769   -1.14356925667146   -3.29590445336623
C        -1.84347191409060    0.01146634800948    4.97555426582949
F        -0.85484900230567    0.01394314344139    5.87601264799165
F        -2.59776874205815   -1.06239278391834    5.22680902502325
F        -2.59847298978412    1.08676623941872    5.22676095485032
C         2.40766742175406   -3.88371892775078    2.74263323545886
F         3.72427351896835   -3.68263864292895    2.87516605840195
F         2.25627761472464   -5.07026482085842    2.14577783270108
F         1.90788292586952   -3.99878163729106    3.97669252683616
C        -0.36290846823761   -4.53207456325846   -2.74541603136686
F         0.82284080561990   -5.13542830203649   -2.88228353490032
F        -0.83576510338414   -4.32637998035597   -3.98040501584558
F        -1.18099813202336   -5.41028336404205   -2.15713351845252
72
 energy: -177.491066915801 gnorm: 0.005329954916 xtb: 6.4.1 (a3dbbd7)
C        -1.30579327474013    0.01102309272659    3.54029074020583
C        -0.36510040349944   -1.17062508546068    3.31793178294080
C         0.98713106506912   -0.70351573503902    3.26256533021933
C         0.97375410458989    0.73700471322339    3.25531751998094
C        -0.37069979356833    1.19292817107456    3.29276904692558
C         2.35907161130904   -2.57026662089512    0.57733535232718
C         3.15408419612121   -1.39274189909652    0.57141393320644
C         2.91891483874608   -0.67000799505963    1.79975806832020