156
 energy: -486.552672473233 gnorm: 10.146285022420 xtb: 6.4.1 (a3dbbd7)
C        -1.23626340000000    0.00000000000000    3.32997640000000
C        -0.38202640000000   -1.17575640000000    3.32997640000000
C         1.00015810000000   -0.72665740000000    3.32997640000000
C         1.00015810000000    0.72665740000000    3.32997640000000
C        -0.38202640000000    1.17575640000000    3.32997640000000
C         2.34433560000000   -2.60145750000000    0.59464210000000
C         3.19857260000000   -1.42570110000000    0.59464210000000
C         2.96246730000000   -0.69904370000000    1.83090550000000
C         1.96230920000000   -1.42570110000000    2.59495830000000
C         1.58028280000000   -2.60145750000000    1.83090550000000
C         3.19857260000000    1.42570110000000    0.59464210000000
C         2.34433560000000    2.60145750000000    0.59464210000000
C         1.58028280000000    2.60145750000000    1.83090550000000
C         1.96230920000000    1.42570110000000    2.59495830000000
C         2.96246730000000    0.69904370000000    1.83090550000000
C        -0.36750900000000    3.48258920000000    0.59464210000000
C        -1.74969350000000    3.03349030000000    0.59464210000000
C        -1.98579880000000    2.30683290000000    1.83090550000000
C        -0.74953540000000    2.30683290000000    2.59495830000000
C         0.25062270000000    3.03349030000000    1.83090550000000
C        -3.42570570000000    0.72665740000000    0.59464210000000
C        -3.42570570000000   -0.72665740000000    0.59464210000000
C        -2.80757400000000   -1.17575640000000    1.83090550000000
C        -2.42554760000000    0.00000000000000    2.59495830000000
C        -2.80757400000000    1.17575640000000    1.83090550000000
C        -1.74969350000000   -3.03349030000000    0.59464210000000
C        -0.36750900000000   -3.48258920000000    0.59464210000000
C         0.25062270000000   -3.03349030000000    1.83090550000000
C        -0.74953540000000   -2.30683290000000    2.59495830000000
C        -1.98579880000000   -2.30683290000000    1.83090550000000
C        -0.25062270000000   -3.03349030000000   -1.83090550000000
C         0.74953540000000   -2.30683290000000   -2.59495830000000
C         1.98579880000000   -2.30683290000000   -1.83090550000000
C         1.74969350000000   -3.03349030000000   -0.59464210000000
C         0.36750900000000   -3.48258920000000   -0.59464210000000
C         2.80757400000000   -1.17575640000000   -1.83090550000000
C         2.42554760000000    0.00000000000000   -2.59495830000000
C         2.80757400000000    1.17575640000000   -1.83090550000000
C         3.42570570000000    0.72665740000000   -0.59464210000000
C         3.42570570000000   -0.72665740000000   -0.59464210000000
C         1.98579880000000    2.30683290000000   -1.83090550000000
C         0.74953540000000    2.30683290000000   -2.59495830000000
C        -0.25062270000000    3.03349030000000   -1.83090550000000
C         0.36750900000000    3.48258920000000   -0.59464210000000
C         1.74969350000000    3.03349030000000   -0.59464210000000
C        -1.58028280000000    2.60145750000000   -1.83090550000000
C        -1.96230920000000    1.42570110000000   -2.59495830000000
C        -2.96246730000000    0.69904370000000   -1.83090550000000
C        -3.19857260000000    1.42570110000000   -0.59464210000000
C        -2.34433560000000    2.60145750000000   -0.59464210000000
C        -2.96246730000000   -0.69904370000000   -1.83090550000000
C        -1.96230920000000   -1.42570110000000   -2.59495830000000
C        -1.58028280000000   -2.60145750000000   -1.83090550000000
C        -2.34433560000000   -2.60145750000000   -0.59464210000000
C        -3.19857260000000   -1.42570110000000   -0.59464210000000
C        -1.00015810000000   -0.72665740000000   -3.32997640000000
C        -1.00015810000000    0.72665740000000   -3.32997640000000
C         0.38202640000000    1.17575640000000   -3.32997640000000
C         1.23626340000000    0.00000000000000   -3.32997640000000
C         0.38202640000000   -1.17575640000000   -3.32997640000000
C        -1.76086815247998    0.00000000000000    4.78849957557021
F        -0.76911826531252    0.00000000000000    5.67468926254662
F        -2.50968386795825   -1.06794314680471    5.04863888333743
F        -2.50968386795825    1.06794314680471    5.04863888333743
C        -0.54413818249354   -1.67468516033722    4.78849957845317
F        -0.23767107904745   -0.73147481112462    5.67468925997942
F        -1.79120914301982   -2.05683909935453    5.04863874564184
F         0.24013968171955   -2.71686350152345    5.04863903502921
C         1.42457227037960   -1.03501233722714    4.78849957248258
F         0.62223011468481   -0.45207589682711    5.67468926529602
F         1.40265511061956   -2.33913928186680    5.04863905501621
F         2.65809836182651   -0.61117154425495    5.04863869666890
C         1.42457227037960    1.03501233722714    4.78849957248258
F         0.62223011468481    0.45207589682711    5.67468926529602
F         2.65809836182651    0.61117154425495    5.04863869666891
F         1.40265511061956    2.33913928186680    5.04863905501621
C         3.37204091334889   -3.72927672645244    0.86730596148276
F         4.06564647311729   -3.51265957144658    1.98125763710227
F         4.25569947457670   -3.84739838595791   -0.11965645964809
F         2.78580317558591   -4.91533944031226    1.00324916143780
C         4.58877084110522   -2.05459160147071    0.86730597290559
F         4.59709252483521   -2.78118520641283    1.98125951001435
F         4.97417519512416   -2.85850196315549   -0.11965482382298
F         5.53562669678859   -1.13053295630600    1.00324569798425
C         2.82790274436383   -2.05459160758554    3.71645040671519
F         3.82797483682855   -2.78118494419178    3.22571836876305
F         3.37293748548841   -1.13053297859378    4.50255013394648
F         2.11749631416700   -2.85850222732984    4.50254863174647
C         2.28376457660886   -3.72927671755932    2.62817408867206
F         3.59030321655004   -3.51265997057976    2.75037870097715
F         2.14318168460923   -4.91533956626619    2.04303190988612
F         1.79618325340524   -3.84739782561575    3.85992562899767
C         2.82790274436383    2.05459160758554    3.71645040671519
F         3.82797483682855    2.78118494419178    3.22571836876305
F         2.11749631416700    2.85850222732984    4.50254863174647
F         3.37293748548841    1.13053297859378    4.50255013394648
C         4.25247495652193    1.01957928511255    2.62817407757680
F         4.45020405360858    2.32910962270745    2.75037677428972
F         5.33704498641440    0.51936149478961    2.04303305824600
F         4.21414295278388    0.51936236815950    3.85992636334023
C        -0.53602450593361    4.99908416128281    0.86730591619822
F        -1.22448605650957    5.23152837615597    1.98125850960180
F        -1.18149064144157    5.61404773804446   -0.11965571789346
F         0.63540201352706    5.61404743764837    1.00324736766175
C        -1.08016271022039    3.32439912180418    3.71645041587937
F        -1.46215754230407    4.50005299330749    3.22571838851551
F        -2.06425285383526    2.89718320022386    4.50255037491024
F        -0.03290491502765    3.55721032900471    4.50254840735999
C         0.34440953624153    4.35941144868709    2.62817404748705
F        -0.83992598883967    4.95213069234126    2.75037577510431
F         1.15529636597892    5.23632261667420    2.04303359185445
F         0.80829780400759    4.16837989546168    3.85992670963205
C        -4.92005227074660   -1.03501232949151    0.86730592957069
F        -5.35386609588658   -0.45207588830481    1.98125865327758
F        -5.70437742108406   -0.61117153086585   -0.11965558739362
F        -5.14292645153878   -2.33913927311179    1.00324714649869
C        -4.03961820246674    1.67468514775899    2.62817407948106
F        -4.96930660042402    0.73147479244130    2.75037763231443
F        -4.62303373288713    2.71686348978892    2.04303253910982
F        -3.71458666614023    2.05683907990834    3.85992603200073
C        -2.84103082519036   -3.32439911178427    2.62817407941587
F        -2.23127406184888   -4.50005340761388    2.75037746012492
F        -4.01248672303643   -3.55720929213525    2.04303264409737
F        -3.10404037880941   -2.89718378306488    3.85992609894427
C         0.53602450593361   -4.99908416128281   -0.86730591619822
F         1.22448605650957   -5.23152837615597   -1.98125850960180
F        -0.63540201352706   -5.61404743764837   -1.00324736766175
F         1.18149064144157   -5.61404773804446    0.11965571789346
C         4.03961820246674    1.67468514775899   -2.62817407948106
F         4.96930660042402    0.73147479244129   -2.75037763231441
F         3.71458666614022    2.05683907990832   -3.85992603200073
F         4.62303373288711    2.71686348978894   -2.04303253910982
C         4.92005227074660    1.03501232949151   -0.86730592957069
F         5.35386609588658    0.45207588830481   -1.98125865327758
F         5.14292645153878    2.33913927311179   -1.00324714649869
F         5.70437742108406    0.61117153086585    0.11965558739362
C         2.84103082519036    3.32439911178427   -2.62817407941587
F         2.23127406184888    4.50005340761388   -2.75037746012492
F         3.10404037880941    2.89718378306488   -3.85992609894427
F         4.01248672303643    3.55720929213525   -2.04303264409737
C         0.53602450593361    4.99908416128281   -0.86730591619822
F         1.22448605650957    5.23152837615597   -1.98125850960180
F        -0.63540201352706    5.61404743764837   -1.00324736766175
F         1.18149064144157    5.61404773804446    0.11965571789346
C        -3.37204091334889    3.72927672645244   -0.86730596148276
F        -4.06564647311728    3.51265957144662   -1.98125763710229
F        -2.78580317558593    4.91533944031228   -1.00324916143777
F        -4.25569947457673    3.84739838595791    0.11965645964807
C         0.54413818249354    1.67468516033722   -4.78849957845317
F         0.23767107904745    0.73147481112462   -5.67468925997942
F        -0.24013968171955    2.71686350152345   -5.04863903502921
F         1.79120914301982    2.05683909935453   -5.04863874564184
C         1.76086815247998    0.00000000000000   -4.78849957557021
F         0.76911826531252    0.00000000000000   -5.67468926254662
F         2.50968386795825    1.06794314680471   -5.04863888333743
F         2.50968386795825   -1.06794314680471   -5.04863888333743
156
 energy: -494.129082760097 gnorm: 8.135082546846 xtb: 6.4.1 (a3dbbd7)
C        -1.23778983145890    0.00065556438704    3.32521565118117
C        -0.38257498362339   -1.17688385724460    3.32093733574084
C         0.99382187466204   -0.72244312792349    3.31203051604649
C         0.99333020084834    0.72416272650086    3.31822298899166
C        -0.38199037457672    1.17491022820040    3.33140030977884
C         2.33931361967929   -2.59889326540202    0.59026273109925
C         3.19595674101509   -1.42209837246828    0.59242185175039
C         2.96361520056729   -0.70122259100830    1.83153272996777
C         1.95574195797219   -1.41991302260309    2.58342517216465
C         1.57273352845919   -2.59786291347012    1.82603489634373
C         3.19840196238785    1.42744097417760    0.59606069387094
C         2.34598543022709    2.60236059648374    0.59570773159981
C         1.58249040361212    2.60067210502562    1.83077180294770
C         1.95694982618058    1.42421689409063    2.58541121689394
C         2.95979692741308    0.69771434580087    1.82569426954659
C        -0.36958075283218    3.47202847912725    0.59322609999027
C        -1.74782296923523    3.03518414425858    0.59641876257792
C        -1.98442835936864    2.30898319023557    1.83272595031610
C        -0.75086734447919    2.30272513782260    2.59133407834457
C         0.25420330177773    3.02627892382295    1.82667443918418
C        -3.42595938562623    0.72834833370907    0.59146806109283
C        -3.42776276565271   -0.72696213264515    0.59574967290557
C        -2.80655831590193   -1.17196234178136    1.83273579218634
C        -2.42562084912335   -0.00253496708810    2.59245411630014
C        -2.81088865051986    1.17588838728119    1.83179411148698
C        -1.74675673529664   -3.03379481424321    0.59200894458092
C        -0.37109534241554   -3.48251812768237    0.59808403646218
C         0.24736163195107   -3.03353708324544    1.82998387682459
C        -0.74834319623648   -2.30900788304309    2.59337044046684
C        -1.98715989406961   -2.30944614202249    1.83149604534494
C        -0.25084898033233   -3.03076677608429   -1.83296219517109
C         0.74920262539392   -2.30763237281313   -2.59313718349555
C         1.98509986885443   -2.30567453176713   -1.83090708629502
C         1.74962432444532   -3.03229209464882   -0.59776750855376
C         0.36836409740221   -3.48390917941705   -0.59610112605845
C         2.80655236231106   -1.17734540464900   -1.83083807470744
C         2.42769235779190   -0.00062878564711   -2.59437635987476
C         2.80263763499704    1.17067417282189   -1.82808903438671
C         3.42197842134098    0.72439674490341   -0.59120394573149
C         3.42587926780715   -0.72651913081524   -0.59713764742538
C         1.97842288481081    2.30637797659389   -1.82748578161195
C         0.74942172983996    2.30875183730291   -2.59468858648871
C        -0.25123310097933    3.03313506857053   -1.83112050325594
C         0.36899848800156    3.47554735746226   -0.59867598539227
C         1.74986105620859    3.03419495796928   -0.59506989413793
C        -1.57990451403308    2.60118950621835   -1.83310392218941
C        -1.96276189864798    1.42598630063763   -2.59257938416774
C        -2.96215829686256    0.70035003702571   -1.83110628121651
C        -3.19802015829807    1.42184963009232   -0.59449151225196
C        -2.34689574769322    2.60196204564251   -0.59629873353706
C        -2.96214295642215   -0.70045987832006   -1.82998976064289
C        -1.96244570279609   -1.42579411088362   -2.59460714500157
C        -1.58058958169635   -2.60086698783758   -1.83076771536852
C        -2.34406367253516   -2.60060534996436   -0.59565169185117
C        -3.19556990269934   -1.42723504955474   -0.59933385585560
C        -1.00008645237991   -0.72677398009010   -3.33023020764987
C        -1.00163017722510    0.72557133608432   -3.33099115726643
C         0.37975398479012    1.17615164564218   -3.32691738785901
C         1.23582021059902   -0.00184413938735   -3.32699712950165
C         0.38009369442589   -1.17689218407841   -3.33097324842610
C        -1.78293070976757    0.00264799956449    4.76481277256881
F        -0.80524733800145    0.03963313170219    5.70136877024334
F        -2.55646958338773   -1.01200173014831    5.05013189533565
F        -2.50983848922925    1.06798463454634    5.05425560252212
C        -0.55002372462125   -1.68979615889722    4.76148285177203
F        -0.26707086255966   -0.77581268304127    5.70859300518680
F        -1.75265488677303   -2.11618539053005    5.05370195162753
F         0.17137155228131   -2.75684179849971    5.05418820564614
C         1.42243787376794   -1.03768760620254    4.74529465562613
F         0.66163483349231   -0.47577186544688    5.71323042422797
F         1.44346613819467   -2.32437397234228    5.08488624374727
F         2.65834202929775   -0.64979226489475    5.09695929632668
C         1.43202444836951    1.03668754752136    4.74613201036459
F         0.61771703409454    0.51075150983292    5.70980171976484
F         2.65309492569513    0.65562189528033    5.09422738674655
F         1.36871186334104    2.34118153659017    5.08336547174837
C         3.35139839532704   -3.73078738921228    0.83905565556124
F         4.09631739110707   -3.55901706988477    1.95050252058678
F         4.21708737053738   -3.90875499234973   -0.12456129149007
F         2.82502017891745   -4.92073816312465    0.94391646412310
C         4.58391665448104   -2.03875208038162    0.83804746990690
F         4.65055729935489   -2.75210053019019    1.99258436874375
F         5.02145613192807   -2.80072472366875   -0.12469894383999
F         5.54042287465330   -1.13324394209954    1.00562418860668
C         2.78801363678798   -2.03595040387420    3.71109623957289
F         3.87589293435501   -2.75554665907458    3.26586720358960
F         3.43075653474359   -1.14619116340285    4.48615535970704
F         2.15778530587105   -2.83808811728098    4.53667557070586
C         2.25022993374484   -3.72906709610990    2.61950071160051
F         3.57703528897054   -3.56176495013478    2.78761155499700
F         2.10488926692149   -4.92170991707325    2.10350668098398
F         1.76927875613332   -3.91577495868332    3.82961161188845
C         2.80658420427758    2.02380974992703    3.70621340754687
F         3.81669285428154    2.83705766224831    3.24600200757146
F         2.13897126068857    2.90497196685419    4.49373544802661
F         3.37181686326793    1.18746600016734    4.52707403532880
C         4.24230516530966    1.00736390465811    2.62482459188897
F         4.49624736252323    2.32294790749795    2.72062242013852
F         5.34180482953297    0.52136028240628    2.04610967877751
F         4.27536052194897    0.47313450921509    3.82661786704697
C        -0.50759280511314    4.96949541994460    0.84222182959811
F        -1.27723855142920    5.27110235892552    1.95868650143001
F        -1.21539266379181    5.62844034022892   -0.10383115994714
F         0.59944042857248    5.65183898287144    0.97695473434975
C        -1.07131912630973    3.30166633677660    3.71924425185853
F        -1.51483287660142    4.49203925912813    3.25897376078326
F        -2.06445064873857    2.90181005035711    4.50554650214847
F        -0.08076465181308    3.52258680610543    4.55051790107705
C         0.36189088524152    4.33812395631257    2.62089836712205
F        -0.81330529911763    4.98462910164805    2.77527234330159
F         1.19723351905819    5.22052008823192    2.10813509415290
F         0.86278622870701    4.20900233999576    3.82888273988992
C        -4.91965842691180   -1.03599783226965    0.86639088471643
F        -5.36311513350620   -0.47484580024092    1.96794101372381
F        -5.70568479864690   -0.61092272969886   -0.12066121873905
F        -5.14563243128327   -2.33884422522274    1.00128257833730
C        -4.03969731106973    1.67422326553428    2.62709169539026
F        -4.96376639735785    0.75398163172511    2.76648220601290
F        -4.62402694147243    2.71838401828799    2.04355044178959
F        -3.71856556280767    2.05878284517027    3.85975740923390
C        -2.84149240039193   -3.32454473234074    2.62687647127780
F        -2.23099386489265   -4.50172371837863    2.75131740101593
F        -4.01160750998915   -3.55996106937854    2.04488454097665
F        -3.10669945960643   -2.89886274782693    3.85986777144361
C         0.53491018101846   -4.99846142029032   -0.86779465671389
F         1.22537215418783   -5.23269542304247   -1.98226242930543
F        -0.63595275471605   -5.61520933576680   -1.00347274409136
F         1.17988914521794   -5.61679758904942    0.11906341043899
C         4.01082252544091    1.68775978673080   -2.59853354824117
F         4.97272212002620    0.72388079121864   -2.81021027793417
F         3.73549933177693    2.02909466167277   -3.89234639493369
F         4.62602543201897    2.72229683380821   -2.09997531771509
C         4.90937152847087    1.04042418358799   -0.85798556010927
F         5.38735135165197    0.42407808645598   -1.94843016533097
F         5.18096952853736    2.32399478964409   -0.93304377546113
F         5.70952218464121    0.61207725278263    0.11763046943149
C         2.82590684128549    3.31748774500452   -2.62092536144886
F         2.25104555179542    4.49035383149864   -2.76693660394393
F         3.08523609736859    2.92503838869680   -3.88240771245268
F         4.00999001347810    3.59991713669716   -2.03146845020973
C         0.53322494025563    4.98193143601092   -0.87364850285722
F         1.20730379336718    5.24907273785783   -1.96939519463223
F        -0.63556438362022    5.62428691849050   -1.03960597648394
F         1.22103481858635    5.62857240833562    0.09825584079711
C        -3.37333914908587    3.72619469296869   -0.86778342060225
F        -4.06665048689269    3.51343855529786   -1.98223643058357
F        -2.78772010991402    4.91764357269114   -1.00485127168716
F        -4.25658460029232    3.84897958983133    0.11980252612547
C         0.54366137989623    1.68263166503177   -4.77995440894104
F         0.20109498919389    0.76958939250958   -5.68429517427739
F        -0.24195393947896    2.71888002537737   -5.05000591084409
F         1.74784422387627    2.11995425963015   -5.05342218395319
C         1.76766525866317   -0.00536359999811   -4.78015354274890
F         0.79407062071687   -0.04457081889523   -5.68429957502208
F         2.55621990764595    1.00701538245310   -5.05340408429084
F         2.51143476296977   -1.07050255081988   -5.05010214305034
156
 energy: -501.285425105506 gnorm: 7.137144383378 xtb: 6.4.1 (a3dbbd7)
C        -1.23921756171591    0.00232776061796    3.32442165504455
C        -0.38350456582791   -1.17849028333588    3.31345912595598
C         0.98691360050230   -0.71791659907371    3.29730650365672
C         0.98655442248417    0.72083442542164    3.30848875652715
C        -0.38132338221876    1.17375747318930    3.33273675165468
C         2.33564206999878   -2.59788970851256    0.58663583406539
C         3.19590678872184   -1.42027867682813    0.59221387766280
C         2.96465804589878   -0.70339126413910    1.83220592697211
C         1.95307371269117   -1.41675580638789    2.57538596653840
C         1.56598004209975   -2.59510372540318    1.82241260143471
C         3.19842558618917    1.42950413117518    0.59774718968440
C         2.34687655224014    2.60282196142506    0.59589469124381
C         1.58506165230948    2.60045164449105    1.82969207261217
C         1.95451987431661    1.42457043670755    2.57953391281200
C         2.95881893912430    0.69708656145274    1.82142362119079
C        -0.37333056232584    3.46692821374391    0.59182626025869
C        -1.74552498441810    3.03624833728548    0.59835953595485
C        -1.98293063993951    2.31173532177406    1.83329548776233
C        -0.75324038128313    2.29985633065360    2.58969648701016
C         0.25784350274452    3.02316917648124    1.82680727473343
C        -3.42239323550377    0.73032733455845    0.58678979546814
C        -3.43417506542638   -0.72742703822159    0.59758918896097
C        -2.80466453858906   -1.16657368423535    1.83348123530242
C        -2.42658036924067   -0.00651254188978    2.58833009430549
C        -2.81509873259512    1.17633682546602    1.83387194566324
C        -1.74312409728785   -3.03399391871342    0.58924676442781
C        -0.37545236163447   -3.47814392918423    0.60154862581866
C         0.24465457777918   -3.03373090470121    1.82776194750515
C        -0.74707574386789   -2.31009159680797    2.59239562076912
C        -1.98939493795238   -2.31403989370219    1.83424679093348
C        -0.25102729434071   -3.02786306457591   -1.83559765302067
C         0.74850341685913   -2.30817316088014   -2.59103630201173
C         1.98472227485572   -2.30381890384005   -1.83100166782755
C         1.75001959596822   -3.03126673680751   -0.60045607443503
C         0.36953758193106   -3.49010311559501   -0.59831405810854
C         2.80457575310817   -1.17913612589835   -1.83057054548409
C         2.43008694605533   -0.00187006158711   -2.59387173625748
C         2.80235054833857    1.16734212544516   -1.82925363332031
C         3.42029944129218    0.72127395702129   -0.58832387324696
C         3.42617242890993   -0.72630849611450   -0.60032582672894
C         1.97250489274716    2.30935584002808   -1.82511154397134
C         0.74837900570136    2.31102327461534   -2.59394457532144
C        -0.25280120496861    3.03053649903705   -1.83156455893719
C         0.37158990159186    3.47168915415590   -0.60393331853774
C         1.75008528099298    3.03345166525417   -0.59452999319398
C        -1.57818985102101    2.59832308774988   -1.83528610761700
C        -1.96357617982484    1.42618139948360   -2.59012403573394
C        -2.96177742153559    0.70180470012191   -1.83145258865589
C        -3.19721889911068    1.41742627370391   -0.59357832178012
C        -2.35053822849951    2.60554409213935   -0.59886542627711
C        -2.96159547249943   -0.70198203472510   -1.82859163123397
C        -1.96251191041018   -1.42619964528688   -2.59400694001898
C        -1.58094611358907   -2.60012188433807   -1.83073023280081
C        -2.34401388229407   -2.59916400473492   -0.59680060905551
C        -3.19210058970392   -1.42903312297557   -0.60452717718863
C        -0.99940508896417   -0.72668014909798   -3.32813035993581
C        -1.00386571812160    0.72405134813590   -3.33185866919156
C         0.37725658606365    1.17700303294267   -3.32591066473643
C         1.23586378686640   -0.00447125376803   -3.32655541840905
C         0.37744583109878   -1.17880579202737   -3.33099931059456
C        -1.80311566077268   -0.00155856072320    4.74290787435265
F        -0.84120540828165    0.09358920489293    5.72563456990259
F        -2.58602648453835   -0.97590711361480    5.05243613641403
F        -2.50805821987997    1.06494539924319    5.05898032135455
C        -0.55426382585568   -1.70840340494542    4.73682065227146
F        -0.34554964098336   -0.84327265181213    5.73966346468422
F        -1.72451106802177   -2.15217208192826    5.05805905537972
F         0.12219012922606   -2.78160426584817    5.05363938906181
C         1.42483681235902   -1.02697045316588    4.69798822053428
F         0.76500183517152   -0.51521850616330    5.74682678395688
F         1.46770844980276   -2.31643310398478    5.12828535529096
F         2.62076311979420   -0.67241393541586    5.16811773747973
C         1.44815764676694    1.03684069400223    4.70344609653760
F         0.59996344861398    0.59444314811055    5.74738868480293
F         2.63067929131176    0.68951213220641    5.14166318679793
F         1.31089264190414    2.31449265766278    5.13837470681813
C         3.33306123175245   -3.73407700312701    0.81728497711930
F         4.15040889767169   -3.61717237397345    1.85389066513178
F         4.19321141159027   -3.94605616271904   -0.12565396067005
F         2.85249811495366   -4.92284951899425    0.90518736786324
C         4.57932131242668   -2.02549205724293    0.81293205846246
F         4.70543253887370   -2.70801242625640    2.00869885171193
F         5.05131012951521   -2.76558915691409   -0.12687955093396
F         5.54315030761496   -1.13800129019808    1.00768613382736
C         2.74244889744299   -2.02059304108303    3.70822220330085
F         3.93082529736640   -2.71964140139999    3.30592959889241
F         3.51309152363702   -1.18276158065037    4.44220460325440
F         2.20014817838607   -2.82633683037505    4.55166526938646
C         2.22301487495061   -3.72859535931014    2.61068806780803
F         3.51620245858970   -3.61931595902047    2.87643080844017
F         2.07884728473615   -4.92668255944257    2.14327901934421
F         1.75142709201083   -3.96054019021049    3.80857862635496
C         2.78091588996681    1.98775602637365    3.70390161549450
F         3.82221015460007    2.88920369540971    3.25582321635783
F         2.19566207769804    2.95732605694706    4.45960715667296
F         3.38143759748527    1.24236323711491    4.53005212741115
C         4.23443864817213    0.99655440174299    2.62297509269262
F         4.52700582714756    2.31902267783477    2.70138687147209
F         5.34387732883609    0.52453370809641    2.05102845776615
F         4.31414802987350    0.44429338106065    3.80391874457950
C        -0.47770462751739    4.94594496529510    0.81706108442283
F        -1.34160287569188    5.30986272426500    1.93316439043906
F        -1.24884125939357    5.63705514417669   -0.05602289040991
F         0.54831638553708    5.68021061224149    0.97890191815424
C        -1.06145428731799    3.27804917265120    3.72334131131730
F        -1.57717528651570    4.48333092991518    3.29052280384229
F        -2.06277086245937    2.90753487940618    4.50692731478327
F        -0.11161294734887    3.50442761797068    4.57877289489248
C         0.38439587778645    4.32198123199848    2.60954468902210
F        -0.76234401529495    5.01385895088810    2.81063409582671
F         1.22563978534653    5.20784277830867    2.14911453874678
F         0.89012394274833    4.23566633332763    3.80692922246106
C        -4.91973811022363   -1.03648064290445    0.86609713162401
F        -5.37179169245824   -0.49625295865083    1.95537028240221
F        -5.70685883901073   -0.61060036904683   -0.12174173559630
F        -5.14856207789132   -2.33818709196299    0.99900768165158
C        -4.04041489388161    1.67351630300523    2.62613743902736
F        -4.95865350854799    0.77511262070824    2.78168052430088
F        -4.62491372529674    2.71974658458308    2.04407808242621
F        -3.72320296789795    2.06059937429286    3.85903141185525
C        -2.84225552918844   -3.32484839710599    2.62561763301515
F        -2.23069931253885   -4.50317094510670    2.75214194141941
F        -4.01037514334455   -3.56298811630969    2.04695609026864
F        -3.10975097419096   -2.90052019420766    3.85928009446170
C         0.53380434342866   -4.99845700440078   -0.86833758023634
F         1.22619309422032   -5.23375114529824   -1.98331920329082
F        -0.63661963961277   -5.61634164448729   -1.00376667095115
F         1.17757492204200   -5.61956876236020    0.11831586741654
C         3.98271700166859    1.70616934691329   -2.56649912322089
F         4.98669997030963    0.70583685558076   -2.85827029569327
F         3.77818914260797    1.98070509021180   -3.91030261576209
F         4.64113394387209    2.69939775457412   -2.14927824593720