63
 energy: -142.072007643073 gnorm: 0.147119629484 xtb: 6.4.1 (a3dbbd7)
C        -1.32333194775417    0.00617886347970    3.59125188963251
C        -0.38909456310608   -1.27772716531095    3.58793274117145
C         0.98734837171535   -0.72675165446744    3.28582848483634
C         0.97037352147027    0.69420630050098    3.25749094477592
C        -0.37633960723915    1.14742685553706    3.29074190055216
C         2.33092254703306   -2.58746567485154    0.56610397604514
C         3.16875994483946   -1.41579758165486    0.56774606192583
C         2.91978889080344   -0.69314490348597    1.79074016083681
C         1.93018806170321   -1.40549148670748    2.54814074589443
C         1.57476788296703   -2.59634073810083    1.79100274817011
C         3.18328087896891    1.41909085132624    0.57258499213333
C         2.33432229320876    2.58580968143883    0.57559918777772
C         1.57332139543398    2.57095369604789    1.79851755002390
C         1.94352282881158    1.40414426944103    2.54285112768194
C         2.93804115459266    0.69543633516321    1.79366637265872
C        -0.36752716666001    3.44413435035873    0.58029879258012
C        -1.74013210357057    3.00741588983283    0.58054459941955
C        -1.97818665379860    2.28654468588757    1.80361199533287
C        -0.73393250395930    2.25581684802015    2.55761528373596
C         0.24647420110131    2.98080949443068    1.80023381740862
C        -3.39591089216029    0.72883802558845    0.57533866561121
C        -3.37932885665645   -0.70504006359254    0.57786353554246
C        -2.74934612856665   -1.12865052488571    1.82052481704193
C        -2.40026274086307   -0.01382700939334    2.55826017594831
C        -2.77435746218519    1.16021035149421    1.80187148511327
C        -1.70577977915925   -3.00504292266898    0.57191390059864
C        -0.34657433486683   -3.46193150719564    0.56452064530943
C         0.25810980605866   -3.00738238851431    1.79111395103090
C        -0.74203335365356   -2.29289841924391    2.55243835495534
C        -1.91196172287597   -2.27950749485726    1.81757326885181
C        -0.23558165862281   -3.01371296632646   -1.83961821271520
C         0.75175047781152   -2.28700579367404   -2.59867644532734
C         1.98089777627659   -2.28868303835222   -1.84308617931945
C         1.74918768154887   -3.01946296828987   -0.62050040464920
C         0.38088379041600   -3.46658963937948   -0.62079308111870
C         2.79204993046375   -1.16413556659148   -1.83875967224219
C         2.41002754086118    0.00666527739579   -2.59106683151125
C         2.78807241943814    1.16926264052202   -1.83130610074559
C         3.40298548527550    0.72369088805355   -0.60835037131266
C         3.40110069057525   -0.71955382898331   -0.60923004493565
C         1.96912615256614    2.29475463280888   -1.82840259178522
C         0.74474441569639    2.29528025280401   -2.58515694980539
C        -0.24988429155059    3.01642431380723   -1.82795956514323
C         0.36353023978106    3.45499162487799   -0.59844520421847
C         1.73735095077191    3.01278425815446   -0.60243935985793
C        -1.56944867307335    2.59059487249377   -1.83048045584010
C        -1.94787757007795    1.42311330884846   -2.58910001301826
C        -2.94122296022124    0.70465889669871   -1.83002690890673
C        -3.17947337159538    1.42642572884929   -0.60816005298080
C        -2.33307692209202    2.59081264516620   -0.60600270171083
C        -2.93172079240255   -0.68656028280689   -1.82266620418654
C        -1.94059925011627   -1.40887980593779   -2.58138532694875
C        -1.55636984787224   -2.57670213587000   -1.82754179967090
C        -2.29848528094837   -2.57416283302738   -0.59738768824741
C        -3.15456863482430   -1.39758782868201   -0.59434922362650
C        -0.98936986995949   -0.71482485845558   -3.31408037280858
C        -0.99159024528376    0.72723605185279   -3.31429029098428
C         0.38014149579772    1.17201579903766   -3.31523274930469
C         1.22728121177112    0.00778684511203   -3.31823795360647
C         0.38205649969615   -1.16057927312445   -3.31917058806611
Cl       -2.09995733548554    0.29360223981566    5.20530702406437
Cl       -0.35034641589922   -2.11046483688082    5.19906768498811
Cl        2.63988186975776   -4.56215460187939   -0.94122830606067
63
 energy: -142.097119934433 gnorm: 0.070885141507 xtb: 6.4.1 (a3dbbd7)
C        -1.32147392747389    0.00647866431741    3.59012032463604
C        -0.38610568918674   -1.27669929183846    3.58811618079129
C         0.99004625955260   -0.72173661840637    3.29034910861527
C         0.97143274618364    0.69942531172432    3.26009505373497
C        -0.37583164016042    1.14944460182734    3.29143655444877
C         2.34158295206389   -2.58352009577578    0.59203697335713
C         3.16168718997935   -1.40492252162361    0.57797930058550
C         2.92583844393938   -0.68226975846815    1.80263235812606
C         1.93727272470730   -1.39644445200181    2.55805729535943
C         1.57909462847529   -2.58043004135041    1.79190004230178
C         3.18449497311684    1.42425638227912    0.57656286851424
C         2.33523855720620    2.58888202452469    0.57760641180928
C         1.57359446416764    2.57569493939943    1.80054989726748
C         1.94436719112017    1.41054319417297    2.54669494351692
C         2.94234135999689    0.70424890952736    1.80054234982996
C        -0.36765622422335    3.44429537217209    0.58097829692118
C        -1.74006660452476    3.00706120514292    0.58234138883918
C        -1.97731809018921    2.28764689487814    1.80445347640067
C        -0.73350798692996    2.25785000912172    2.55829349562619
C         0.24694043241714    2.98366512651720    1.80151309860717
C        -3.39420230495268    0.72603087435380    0.57481458204045
C        -3.38164912075258   -0.70694299768634    0.57497354784443
C        -2.74923525850119   -1.13150336943138    1.81515234808881
C        -2.39823368615849   -0.01306949655202    2.55708015515063
C        -2.77174412012393    1.15759293615302    1.80327450541982
C        -1.71868542655932   -3.00412609034297    0.56927362487990
C        -0.35725423112872   -3.44595772630381    0.56177163092494
C         0.25325215926335   -2.99854796894840    1.79573927094753
C        -0.73595263689511   -2.29056011804124    2.54866611879217
C        -1.91664617507969   -2.27792076734669    1.81043906090220
C        -0.24249176193852   -3.00398014578293   -1.83514330088973
C         0.74645851720866   -2.27661009915715   -2.59287065178346
C         1.97163083208698   -2.27404953647451   -1.84634731218890
C         1.79872037784496   -3.11038882225966   -0.63744988854777
C         0.36219261018974   -3.45576574821358   -0.61925819705824
C         2.77898763207022   -1.15542749296961   -1.83629645565236
C         2.40808480138281    0.01021109705987   -2.59466340805076
C         2.78582774102500    1.16989896245357   -1.83016647415884
C         3.40109780251480    0.72497116232227   -0.60556812542657
C         3.39738944277799   -0.71409783309114   -0.60328217069736
C         1.96805839204872    2.29484274651264   -1.82720194770753
C         0.74280521815735    2.29644223159180   -2.58487076848388
C        -0.25009356232461    3.01668602098987   -1.82751646485623
C         0.36340311551173    3.45485816026169   -0.59770105086947
C         1.73724702593895    3.01366223325875   -0.60137333322810
C        -1.57140783509912    2.59063825865282   -1.82927196576974
C        -1.94988906604315    1.42495523564936   -2.58935980371817
C        -2.94355962393775    0.70531375899774   -1.83103750980212
C        -3.17962176831753    1.42558517150165   -0.60786072891445
C        -2.33389145457075    2.59038267956799   -0.60573961007878
C        -2.93700171321895   -0.68483926944477   -1.82683977069143
C        -1.94583181127421   -1.40589758510282   -2.58592444111540
C        -1.56745506860561   -2.57395443451594   -1.83028925712492
C        -2.31199403147461   -2.57513017671399   -0.60457308911462
C        -3.16180800413236   -1.39877388444348   -0.59979534658638
C        -0.99330122743846   -0.71131424057404   -3.31766647662624
C        -0.99451266092027    0.73040140852408   -3.31660279457319
C         0.37736664767769    1.17475956444551   -3.31712719705496
C         1.22400510628130    0.01110583987588   -3.32345961494303
C         0.37860904362561   -1.15378165063502   -3.32389013616583
Cl       -2.09962484954316    0.29451635118769    5.20372790643603
Cl       -0.34734881821177   -2.10873312686088    5.19891478413107
Cl        2.70294546147121   -4.68589498695366   -0.97177443197393
63
 energy: -142.104148047533 gnorm: 0.021772307824 xtb: 6.4.1 (a3dbbd7)
C        -1.31945930831645    0.00908909147121    3.58710744515881
C        -0.38378995048015   -1.27270213080420    3.58422900621240
C         0.99182857242064   -0.71616005591945    3.28869118577086
C         0.97372092020429    0.70605136027195    3.26314374501969
C        -0.37435705899104    1.15365149786969    3.29257376121050
C         2.33630091870377   -2.57731292425586    0.60143052141514
C         3.15448466024640   -1.40181636405368    0.57964310935465
C         2.92738427391850   -0.67500972743112    1.80408620823537
C         1.93921996683915   -1.39001800627102    2.55677441941011
C         1.58316312448616   -2.57172776147717    1.78256138054171
C         3.18594367825899    1.43074404014453    0.58041249729222
C         2.33587609423208    2.59376045590074    0.57997576137483
C         1.57416241676735    2.58265068870255    1.80361363186259
C         1.94669004704066    1.41840872975876    2.55089992970914
C         2.94487235114828    0.71179388962690    1.80388239930258
C        -0.36862513724550    3.44702670151107    0.58276985714769
C        -1.74038439716032    3.00793230543903    0.58502639084542
C        -1.97604602586658    2.28995608431803    1.80577407505365
C        -0.73310148697366    2.26229151256164    2.56000663729186
C         0.24733924819096    2.98894667336115    1.80375485561546
C        -3.39241840233107    0.72362548902044    0.57412547491185
C        -3.38472033817019   -0.70851435998134    0.57192439925277
C        -2.74875250070393   -1.13497347613816    1.80874457820011
C        -2.39639936776816   -0.01063902565759    2.55524200197536
C        -2.76795495407505    1.15472877023522    1.80439161688074
C        -1.72207537820504   -2.99801338111880    0.56538279630639
C        -0.35961142254334   -3.43790077616800    0.55689195919276
C         0.24793980988145   -2.99374733455913    1.80071472401160
C        -0.72656750985471   -2.28717925859839    2.54115579757519
C        -1.92176807945228   -2.27552220931504    1.80188068601880
C        -0.24303479331454   -2.99651651297346   -1.82538955965696
C         0.74659181675153   -2.26937763554703   -2.58041081332227
C         1.96974882769942   -2.27353595860722   -1.84566510892846
C         1.84165424760256   -3.19384455947653   -0.65444084259496
C         0.35549597877657   -3.45489321829345   -0.61734478990499
C         2.76989161377471   -1.15765694941835   -1.83153460250547
C         2.40049189489664    0.00878557803328   -2.58667941895361
C         2.78104610265561    1.16999801268291   -1.82532996750380
C         3.39779881305437    0.72465703101181   -0.60101497063641
C         3.39805655136736   -0.71209370203902   -0.59828958300656
C         1.96596305740399    2.29571903230524   -1.82427170275981
C         0.73973989122934    2.29848695444722   -2.58331238510347
C        -0.25121258786146    3.01753723731279   -1.82560035591968
C         0.36219149549754    3.45648279319064   -0.59578101250432
C         1.73615963590932    3.01651643642844   -0.59917106933482
C        -1.57429684151355    2.59152008325818   -1.82686032475602
C        -1.95311874806178    1.42804066469334   -2.58898455272461
C        -2.94715490842504    0.70682133727595   -1.83180635016453
C        -3.18041175952315    1.42555740652138   -0.60683127270537
C        -2.33500706451356    2.59094717243718   -0.60431558262936
C        -2.94321374035902   -0.68276375629500   -1.83136863805762
C        -1.95028007228257   -1.40324819344542   -2.58926850584840
C        -1.57228176863662   -2.57020724430330   -1.83054321375828
C        -2.32050371120880   -2.57304324465416   -0.61113567569205
C        -3.17067014964677   -1.40064095190620   -0.60563622723979
C        -0.99659899118633   -0.70826428308587   -3.31850638364267
C        -0.99814318308489    0.73381664071531   -3.31729912729406
C         0.37393697001658    1.17798977814295   -3.31769939618872
C         1.21845425394295    0.01272906091972   -3.32064308090466
C         0.37618887681936   -1.14938431270150   -3.32084864765094
Cl       -2.10169605656279    0.29581831252083    5.19968960551618
Cl       -0.34326394840389   -2.10687372592744    5.19241125937397
Cl        2.75120100309824   -4.77944280001305   -0.98776332415358
63
 energy: -142.104623261043 gnorm: 0.012803777708 xtb: 6.4.1 (a3dbbd7)
C        -1.31777129002395    0.00992800329472    3.58381611104604
C        -0.38260183606121   -1.27047798347742    3.58105099249576
C         0.99257749472189   -0.71345800054316    3.28550320727170
C         0.97538842073731    0.70911362514505    3.26373721455142
C        -0.37305536599008    1.15579601431853    3.29276533054705
C         2.33257418361569   -2.57731559232699    0.59922152505011
C         3.15508372438282   -1.40298133774269    0.57836237605808
C         2.92760436793525   -0.67320928917873    1.80197920181469
C         1.93848675621056   -1.38789712368115    2.55284569739764
C         1.58488944775155   -2.57224621569586    1.77794717955939
C         3.18713228344062    1.43382642444649    0.58174732675975
C         2.33656157981809    2.59676930567315    0.58100039350783
C         1.57529566990893    2.58659918939566    1.80529562685668
C         1.94864354302773    1.42203513341839    2.55243255499385
C         2.94607190807517    0.71444073347306    1.80440068978234
C        -0.36889072733917    3.44936723062476    0.58405931947834
C        -1.74034532031140    3.00865514385746    0.58633451154420
C        -1.97514484273923    2.29120926706971    1.80649528873591
C        -0.73259913235170    2.26487916675518    2.56095136639846
C         0.24808377184603    2.99239678140019    1.80519763723118
C        -3.39209244061866    0.72310624984961    0.57344547560658
C        -3.38637356375261   -0.70880358486390    0.57020423753757
C        -2.74861085648525   -1.13627396465368    1.80501915926434
C        -2.39508974946635   -0.00944162805310    2.55301942653228
C        -2.76578264291967    1.15343251417684    1.80405622407877
C        -1.72129002251847   -2.99562441765225    0.56288985382325
C        -0.35887684108476   -3.44002579562984    0.55520920123280
C         0.24518127414657   -2.99376046799624    1.80285383368713
C        -0.72385600630617   -2.28609026613853    2.53793497283904
C        -1.92421108144262   -2.27464295526809    1.79738498393214
C        -0.24246367859686   -2.99654574196192   -1.82244937729129
C         0.74760632006322   -2.26944558370474   -2.57600607820934
C         1.97343512617448   -2.28110886993970   -1.84589410624407
C         1.85031644256179   -3.21401010177159   -0.65927912716168
C         0.35772358668194   -3.46228965582512   -0.61756677568872
C         2.76963075671827   -1.16185302035832   -1.82957007728089
C         2.39594877542865    0.00650418219363   -2.58005470725591
C         2.77784552284899    1.16927898765042   -1.82151616924618
C         3.39722782554394    0.72502623423589   -0.59870532553011
C         3.40033675837540   -0.71168982436317   -0.59669281526011
C         1.96448036879464    2.29596490875488   -1.82196629233492
C         0.73794971637235    2.29922802415330   -2.58131339945671
C        -0.25215315148034    3.01861449324631   -1.82417721037526
C         0.36151638469620    3.45820382218601   -0.59460548250053
C         1.73568018938104    3.01861639224400   -0.59783927584233
C        -1.57574736974033    2.59235142281602   -1.82556774480610
C        -1.95497406277383    1.42955014750516   -2.58864283904552
C        -2.94944943075024    0.70750966320989   -1.83232166644249
C        -3.18121122613652    1.42583632466687   -0.60644366185655
C        -2.33539048614237    2.59144142690802   -0.60326182078834
C        -2.94664942159465   -0.68218894049019   -1.83347428491931
C        -1.95203525585800   -1.40245296433694   -2.59001315456684
C        -1.57227322734644   -2.56898578354658   -1.83067115977370
C        -2.32293505116738   -2.57252769225676   -0.61367817771682
C        -3.17484272852734   -1.40174162945717   -0.60822299134871
C        -0.99790737499096   -0.70726392435217   -3.31720569300742
C        -0.99985450977010    0.73509907550986   -3.31673652963034
C         0.37224446610267    1.17903257592539   -3.31621757435518
C         1.21573534001623    0.01258171728719   -3.31638054297928
C         0.37492054382216   -1.14905177343865   -3.31650958703197
Cl       -2.10191714110767    0.29307972473096    5.19664211478885
Cl       -0.34148186696337   -2.10337834314296    5.18899823322071
Cl        2.75832262327001   -4.79363445262085   -0.98465238868312
63
 energy: -142.104811490452 gnorm: 0.005420074302 xtb: 6.4.1 (a3dbbd7)
C        -1.31699313108929    0.00983175063218    3.58233805369733
C        -0.38200733623224   -1.26976912481489    3.58004542133841
C         0.99285126569622   -0.71253101199875    3.28297894858837
C         0.97628283494544    0.71017292058776    3.26385655399037
C        -0.37234301338352    1.15630611176552    3.29287872667449
C         2.32870793992048   -2.57677709570957    0.59624396077763
C         3.15656556165151   -1.40352574185011    0.57702121830520
C         2.92768574981481   -0.67248894951152    1.80014465424196
C         1.93758346108287   -1.38682424381524    2.54958905729558
C         1.58617158645873   -2.57344349934281    1.77448067960398
C         3.18824613331335    1.43555236676782    0.58239105326894
C         2.33723763930500    2.59838727486581    0.58147403300154
C         1.57627334502144    2.58846369910570    1.80628478885260
C         1.94986392102576    1.42343713695985    2.55322751064086
C         2.94695205743722    0.71559089026619    1.80456895296390
C        -0.36860400250669    3.45048072329206    0.58479811846422
C        -1.73987501830632    3.00845864156066    0.58711640862136
C        -1.97416838042507    2.29177117120358    1.80701828124184
C        -0.73214848027822    2.26586361070534    2.56142448728286
C         0.24891480997690    2.99407307426883    1.80603204473965
C        -3.39165540592625    0.72233604340133    0.57298312466575
C        -3.38736988755918   -0.70935868123407    0.56939849138481
C        -2.74865506193749   -1.13795952415283    1.80253125537788
C        -2.39383311605802   -0.00863683409504    2.55154461166435
C        -2.76360572840132    1.15167515516308    1.80384878002144
C        -1.72087216167349   -2.99434891727085    0.56141813380356
C        -0.35852583085879   -3.44138475171903    0.55444174589534
C         0.24242646394457   -2.99384218220828    1.80526490923963
C        -0.72224399681222   -2.28623634640562    2.53689811890449
C        -1.92662787571063   -2.27459828830436    1.79434043458743
C        -0.24239044080974   -2.99601787169599   -1.82059132745269
C         0.74802166880966   -2.26904349744805   -2.57318670891785
C         1.97601909940812   -2.28612793820421   -1.84551866534397
C         1.85372727471179   -3.22313160661189   -0.66176272014758
C         0.35981186764938   -3.46688259177477   -0.61730989013307
C         2.76949102000904   -1.16410114699976   -1.82821889778280
C         2.39298707988822    0.00494430570441   -2.57582635435274
C         2.77590725766355    1.16870042421155   -1.81907254636613
C         3.39775223183085    0.72578099215232   -0.59758594545556
C         3.40252072362320   -0.71080881069792   -0.59580187415299
C         1.96392669117665    2.29609429472703   -1.82074861455570
C         0.73699744727898    2.29954506473475   -2.58004841482973
C        -0.25244644782891    3.01925018555183   -1.82345625498059
C         0.36139639161479    3.45911932831208   -0.59406733535091
C         1.73571678141877    3.01971678534795   -0.59716065664062
C        -1.57638406073371    2.59248300644623   -1.82479644750904
C        -1.95597899091384    1.43019468543837   -2.58857577601678
C        -2.95071009209914    0.70744385593319   -1.83268672483405
C        -3.18142004040117    1.42544924781272   -0.60610580194300
C        -2.33513241236727    2.59124692408586   -0.60266413334520
C        -2.94901406951552   -0.68226069423321   -1.83470733899765
C        -1.95300785590861   -1.40200248622337   -2.59034683605612
C        -1.57196649031694   -2.56803090263122   -1.83066948084953
C        -2.32484386907012   -2.57270201268601   -0.61509208462070
C        -3.17771066255678   -1.40297767330215   -0.60969163193318
C        -0.99864070670729   -0.70663633204790   -3.31613348375828
C        -1.00066305045459    0.73586309023438   -3.31665514584716
C         0.37138059151878    1.17976774175740   -3.31546440759195
C         1.21430677832259    0.01261301546099   -3.31383786762291
C         0.37400034461123   -1.14873319636659   -3.31334540927694
Cl       -2.10710201258828    0.29855206354838    5.19244884693204
Cl       -0.33409213338340   -2.10628509109677    5.18537077965226
Cl        2.75792321379665   -4.79264155589823   -0.97810817806054
63
 energy: -142.104826625233 gnorm: 0.003511807031 xtb: 6.4.1 (a3dbbd7)
C        -1.31543218457412    0.00895295440210    3.58006623067126
C        -0.38198031411613   -1.26875822492635    3.57840804281118
C         0.99349288103278   -0.71236700469545    3.28191808940628
C         0.97717086205577    0.71035194506613    3.26300751795303
C        -0.37138158426536    1.15637700103474    3.29285242178639
C         2.32615885255640   -2.57572627778761    0.59464968136994
C         3.15735726936205   -1.40312892232057    0.57629753783301
C         2.92810734893368   -0.67237761614119    1.79938231631353
C         1.93774210380528   -1.38666027208973    2.54860398086755
C         1.58668854890498   -2.57386307580518    1.77313240683070
C         3.18906510527727    1.43596328735067    0.58194205042683
C         2.33787117057485    2.59874728969273    0.58103211920196
C         1.57705389299864    2.58882540510495    1.80606393707791
C         1.95087930532890    1.42365714503740    2.55281714209794
C         2.94783176843013    0.71579162682408    1.80414092548797
C        -0.36807074021453    3.45046896886457    0.58483661154220
C        -1.73930994016256    3.00786728026343    0.58743673394398
C        -1.97341750130579    2.29177294791123    1.80741652057117
C        -0.73164148567244    2.26614099664517    2.56165761727712
C         0.24967608280983    2.99436731105508    1.80604539203407
C        -3.39127855634879    0.72169839157943    0.57284881690290
C        -3.38778346819482   -0.70992989143955    0.56905347919027
C        -2.74895660074303   -1.13939482787678    1.80119758016064
C        -2.39347660492836   -0.00864289632136    2.55096623792435
C        -2.76250866609255    1.15038772589087    1.80410312793464
C        -1.72112640939019   -2.99441782581853    0.56073526392215
C        -0.35867899527415   -3.44130186580659    0.55426586410924
C         0.24080386604215   -2.99387608414212    1.80682183552614
C        -0.72210969655466   -2.28730204622526    2.53721526270153
C        -1.92829132651336   -2.27523728088110    1.79278422288225
C        -0.24265908371434   -2.99524947252748   -1.82013994795939
C         0.74789146980502   -2.26844633742776   -2.57247499442928
C         1.97637043342454   -2.28692937644303   -1.84490389920908
C         1.85403363189089   -3.22428744342561   -0.66215688667331
C         0.36047672956483   -3.46709214721137   -0.61681831673159
C         2.76907775128227   -1.16420939111682   -1.82799234034500
C         2.39227156567772    0.00447265027376   -2.57519210229951
C         2.77569806967770    1.16854545187855   -1.81895946108423
C         3.39868701222948    0.72635570328057   -0.59804377054360
C         3.40331861676604   -0.71012815721019   -0.59580522821483
C         1.96418564843413    2.29613539913397   -1.82102185648291
C         0.73687609358954    2.29950582767234   -2.58000713024990
C        -0.25223126738194    3.01930030053670   -1.82351230119535
C         0.36165156753220    3.45915875681479   -0.59422936965218
C         1.73609057050261    3.01984629723522   -0.59747003706172
C        -1.57629752367460    2.59213385832898   -1.82453671401260
C        -1.95601189728676    1.43009416365727   -2.58860751907602
C        -2.95074020135980    0.70703773966692   -1.83279655197418
C        -3.18105718463824    1.42485085024908   -0.60586462084097
C        -2.33457104102630    2.59080538992289   -0.60246599945266
C        -2.94967942707275   -0.68258770282453   -1.83521246908281
C        -1.95317075566711   -1.40197445176880   -2.59069972047503
C        -1.57183659828841   -2.56776434498710   -1.83098949997366
C        -2.32588449327531   -2.57321738590016   -0.61578042694283
C        -3.17870261254715   -1.40383503037369   -0.61037232933422
C        -0.99874441726679   -0.70651039419462   -3.31602556257641
C        -1.00065919214637    0.73600757924109   -3.31695166942714
C         0.37130118708052    1.17999772707209   -3.31573028980017
C         1.21416994541850    0.01272499568844   -3.31375117863165
C         0.37371221959229   -1.14857806144652   -3.31266008847007
Cl       -2.09947875478905    0.28103603518998    5.19659880432457
Cl       -0.34666368569308   -2.09129501848045    5.19048897297609
Cl        2.75473810971041   -4.78523319329563   -0.97244923086237
63
 energy: -142.104873461714 gnorm: 0.002087218495 xtb: 6.4.1 (a3dbbd7)
C        -1.31625481523720    0.00887712950557    3.58165179530313
C        -0.38224858713807   -1.26997623367326    3.58027449493152
C         0.99304596034950   -0.71325396806423    3.28241366283562
C         0.97657200321369    0.70948910448750    3.26312456530066
C        -0.37188637764142    1.15571500492835    3.29299382876399
C         2.32592322604592   -2.57531846469328    0.59482915746374
C         3.15707750214741   -1.40267268146717    0.57655218562521
C         2.92799796130611   -0.67274445025868    1.79982367278573
C         1.93767713911783   -1.38710272971207    2.54915562154855
C         1.58652297097502   -2.57375152000728    1.77351859194274
C         3.18879355564411    1.43532478992404    0.58189089137520
C         2.33769959617306    2.59809111663766    0.58106640307611
C         1.57673796785864    2.58790869019435    1.80596715126195
C         1.95028000742707    1.42271907504311    2.55274094909360
C         2.94752252946207    0.71524311675974    1.80423569823383
C        -0.36796136003574    3.44997146478417    0.58473813283470
C        -1.73928260069539    3.00766640411943    0.58733442109161
C        -1.97348833883335    2.29165722861164    1.80738293343488
C        -0.73180793072861    2.26543777347567    2.56145930590396
C         0.24953886951163    2.99360112790561    1.80589901518579
C        -3.39107588119010    0.72151843864393    0.57295009288911
C        -3.38745134615663   -0.71012461230136    0.56945860215905
C        -2.74902603166710   -1.13960535470401    1.80181756703294
C        -2.39333223329505   -0.00864206951577    2.55137285111501
C        -2.76241246372456    1.15018793498915    1.80419836191400
C        -1.72146055601123   -2.99471321041902    0.56119264180532
C        -0.35897947625599   -3.44054562193784    0.55443158412487
C         0.24083387505768   -2.99356618383060    1.80667812992937
C        -0.72222535020367   -2.28758968009364    2.53801328527184
C        -1.92836865070305   -2.27555557137381    1.79349471077588
C        -0.24292066443261   -2.99498176042898   -1.82052713525792
C         0.74762548212014   -2.26826229924162   -2.57307816120185
C         1.97552143590528   -2.28545687977495   -1.84463083004464
C         1.85316478281215   -3.22202684260849   -0.66151508771359
C         0.35996517298177   -3.46534373196781   -0.61657224857963
C         2.76883310459665   -1.16343966934914   -1.82825874997879
C         2.39300210273732    0.00480156870460   -2.57623954961882
C         2.77632760874472    1.16866832174831   -1.81953011411837
C         3.39890331000861    0.72634046855434   -0.59838685004834
C         3.40281744593013   -0.71013556131174   -0.59593078925453
C         1.96454114988759    2.29607279156324   -1.82131923144697
C         0.73719877511410    2.29934992971353   -2.58024281071936
C        -0.25197197489435    3.01908034170842   -1.82364998370453
C         0.36180057989184    3.45878946182142   -0.59430695563296
C         1.73620529206706    3.01935318896755   -0.59751124493228
C        -1.57601059709388    2.59187217108421   -1.82459210079987
C        -1.95562828910838    1.42976548917593   -2.58854693833496
C        -2.95025546911214    0.70677611652115   -1.83265272503549
C        -3.18074560389106    1.42459008761179   -0.60580964267669
C        -2.33440902276228    2.59066818317807   -0.60258021634060
C        -2.94916012326680   -0.68278312482937   -1.83487147769624
C        -1.95291495109477   -1.40214810187143   -2.59065755008107
C        -1.57194580776141   -2.56798881540528   -1.83103466544822
C        -2.32582311150416   -2.57338970053457   -0.61543106052335
C        -3.17815262270773   -1.40389525348827   -0.61000378493896
C        -0.99852627641689   -0.70668671668860   -3.31625920399338
C        -1.00031306157936    0.73579604492365   -3.31703411081889
C         0.37161644714137    1.17986552639999   -3.31601374580806
C         1.21466480011204    0.01280299503741   -3.31452938095508
C         0.37390792473056   -1.14859983526564   -3.31340229875520
Cl       -2.10668079446275    0.29455979046497    5.19333265633428
Cl       -0.33589612783600   -2.10236553280108    5.18737672253907