63
 energy: -142.087767919238 gnorm: 0.125947931990 xtb: 6.4.1 (a3dbbd7)
C        -1.30524132879597    0.00000000000538    3.57807329023422
C        -0.38198622120159   -1.16615737488772    3.28622995044209
C         0.97316446785684   -0.71953336628746    3.26852105894251
C         0.97316446785530    0.71953336630216    3.26852105894473
C        -0.38198622120459    1.16615737490379    3.28622995045274
C         2.33525790565848   -2.58178581715533    0.58265918378867
C         3.18402429064640   -1.41551052449968    0.58305164633927
C         2.94575551469093   -0.69331830539435    1.80727245276214
C         1.94633616722705   -1.41428833030776    2.55691587181014
C         1.57537284635923   -2.57710002453835    1.80571263196464
C         3.18402429064568    1.41551052450295    0.58305164633618
C         2.33525790565840    2.58178581715875    0.58265918378237
C         1.57537284635929    2.57710002454614    1.80571263195897
C         1.94633616722623    1.41428833031814    2.55691587180842
C         2.94575551468950    0.69331830540176    1.80727245276124
C        -0.36286725388684    3.43716117593932    0.57905462418204
C        -1.73307079475598    2.99275061625332    0.57524951534827
C        -1.97752320629156    2.27496221823572    1.79457083857807
C        -0.73661625909686    2.27496497778529    2.56523814188962
C         0.24797249911112    2.99276091828423    1.80557303834060
C        -3.36590164017822    0.71953732333088    0.57375248902312
C        -3.36590164017888   -0.71953732332215    0.57375248902510
C        -2.78105190250946   -1.16617827543313    1.79633080427055
C        -2.63331800734743    0.00000000000824    2.75326019131418
C        -2.78105190250706    1.16617827544612    1.79633080426590
C        -1.73307079475815   -2.99275061624643    0.57524951535621
C        -0.36286725388906   -3.43716117593443    0.57905462419038
C         0.24797249911082   -2.99276091827599    1.80557303834608
C        -0.73661625909661   -2.27496497777287    2.56523814188986
C        -1.97752320629363   -2.27496221822376    1.79457083858313
C        -0.24045690066217   -3.00743782548085   -1.83034246730529
C         0.75231661586805   -2.28840993805800   -2.58424128273324
C         1.97824017738855   -2.28845527885670   -1.82288383798471
C         1.74258918722144   -3.00745695556584   -0.59875134393160
C         0.36899288245124   -3.44813425118672   -0.59934302533638
C         2.79566620008723   -1.16591822783908   -1.82325695863853
C         2.41697359109874   -0.00000000000271   -2.58108531976838
C         2.79566620008779    1.16591822783556   -1.82325695864148
C         3.40959680691412    0.72110795434846   -0.59778286565664
C         3.40959680691433   -0.72110795434857   -0.59778286565546
C         1.97824017738961    2.28845527885345   -1.82288383799084
C         0.75231661586926    2.28840993805322   -2.58424128273948
C        -0.24045690066036    3.00743782547884   -1.83034246731341
C         0.36899288245285    3.44813425118749   -0.59934302534530
C         1.74258918722258    3.00745695556589   -0.59875134393955
C        -1.56217286029713    2.58178679356912   -1.83784975797872
C        -1.93879975252934    1.41553008402889   -2.59849355392507
C        -2.93052386427469    0.69331652856981   -1.84222173469045
C        -3.15943698990261    1.41427069975303   -0.61403881020582
C        -2.32163160591617    2.57707956787764   -0.61452432163280
C        -2.93052386427455   -0.69331652856949   -1.84222173468868
C        -1.93879975252999   -1.41553008403179   -2.59849355392122
C        -1.56217286029877   -2.58178679357009   -1.83784975797151
C        -2.32163160591823   -2.57707956787401   -0.61452432162573
C        -3.15943698990344   -1.41427069974849   -0.61403881020168
C        -0.98033776527170   -0.72109715720207   -3.32415755726590
C        -0.98033776527144    0.72109715719620   -3.32415755726739
C         0.39032106020777    1.16579648770428   -3.31706046827290
C         1.23757908177170   -0.00000000000348   -3.31355725238661
C         0.39032106020722   -1.16579648771087   -3.31706046826971
Cl       -1.60949318930206   -0.00000000015797    5.36443419001363
Cl       -4.09957109178614    0.00000000004209    3.81802953081684
Cl        5.15441241459829    1.08161158316119   -0.91677444672828
63
 energy: -142.108658784194 gnorm: 0.067634537931 xtb: 6.4.1 (a3dbbd7)
C        -1.30813375974596    0.00009980678120    3.58040818824952
C        -0.38312167006572   -1.16487508755388    3.28748736998188
C         0.96955134620121   -0.71879710417325    3.26953218514307
C         0.96739714785591    0.72084253668010    3.27802853507720
C        -0.38717638618272    1.16749905929354    3.29105870901237
C         2.33710510263120   -2.58759209586675    0.57846748082943
C         3.18758903590020   -1.42271240095758    0.57571757104209
C         2.94012453741665   -0.69505154172640    1.80477803285969
C         1.94492545625899   -1.41281070130368    2.55228741779394
C         1.57406014138568   -2.57598378326424    1.79989411901395
C         3.17307421306907    1.42452554084843    0.60651663361945
C         2.31971532364019    2.57315912295695    0.59330853542921
C         1.56601342171946    2.58049932449514    1.82031917916471
C         1.93735533772769    1.41890200870555    2.57020607437498
C         2.93006778221755    0.69598868762215    1.81023284478961
C        -0.36608004675926    3.43995055775571    0.58344215402301
C        -1.73370414299393    2.99519818250288    0.57714027091833
C        -1.98047199901924    2.27746430258508    1.79668634825569
C        -0.74204585856578    2.27707361127719    2.57054023910622
C         0.24119809024543    2.99741985202054    1.81346031140252
C        -3.36630427427711    0.72171274228358    0.57401761827219
C        -3.36641975917069   -0.71683340590210    0.57433438908852
C        -2.78178759682702   -1.16356576973933    1.79663948023203
C        -2.63498071837095    0.00219731147935    2.75403021593272
C        -2.78249236835930    1.16851398322979    1.79724060154379
C        -1.73437081572820   -2.99157547266952    0.57476212026882
C        -0.36534356807985   -3.43689663861866    0.57743831698366
C         0.24666775332101   -2.99078082377282    1.80261311123199
C        -0.73811316749781   -2.27439297060318    2.56456659037102
C        -1.97778363265738   -2.27258647909642    1.79487534556657
C        -0.24359150105226   -3.00926493829972   -1.83119710683598
C         0.75004591783397   -2.29109756021961   -2.58429327785667
C         1.97789315846546   -2.29643036437439   -1.82361679011259
C         1.74212649604123   -3.01542605641784   -0.60274166868116
C         0.36681517614861   -3.45019108368705   -0.60107844667515
C         2.79874473617106   -1.17189484433739   -1.81990156795113
C         2.40626352058330   -0.00538269606931   -2.57676595469777
C         2.76951668300559    1.15795454073323   -1.82783910322642
C         3.48850909508172    0.73315125127121   -0.61379520742710
C         3.44402795823542   -0.74324566479421   -0.60680812121582
C         1.96108248271572    2.27687600146157   -1.82150100829177
C         0.74566823517844    2.28744854626593   -2.59070457364510
C        -0.24205202389010    3.00585105756522   -1.83081453363305
C         0.36766717837599    3.44712646358913   -0.59787016693534
C         1.73407586157888    3.00438125996248   -0.59468317156143
C        -1.56291570463509    2.58148148855034   -1.83804054615958
C        -1.94009353194855    1.41518510052123   -2.59945055318552
C        -2.93115428240284    0.69479651998618   -1.84240195955403
C        -3.15904670801330    1.41648130302158   -0.61379979413333
C        -2.32179343959524    2.57864970954600   -0.61419577693772
C        -2.93220410550449   -0.69241726160964   -1.84198488543935
C        -1.94224935811792   -1.41596550157175   -2.59874502843220
C        -1.56500074971378   -2.58197292329502   -1.83780759302112
C        -2.32409322905445   -2.57583740095470   -0.61462485408601
C        -3.16104614173748   -1.41260134613847   -0.61403435221258
C        -0.98440615577583   -0.72357179549506   -3.32628158996287
C        -0.98403320741916    0.71885563836024   -3.32725446488705
C         0.38567096847249    1.16221375133974   -3.32395294201179
C         1.23013206721841   -0.00387445609549   -3.31822600847204
C         0.38561026074578   -1.16989038261908   -3.31921459024040
Cl       -1.61227240330438    0.00113934310255    5.36645729337064
Cl       -4.10159285328233    0.00405054473340    3.81782788652547
Cl        5.27498135436112    1.11844098386057   -0.94794082424309
63
 energy: -142.116543792035 gnorm: 0.030262380041 xtb: 6.4.1 (a3dbbd7)
C        -1.31203577922403    0.00016532207310    3.58235928810361
C        -0.38492062282387   -1.16328319451257    3.28891040659698
C         0.96393730420700   -0.71673898369379    3.27410048118693
C         0.96177775063186    0.72337943540194    3.28089290012214
C        -0.39268506364980    1.16929798972182    3.29532230504112
C         2.32727108248928   -2.58955089728489    0.57864917995054
C         3.15831497818416   -1.41724909629118    0.57196743237879
C         2.93405309821318   -0.69408397349055    1.81018545149243
C         1.94171244843563   -1.40880102657652    2.55168089106114
C         1.56838070753883   -2.57538088298998    1.80069247796995
C         3.17707120444432    1.43552360582232    0.61986412378419
C         2.31700018783067    2.56321165327498    0.59552410566182
C         1.56022121833045    2.58121559939859    1.82449931910514
C         1.92995186641844    1.42336277504698    2.57393059177020
C         2.91821210872804    0.70162651915330    1.80175109637979
C        -0.37092986441135    3.44060123638151    0.58655368941645
C        -1.73568683545492    2.99394708992590    0.57879276497051
C        -1.98513569205771    2.27603923020429    1.79858720489774
C        -0.74779214350314    2.27842325995483    2.57413889759000
C         0.23567407459287    2.99850695269036    1.81634660300262
C        -3.36818359962729    0.71826099682340    0.57484356520799
C        -3.36761248534453   -0.71941294957991    0.57523461481170
C        -2.78359603916187   -1.16578861024972    1.79742572561853
C        -2.63800511887297   -0.00046567143493    2.75521233511284
C        -2.78501009946952    1.16597766006830    1.79840955734010
C        -1.73551397442036   -2.99374294658133    0.57460122351862
C        -0.36855266528542   -3.43958841457980    0.57721495607371
C         0.24321047671024   -2.99182377787319    1.80344351038395
C        -0.74115208695587   -2.27549310468308    2.56567514192187
C        -1.97802742780399   -2.27375835325590    1.79612240973096
C        -0.24855223861610   -3.01256014730137   -1.83295025387200
C         0.74370156656121   -2.29298631989853   -2.58652993195955
C         1.96819388409753   -2.30100706357687   -1.82344755579790
C         1.73468070494100   -3.02001980879662   -0.60512975334367
C         0.36160546834098   -3.45559200823810   -0.60289692328691
C         2.77979606125259   -1.16871402064499   -1.81006487908855
C         2.39368970253729   -0.00076821108995   -2.56550053892538
C         2.76505606863679    1.15853698615713   -1.83346457688041
C         3.62820023697778    0.76364852016457   -0.64237579518552
C         3.40739780562787   -0.74614996508265   -0.60321711523185
C         1.95941517319091    2.26987266499692   -1.82081601806200
C         0.74378822704092    2.28343753714758   -2.58768587139604
C        -0.24347566595748    3.00242866368371   -1.82867151707686
C         0.36934398821594    3.44326524213991   -0.59558827928870
C         1.73278175741810    3.00734722577270   -0.59297076274716
C        -1.56437523674840    2.57897336410307   -1.83660449791921
C        -1.94298991310391    1.41311695298841   -2.59937437322112
C        -2.93234010228843    0.69253778988817   -1.84180772849137
C        -3.16012535979040    1.41392757377928   -0.61254160372179
C        -2.32452205771264    2.57615129421018   -0.61313470796378
C        -2.93458505949916   -0.69539047591896   -1.84139223308575
C        -1.94641253736654   -1.41833052405918   -2.59963091510531
C        -1.56921264137624   -2.58479845518331   -1.83877068224376
C        -2.32637888512542   -2.57834411569975   -0.61481154355988
C        -3.16310621564456   -1.41552943299423   -0.61405979825148
C        -0.98992455247872   -0.72557638978891   -3.32901494525912
C        -0.98848453447155    0.71736371870787   -3.32977991300960
C         0.38119693653328    1.15984832870521   -3.32550863620977
C         1.22226055017463   -0.00253710977207   -3.32006244560289
C         0.37988693961270   -1.17073499711550   -3.32145889923690
Cl       -1.61663259906863   -0.00261729066105    5.36788014798300
Cl       -4.10493897244805   -0.00033564134175    3.81796504657775
Cl        5.45091317190371    1.14877025501599   -0.98676604198972
63
 energy: -142.117812108650 gnorm: 0.015256494280 xtb: 6.4.1 (a3dbbd7)
C        -1.31399528034798   -0.00016693558681    3.58261663638760
C        -0.38651979246885   -1.16350796268126    3.28824026432096
C         0.96315934420602   -0.71713648841453    3.27208567201015
C         0.96164305889433    0.72230163237153    3.27696434884600
C        -0.39325341078711    1.16862846996411    3.29516731562528
C         2.32662614426077   -2.58084585259069    0.57662648109208
C         3.17095577424007   -1.41474625036849    0.57111704907856
C         2.93839950821745   -0.69369877083276    1.80898110287505
C         1.94160007390001   -1.40705391786810    2.54978413463846
C         1.56759545911439   -2.57218451250240    1.79899253281767
C         3.18101834732300    1.43017309859585    0.60936792378365
C         2.32312111384758    2.56341475131602    0.59093313404983
C         1.56158592819059    2.57741518994328    1.81812366143344
C         1.93130032055473    1.41930878466604    2.56683506063519
C         2.92566385441546    0.70045931791182    1.79778811659730
C        -0.37142005092614    3.43864541685260    0.58610000464564
C        -1.73712544654321    2.99317438341701    0.57908915165680
C        -1.98671624361092    2.27614136560315    1.79936296712423
C        -0.74825953470163    2.27795504189044    2.57400185609730
C         0.23626498693054    2.99551060626854    1.81433785890265
C        -3.37090805196860    0.71846866003260    0.57569928767562
C        -3.37038963916428   -0.71934126969283    0.57593806080729
C        -2.78632158354997   -1.16561062760440    1.79817779276834
C        -2.64075703760857   -0.00010082281694    2.75607716718619
C        -2.78755394387751    1.16646536765919    1.79929535737157
C        -1.73743036986451   -2.99325230998643    0.57502958487484
C        -0.36987494219633   -3.43884837439212    0.57734835704716
C         0.24233238741229   -2.99019439753684    1.80285039705934
C        -0.74287928610695   -2.27516320523217    2.56549229419132
C        -1.98031625876863   -2.27333459100798    1.79640544538445
C        -0.24976829777192   -3.01218114646517   -1.83221039074591
C         0.74358411461157   -2.29184624920253   -2.58432502583054
C         1.96888014958939   -2.29544931456615   -1.82165230220984
C         1.73381192153340   -3.01472597561695   -0.60450380394169
C         0.36099770291674   -3.45469112742138   -0.60236538717653
C         2.78531924866099   -1.16526495689604   -1.80927919205011
C         2.40049861318079    0.00199179565767   -2.56557974760844
C         2.78300646221142    1.16285888997719   -1.83522217344675
C         3.61676284405619    0.75932923535225   -0.64258818103011
C         3.42261873655736   -0.74095645187694   -0.60488088624427
C         1.96815348957554    2.27186007850626   -1.82114691465809
C         0.74591387937725    2.27894309324851   -2.58174720594068
C        -0.24333166333342    2.99909097756727   -1.82619864142742
C         0.36952598965361    3.44068960157330   -0.59451237985069
C         1.73565944514584    3.00778265294211   -0.59403561015003
C        -1.56501315327263    2.57740236259896   -1.83521453960795
C        -1.94435206049612    1.41217461565876   -2.59822280927703
C        -2.93448303990764    0.69197944091082   -1.84095084486493
C        -3.16244750799490    1.41358224136872   -0.61183138417469
C        -2.32612873751085    2.57544401696158   -0.61234445345974
C        -2.93707650818907   -0.69583537593946   -1.84084010927726
C        -1.94833409301931   -1.41885148063507   -2.59892742989605
C        -1.57120778335821   -2.58532635208686   -1.83819051156934
C        -2.32880398935322   -2.57853309850192   -0.61418785685669
C        -3.16577414370756   -1.41562403895367   -0.61318612554731
C        -0.99049866146206   -0.72602131793111   -3.32706861891377
C        -0.98921695563053    0.71675361835363   -3.32808530678738
C         0.38162550509636    1.15819825637538   -3.32075345201701
C         1.22477707032806   -0.00270372260942   -3.31461624339567
C         0.38016966695457   -1.17002081301291   -3.31838574038590
Cl       -1.62077505363770   -0.00530840487020    5.36792352098996
Cl       -4.10869361934269   -0.00016175207368    3.81778303741446
Cl        5.42485567957807    1.14415648739084   -0.97873359929741
63
 energy: -142.118121354268 gnorm: 0.010545143445 xtb: 6.4.1 (a3dbbd7)
C        -1.31439908208275   -0.00048661552549    3.58341715750264
C        -0.38695679379735   -1.16394038784818    3.28835746431148
C         0.96265313873233   -0.71752379158387    3.27198383523973
C         0.96141449241401    0.72190761161939    3.27510651718056
C        -0.39340936399830    1.16842983788725    3.29533876234029
C         2.32498950934350   -2.57622099199157    0.57556992153821
C         3.17400604161935   -1.41255153680986    0.57093999899267
C         2.94015998342653   -0.69404929638382    1.81022815120937
C         1.94157993104468   -1.40631921972813    2.54979422331829
C         1.56667878831785   -2.57036209859809    1.79834475536996
C         3.18138563287074    1.42646991833201    0.60296507575071
C         2.32591855735391    2.56205734477195    0.58766595263632
C         1.56140276619786    2.57470482171854    1.81414840857137
C         1.93084794751910    1.41703947318703    2.56236510309797
C         2.92831500355949    0.69982448285377    1.79395629324238
C        -0.37210624748979    3.43815445005120    0.58565706244504
C        -1.73792584542410    2.99304679169386    0.57889871038307
C        -1.98739697711763    2.27635752994567    1.79954030727332
C        -0.74840940807854    2.27781198252813    2.57378714991408
C         0.23628580508739    2.99410022136740    1.81312791071377
C        -3.37174090817081    0.71830562267933    0.57585499769687
C        -3.37095923618757   -0.71952195432929    0.57605220890530
C        -2.78706606222034   -1.16578149799891    1.79840848337629
C        -2.64108696213338   -0.00005474302699    2.75622818776350
C        -2.78815985612532    1.16658737481165    1.79943904611882
C        -1.73820167377194   -2.99349473436470    0.57515185832695
C        -0.37058504875856   -3.43885005046974    0.57748542233577
C         0.24185787634721   -2.98983058035475    1.80283338830116
C        -0.74368152860714   -2.27548380904101    2.56572559723336
C        -1.98098862388812   -2.27344100533170    1.79659243749077
C        -0.25065465602587   -3.01273188768036   -1.83208162807867
C         0.74281200734776   -2.29124341013563   -2.58321397531070
C         1.96753557126110   -2.29216651021360   -1.82015810251909
C         1.73265307183591   -3.01238675954826   -0.60407841025998
C         0.36023280745171   -3.45503816061872   -0.60216727513832
C         2.78449545447815   -1.16202539535736   -1.80676480118480
C         2.40202656433785    0.00483947880693   -2.56390884656603
C         2.79287058251152    1.16583663589990   -1.83567690934039
C         3.62396677344147    0.76002793631900   -0.64530063166656
C         3.42394547214233   -0.73651095587809   -0.60424775652189
C         1.97208597973877    2.27211791852127   -1.82085747185520
C         0.74694345639795    2.27605507988742   -2.57844298250510
C        -0.24324195641070    2.99685322953766   -1.82474152199457
C         0.36955296600473    3.43987002349491   -0.59409840407584
C         1.73652407788700    3.00935563138389   -0.59484720660771
C        -1.56537392148713    2.57665042886309   -1.83478144092979
C        -1.94524374415788    1.41165152675476   -2.59783991011429
C        -2.93559823451491    0.69156674621962   -1.84087243679338
C        -3.16346610550441    1.41327314099810   -0.61176498495935
C        -2.32707795832930    2.57515087780181   -0.61227868177250
C        -2.93817276772862   -0.69634391406393   -1.84092736193683
C        -1.94934318099642   -1.41937726494689   -2.59911392760603
C        -1.57226946265197   -2.58610770672603   -1.83832562073968
C        -2.32976386701591   -2.57909173164586   -0.61411604255279
C        -3.16658557817656   -1.41593416372803   -0.61304318991239
C        -0.99113482353848   -0.72613797561997   -3.32667153947596
C        -0.99013215464075    0.71657117257075   -3.32776860782855
C         0.38129449176950    1.15760671574224   -3.31876338053865
C         1.22511007102926   -0.00237537643991   -3.31134710725369
C         0.37988308260623   -1.16935129808534   -3.31667841871057
Cl       -1.62217229874479   -0.00751314651546    5.36854674982952
Cl       -4.10914939635320   -0.00017305277092    3.81780701421531
Cl        5.42082650010872    1.14180860027315   -0.97369087012640
63
 energy: -142.118306505467 gnorm: 0.005881044609 xtb: 6.4.1 (a3dbbd7)
C        -1.31407382621495   -0.00067837628064    3.58392115651047
C        -0.38658803083363   -1.16428164411441    3.28866177247910
C         0.96276799725684   -0.71798036301982    3.27272133899296
C         0.96162536717839    0.72177849931716    3.27418316777069
C        -0.39298299915041    1.16829876701035    3.29536220900910
C         2.32337390797941   -2.57365946654862    0.57501440413889
C         3.17370939269190   -1.41099765154848    0.57126457619587
C         2.94111806343798   -0.69482608088985    1.81247995123767
C         1.94211142215406   -1.40642158648700    2.55095821114201
C         1.56628085397847   -2.56953321895353    1.79842211495543
C         3.17953618756360    1.42306601981271    0.59797216020052
C         2.32714498081504    2.56037175575642    0.58497803760581
C         1.56099272896035    2.57270186487498    1.81137853738815
C         1.93019648638951    1.41569218017916    2.55924228206339
C         2.92921940807508    0.69927960597848    1.79062132850505
C        -0.37259488249667    3.43834404304870    0.58511632403968
C        -1.73821091897819    2.99318668833975    0.57860815540658
C        -1.98737694914666    2.27651268390547    1.79953049361707
C        -0.74800997195012    2.27764373007586    2.57336914524564
C         0.23640336179703    2.99344597021843    1.81225813410276
C        -3.37156153919183    0.71800817050267    0.57585649256159
C        -3.37049936599412   -0.71977463699845    0.57606851782160
C        -2.78677134740830   -1.16602871458029    1.79850640683414
C        -2.64083513914896   -0.00016318643379    2.75629541456747
C        -2.78772865829328    1.16647189649979    1.79938212208806
C        -1.73817184246182   -2.99390121111075    0.57527402402568
C        -0.37065040169942   -3.43907441197787    0.57766173825175
C         0.24195690613207   -2.99010128103913    1.80318119965698
C        -0.74369460289894   -2.27590087814028    2.56610619066059
C        -1.98072775930539   -2.27368591146584    1.79682477091237
C        -0.25112836950242   -3.01355206307138   -1.83219369903593
C         0.74202090513740   -2.29092339002639   -2.58280651938331
C         1.96571855294277   -2.29005013721333   -1.81920529414601
C         1.73174072756770   -3.01131290332566   -0.60377178873403
C         0.35971458289821   -3.45582261292379   -0.60214147010388
C         2.78121676092596   -1.15911592077102   -1.80425543395126
C         2.40161244266353    0.00755986998596   -2.56247311330602
C         2.79895413520595    1.16829133839617   -1.83580522644979
C         3.63529592299794    0.76197087121366   -0.64820901762435
C         3.41904653660329   -0.73225837226526   -0.60267259251359
C         1.97382511990751    2.27202918030642   -1.82070814707994
C         0.74751974059764    2.27431827551468   -2.57675223364138
C        -0.24313688914015    2.99564930030446   -1.82406648504311
C         0.36951591876547    3.44025177671325   -0.59423625932885
C         1.73657994884808    3.01140354738927   -0.59578334678036
C        -1.56554480769875    2.57651845350816   -1.83481909126932
C        -1.94573589495106    1.41140947786458   -2.59771566477198
C        -2.93601490952686    0.69129223293032   -1.84090892965480
C        -3.16373196597047    1.41302912089003   -0.61179567046843
C        -2.32749082024174    2.57509237689663   -0.61240270591538
C        -2.93837333234046   -0.69675957386698   -1.84103214555565
C        -1.94967735379351   -1.41975113411938   -2.59945061210451
C        -1.57265393582983   -2.58678341517326   -1.83857794457769
C        -2.32980594829509   -2.57962478836932   -0.61409744151977
C        -3.16643975711968   -1.41625109796995   -0.61300434476264
C        -0.99153731262019   -0.72598577021449   -3.32681197027967
C        -0.99097090703713    0.71667369901016   -3.32809738820824
C         0.38073285298590    1.15772415285187   -3.31829951274247
C         1.22481818964903   -0.00184277452086   -3.30964936765937
C         0.37963487520548   -1.16866930163669   -3.31576893281974
Cl       -1.62217856814065   -0.00895601777503    5.36880621733549
Cl       -4.10962340127415   -0.00021783825336    3.81698002587977
Cl        5.41793881139859    1.13848176495056   -0.96674556402170
63
 energy: -142.118351710814 gnorm: 0.003024764353 xtb: 6.4.1 (a3dbbd7)
C        -1.31356670965215   -0.00062228525504    3.58367021989650
C        -0.38607792189168   -1.16431234988567    3.28876740157860
C         0.96315796920242   -0.71807745632449    3.27324477979889
C         0.96193861686682    0.72189972310785    3.27445475686239
C        -0.39258760093607    1.16835824208301    3.29521018729483
C         2.32313272438144   -2.57420049402575    0.57515689915477
C         3.17220253743966   -1.41112124215304    0.57156189702187
C         2.94094467800865   -0.69510396726893    1.81331618459241
C         1.94259594649712   -1.40688459758872    2.55173155676407
C         1.56659197276872   -2.56997537191138    1.79884014530925
C         3.17777602309718    1.42247601319500    0.59763109982025
C         2.32646537240774    2.55988652526727    0.58475378894614
C         1.56089837968086    2.57280549726048    1.81151893441482
C         1.93010974412804    1.41603471227777    2.55942956524624
C         2.92849289505066    0.69926565896499    1.79031659974683
C        -0.37253328804206    3.43866165508067    0.58486316561290
C        -1.73796758641160    2.99328792350322    0.57844899289445
C        -1.98704605131028    2.27648381907249    1.79937965429155
C        -0.74766012572690    2.27760972317243    2.57309302112586
C         0.23649799439480    2.99373145069152    1.81217837716556
C        -3.37109140075186    0.71788914474044    0.57579259249031
C        -3.37000681160797   -0.71987321854342    0.57605021712673
C        -2.78623333855737   -1.16615126911275    1.79845141698130
C        -2.64014941650869   -0.00026356551115    2.75607160630539
C        -2.78721845058237    1.16636835444256    1.79927388370909
C        -1.73772505868772   -2.99400592948784    0.57525051315247
C        -0.37027632071433   -3.43919353053268    0.57764257020067
C         0.24232050152038   -2.99046199972303    1.80336680819557
C        -0.74326812070713   -2.27601555753284    2.56618625935038
C        -1.98020181994318   -2.27379203225916    1.79683961890772
C        -0.25098338628412   -3.01376218035887   -1.83239093797377
C         0.74191809506196   -2.29100459814884   -2.58319029773760
C         1.96522894483379   -2.29022053858106   -1.81938202308457
C         1.73174865226127   -3.01165616507026   -0.60381750725209
C         0.35980916241755   -3.45610301697908   -0.60230587619664
C         2.77941789628504   -1.15867403504251   -1.80393877065245
C         2.40077907648115    0.00807765353470   -2.56261092686353
C         2.79830015995025    1.16859622561943   -1.83593639891402
C         3.63967088316067    0.76289144756487   -0.64876021359304
C         3.41466484462047   -0.73141196672646   -0.60188172497792
C         1.97319763568237    2.27193230235151   -1.82097360954717
C         0.74746413406306    2.27465935101377   -2.57738697648798
C        -0.24309128006890    2.99604954621045   -1.82449679833984
C         0.36954356639471    3.44092505864426   -0.59468233234879
C         1.73629785984461    3.01197276187971   -0.59614502827783
C        -1.56545918768123    2.57677999469057   -1.83510673693522
C        -1.94558824374656    1.41146608349964   -2.59783673518249
C        -2.93570265895345    0.69128330727123   -1.84095001136402
C        -3.16341496137183    1.41299082373013   -0.61184589657709
C        -2.32728465694825    2.57515499276154   -0.61255985129304
C        -2.93794358483722   -0.69679158167368   -1.84102456322996
C        -1.94936414614179   -1.41971259313929   -2.59953665695187
C        -1.57237351478845   -2.58678729972334   -1.83866873348144
C        -2.32935098087883   -2.57966358710830   -0.61412829546258
C        -3.16599292005716   -1.41631827900172   -0.61303498880334
C        -0.99142021461301   -0.72582022532165   -3.32705858784002
C        -0.99101412810173    0.71682012077031   -3.32850954262678
C         0.38055600097353    1.15815487101361   -3.31910414838555
C         1.22459026683057   -0.00158590322399   -3.31032358492094
C         0.37970922313129   -1.16850278147484   -3.31607637521042
Cl       -1.62292219460379   -0.00871122790538    5.36816043093804
Cl       -4.10781261337840   -0.00036909387774    3.81824482799545