156
 energy: -490.986781975637 gnorm: 8.981221293675 xtb: 6.4.1 (a3dbbd7)
C        -1.23626340000000    0.00000000000000    3.32997640000000
C        -0.38202640000000   -1.17575640000000    3.32997640000000
C         1.00015810000000   -0.72665740000000    3.32997640000000
C         1.00015810000000    0.72665740000000    3.32997640000000
C        -0.38202640000000    1.17575640000000    3.32997640000000
C         2.34433560000000   -2.60145750000000    0.59464210000000
C         3.19857260000000   -1.42570110000000    0.59464210000000
C         2.96246730000000   -0.69904370000000    1.83090550000000
C         1.96230920000000   -1.42570110000000    2.59495830000000
C         1.58028280000000   -2.60145750000000    1.83090550000000
C         3.19857260000000    1.42570110000000    0.59464210000000
C         2.34433560000000    2.60145750000000    0.59464210000000
C         1.58028280000000    2.60145750000000    1.83090550000000
C         1.96230920000000    1.42570110000000    2.59495830000000
C         2.96246730000000    0.69904370000000    1.83090550000000
C        -0.36750900000000    3.48258920000000    0.59464210000000
C        -1.74969350000000    3.03349030000000    0.59464210000000
C        -1.98579880000000    2.30683290000000    1.83090550000000
C        -0.74953540000000    2.30683290000000    2.59495830000000
C         0.25062270000000    3.03349030000000    1.83090550000000
C        -3.42570570000000    0.72665740000000    0.59464210000000
C        -3.42570570000000   -0.72665740000000    0.59464210000000
C        -2.80757400000000   -1.17575640000000    1.83090550000000
C        -2.42554760000000    0.00000000000000    2.59495830000000
C        -2.80757400000000    1.17575640000000    1.83090550000000
C        -1.74969350000000   -3.03349030000000    0.59464210000000
C        -0.36750900000000   -3.48258920000000    0.59464210000000
C         0.25062270000000   -3.03349030000000    1.83090550000000
C        -0.74953540000000   -2.30683290000000    2.59495830000000
C        -1.98579880000000   -2.30683290000000    1.83090550000000
C        -0.25062270000000   -3.03349030000000   -1.83090550000000
C         0.74953540000000   -2.30683290000000   -2.59495830000000
C         1.98579880000000   -2.30683290000000   -1.83090550000000
C         1.74969350000000   -3.03349030000000   -0.59464210000000
C         0.36750900000000   -3.48258920000000   -0.59464210000000
C         2.80757400000000   -1.17575640000000   -1.83090550000000
C         2.42554760000000    0.00000000000000   -2.59495830000000
C         2.80757400000000    1.17575640000000   -1.83090550000000
C         3.42570570000000    0.72665740000000   -0.59464210000000
C         3.42570570000000   -0.72665740000000   -0.59464210000000
C         1.98579880000000    2.30683290000000   -1.83090550000000
C         0.74953540000000    2.30683290000000   -2.59495830000000
C        -0.25062270000000    3.03349030000000   -1.83090550000000
C         0.36750900000000    3.48258920000000   -0.59464210000000
C         1.74969350000000    3.03349030000000   -0.59464210000000
C        -1.58028280000000    2.60145750000000   -1.83090550000000
C        -1.96230920000000    1.42570110000000   -2.59495830000000
C        -2.96246730000000    0.69904370000000   -1.83090550000000
C        -3.19857260000000    1.42570110000000   -0.59464210000000
C        -2.34433560000000    2.60145750000000   -0.59464210000000
C        -2.96246730000000   -0.69904370000000   -1.83090550000000
C        -1.96230920000000   -1.42570110000000   -2.59495830000000
C        -1.58028280000000   -2.60145750000000   -1.83090550000000
C        -2.34433560000000   -2.60145750000000   -0.59464210000000
C        -3.19857260000000   -1.42570110000000   -0.59464210000000
C        -1.00015810000000   -0.72665740000000   -3.32997640000000
C        -1.00015810000000    0.72665740000000   -3.32997640000000
C         0.38202640000000    1.17575640000000   -3.32997640000000
C         1.23626340000000    0.00000000000000   -3.32997640000000
C         0.38202640000000   -1.17575640000000   -3.32997640000000
C        -1.76086815247998    0.00000000000000    4.78849957557021
F        -0.76911826531252    0.00000000000000    5.67468926254662
F        -2.50968386795825   -1.06794314680471    5.04863888333743
F        -2.50968386795825    1.06794314680471    5.04863888333743
C        -0.54413818249354   -1.67468516033722    4.78849957845317
F        -0.23767107904745   -0.73147481112462    5.67468925997942
F        -1.79120914301982   -2.05683909935453    5.04863874564184
F         0.24013968171955   -2.71686350152345    5.04863903502921
C         1.42457227037960   -1.03501233722714    4.78849957248258
F         0.62223011468481   -0.45207589682711    5.67468926529602
F         1.40265511061956   -2.33913928186680    5.04863905501621
F         2.65809836182651   -0.61117154425495    5.04863869666890
C         3.37204091334889   -3.72927672645244    0.86730596148276
F         4.06564647311728   -3.51265957144659    1.98125763710228
F         4.25569947457670   -3.84739838595791   -0.11965645964809
F         2.78580317558591   -4.91533944031226    1.00324916143779
C         4.58877084110522   -2.05459160147071    0.86730597290559
F         4.59709252483521   -2.78118520641283    1.98125951001435
F         4.97417519512416   -2.85850196315549   -0.11965482382298
F         5.53562669678859   -1.13053295630600    1.00324569798425
C         2.82790274436383   -2.05459160758554    3.71645040671519
F         3.82797483682855   -2.78118494419178    3.22571836876305
F         3.37293748548841   -1.13053297859378    4.50255013394648
F         2.11749631416700   -2.85850222732984    4.50254863174647
C         4.58877084110522    2.05459160147071    0.86730597290559
F         4.59709252483521    2.78118520641283    1.98125951001435
F         4.97417519512416    2.85850196315549   -0.11965482382298
F         5.53562669678859    1.13053295630600    1.00324569798425
C         2.28376457660886    3.72927671755932    2.62817408867206
F         3.59030321655004    3.51265997057976    2.75037870097715
F         2.14318168460923    4.91533956626619    2.04303190988612
F         1.79618325340524    3.84739782561575    3.85992562899767
C         4.25247495652193    1.01957928511255    2.62817407757680
F         4.45020405360857    2.32910962270745    2.75037677428973
F         5.33704498641440    0.51936149478962    2.04303305824599
F         4.21414295278389    0.51936236815949    3.85992636334022
C        -0.53602450593361    4.99908416128281    0.86730591619822
F        -1.22448605650957    5.23152837615597    1.98125850960180
F        -1.18149064144157    5.61404773804446   -0.11965571789346
F         0.63540201352706    5.61404743764837    1.00324736766175
C         0.34440953624153    4.35941144868709    2.62817404748705
F        -0.83992598883967    4.95213069234126    2.75037577510431
F         1.15529636597892    5.23632261667420    2.04303359185445
F         0.80829780400759    4.16837989546168    3.85992670963205
C        -4.92005227074660    1.03501232949151    0.86730592957069
F        -5.35386609588658    0.45207588830481    1.98125865327758
F        -5.70437742108406    0.61117153086585   -0.11965558739362
F        -5.14292645153878    2.33913927311179    1.00324714649869
C        -4.03961820246674    1.67468514775899    2.62817407948106
F        -4.96930660042401    0.73147479244129    2.75037763231445
F        -4.62303373288714    2.71686348978891    2.04303253910981
F        -3.71458666614023    2.05683907990836    3.85992603200072
C        -1.08016271022039   -3.32439912180418    3.71645041587937
F        -1.46215754230407   -4.50005299330749    3.22571838851551
F        -0.03290491502764   -3.55721032900471    4.50254840735999
F        -2.06425285383526   -2.89718320022386    4.50255037491024
C         4.92005227074660    1.03501232949151   -0.86730592957069
F         5.35386609588658    0.45207588830481   -1.98125865327758
F         5.14292645153878    2.33913927311179   -1.00324714649869
F         5.70437742108406    0.61117153086585    0.11965558739362
C         2.84103082519036    3.32439911178427   -2.62817407941587
F         2.23127406184888    4.50005340761388   -2.75037746012491
F         3.10404037880940    2.89718378306489   -3.85992609894427
F         4.01248672303644    3.55720929213525   -2.04303264409737
C         0.53602450593361    4.99908416128281   -0.86730591619822
F         1.22448605650957    5.23152837615597   -1.98125850960180
F        -0.63540201352706    5.61404743764837   -1.00324736766175
F         1.18149064144157    5.61404773804446    0.11965571789346
C        -2.82790274436383    2.05459160758554   -3.71645040671519
F        -3.82797483682855    2.78118494419178   -3.22571836876305
F        -2.11749631416700    2.85850222732984   -4.50254863174647
F        -3.37293748548841    1.13053297859378   -4.50255013394648
C        -4.58877084110522    2.05459160147071   -0.86730597290559
F        -4.59709252483521    2.78118520641283   -1.98125951001435
F        -5.53562669678859    1.13053295630600   -1.00324569798425
F        -4.97417519512416    2.85850196315549    0.11965482382298
C        -4.25247495652193   -1.01957928511255   -2.62817407757680
F        -4.45020405360857   -2.32910962270745   -2.75037677428973
F        -4.21414295278389   -0.51936236815949   -3.85992636334022
F        -5.33704498641440   -0.51936149478962   -2.04303305824599
C        -2.28376457660886   -3.72927671755932   -2.62817408867206
F        -3.59030321655004   -3.51265997057978   -2.75037870097715
F        -1.79618325340527   -3.84739782561575   -3.85992562899768
F        -2.14318168460923   -4.91533956626621   -2.04303190988614
C        -3.37204091334889   -3.72927672645244   -0.86730596148276
F        -4.06564647311728   -3.51265957144659   -1.98125763710228
F        -2.78580317558591   -4.91533944031226   -1.00324916143779
F        -4.25569947457670   -3.84739838595791    0.11965645964809
C        -1.42457227037960   -1.03501233722714   -4.78849957248258
F        -0.62223011468481   -0.45207589682711   -5.67468926529602
F        -2.65809836182651   -0.61117154425495   -5.04863869666891
F        -1.40265511061956   -2.33913928186680   -5.04863905501621
C         0.54413818249354    1.67468516033722   -4.78849957845317
F         0.23767107904745    0.73147481112462   -5.67468925997942
F        -0.24013968171955    2.71686350152345   -5.04863903502921
F         1.79120914301982    2.05683909935453   -5.04863874564184
156
 energy: -497.546506488684 gnorm: 7.122767935965 xtb: 6.4.1 (a3dbbd7)
C        -1.23614002340823    0.00140644456833    3.32318240143352
C        -0.38135946438134   -1.16984965529038    3.31275418712988
C         0.99540351470369   -0.71962916130960    3.31813142266728
C         0.99851564449546    0.72623136822781    3.33332258360826
C        -0.38167973123399    1.17618567484570    3.33259491106707
C         2.34073885008276   -2.60138372509679    0.59403492575517
C         3.19692182718892   -1.42251702070271    0.59395740761248
C         2.96319696247661   -0.70083987245793    1.83073372007868
C         1.96114741126177   -1.42598715566106    2.58625553281331
C         1.58157381872478   -2.60239833430125    1.83138886207927
C         3.18990633378120    1.42534191438669    0.59413565508015
C         2.34646924128413    2.60139046410256    0.59620918588099
C         1.58190634967880    2.59387585957150    1.82733869129106
C         1.96486090341918    1.42692864503950    2.59599245358451
C         2.95628089725681    0.69683977449650    1.83071826981560
C        -0.37105596114320    3.46914354239757    0.59285721532332
C        -1.75048175234860    3.03404304218850    0.59586175013141
C        -1.98416812152573    2.30922369966009    1.83209930348577
C        -0.75055775256610    2.30788163822397    2.59412992021142
C         0.24573460266811    3.02128987612912    1.82683301109242
C        -3.41826100309021    0.72135336899401    0.59399374531568
C        -3.42626286077374   -0.72672583647584    0.59725978514546
C        -2.80774854108227   -1.17553462928265    1.83049583119661
C        -2.42810458728681   -0.00155777707001    2.59403105739237
C        -2.80165142826682    1.17512385892452    1.83074047441302
C        -1.74686479772872   -3.03481581409767    0.59781964502345
C        -0.36842775621524   -3.48141460141776    0.59569190855626
C         0.24833770027069   -3.03557276322155    1.82943942061346
C        -0.74925550376567   -2.30461562913033    2.58425227073123
C        -1.98678927671952   -2.30718325024767    1.82875582547107
C        -0.24533817036226   -3.03433989560459   -1.83086674585767
C         0.74995769765134   -2.30659385856509   -2.59374137707693
C         1.98475435961923   -2.30662066605476   -1.83086726945804
C         1.74740200619396   -3.03428763526462   -0.59807803598872
C         0.36787955919958   -3.48088333105583   -0.59635183646417
C         2.80621605356612   -1.17528965089543   -1.83210298977725
C         2.42501037927023   -0.00144011334390   -2.59383354058531
C         2.80875364822658    1.17178127535975   -1.83256831012413
C         3.41839820923322    0.72239387925692   -0.59917921796500
C         3.42648632950812   -0.72701577158031   -0.59734735332296
C         1.98607138007051    2.30816922789386   -1.83173899270093
C         0.74759214581115    2.31061284122579   -2.59186810839304
C        -0.25041903179379    3.03038696319415   -1.83234829188528
C         0.36949226686253    3.47518122039241   -0.59821470865619
C         1.74908030609722    3.03618922147933   -0.59544800373227
C        -1.57935199657356    2.60312983122136   -1.82797482030191
C        -1.96430951853878    1.42775329845408   -2.59669417794844
C        -2.96359723555803    0.70116588276314   -1.82970055122677
C        -3.19043047945568    1.42492748338767   -0.59859318908708
C        -2.34345506703050    2.60237666770194   -0.59735054765501
C        -2.96201899121241   -0.70035686782787   -1.83083656239081
C        -1.96339538998658   -1.42737365202256   -2.59308795045829
C        -1.57924506176111   -2.59977042420576   -1.83131499306419
C        -2.34480741759043   -2.59992119499551   -0.59244165045807
C        -3.19972827396316   -1.42652087047431   -0.59422676682862
C        -0.99925270138010   -0.72648004398944   -3.33089245605519
C        -0.99871005627483    0.72556360112708   -3.33063425649299
C         0.38207398567682    1.17580592875118   -3.33117227241110
C         1.23661806209895   -0.00394047578568   -3.33022963911113
C         0.38593222976785   -1.17479297879459   -3.33016611209522
C        -1.77697678647121    0.00383910474319    4.76272196612845
F        -0.79469633876210    0.05432329816766    5.70583430659225
F        -2.57438485735041   -1.00380154949498    5.05179555515821
F        -2.51027538255179    1.07220177334193    5.05548173942493
C        -0.55588873756276   -1.67761417964945    4.73629779897423
F        -0.25073579129813   -0.76234500901409    5.72142745532902
F        -1.75839395467089   -2.09984182727656    5.07940549049013
F         0.19764873071006   -2.73365070358456    5.09875675259217
C         1.42614572059769   -1.04503799656689    4.74247086192543
F         0.67536671682644   -0.41151434622021    5.71206396129510
F         1.44295869790374   -2.31563124975640    5.10087839718189
F         2.64991436522429   -0.57288356059204    5.08453828493286
C         3.36314205171522   -3.73264231632535    0.85483761918570
F         4.04540625252688   -3.56836999635410    1.97676160519669
F         4.20959642253097   -3.91723639724036   -0.12177518015477
F         2.78458745143593   -4.91877668296141    1.00478531786077
C         4.58684007121570   -2.04785996892953    0.85449940601862
F         4.64363902717468   -2.74477795350151    1.97676916723657
F         5.02618820190117   -2.79244886468804   -0.12168035824398
F         5.54110849471055   -1.13278363737207    1.00480735183865
C         2.81327483513653   -2.04466543761586    3.70050287603735
F         3.82616118856775   -2.77936463609119    3.25999747886535
F         3.42462813611753   -1.13782226446000    4.49269860915617
F         2.15717482210800   -2.91545034493732    4.47718763392151
C         4.56916794332154    2.01476280532052    0.85191922293226
F         4.62682319650754    2.82830026181503    1.95390802579907
F         4.97660305697768    2.90841838043665   -0.10612689957251
F         5.55935394403129    1.18127187643240    0.97224965630233
C         2.26901651280706    3.71228001264444    2.61232228925211
F         3.57791269152400    3.54254762007971    2.76686895260156
F         2.21311638621861    4.91857498058959    2.02837271149987
F         1.83099596358514    3.83265023348728    3.89462997355800
C         4.24611841489197    1.00545257995253    2.61762460766726
F         4.45778882546499    2.30818671960974    2.80436090401389
F         5.33230789051595    0.47087880457727    2.11962514463180
F         4.21692299587705    0.52178705265665    3.86785226119575
C        -0.52460136153990    4.96373692255133    0.85743671315056
F        -1.27465855303461    5.26123700948945    1.95454715975574
F        -1.22171390129073    5.63015841600873   -0.11007215362187
F         0.59864007663127    5.66812915190649    0.98489692264975
C         0.35006592401466    4.32929281245051    2.60521987543915
F        -0.84419580846067    4.94895455512446    2.81384681386804
F         1.15350464732379    5.26298115443693    2.10573384862671
F         0.77380717648029    4.17816976103132    3.89389805452295
C        -4.88050994142654    1.05332201980210    0.84965666274933
F        -5.40302565355490    0.41023683052531    1.96051945751546
F        -5.73445124980206    0.57229355459244   -0.10400862478355
F        -5.19346284308572    2.31283518033219    0.97351335034584
C        -4.02521381388546    1.68229973131630    2.62052354134322
F        -4.95954216216292    0.73430534851683    2.81012319238517
F        -4.58883819417326    2.75589462222269    2.11809019458454
F        -3.71759301365994    2.05969356800949    3.86403820845576
C        -1.07971120471426   -3.31873412664067    3.69519629930770
F        -1.46374588319046   -4.50506318412915    3.22661560921683
F        -0.02805920277218   -3.61602104883807    4.48455601055064
F        -2.09822626578941   -2.92621027016504    4.49543909152985
C         4.90307609169844    1.02882644890278   -0.87761173613870
F         5.35649673529020    0.45133111389777   -1.98263622749336
F         5.15586721149146    2.33618494666574   -1.04145289992290
F         5.73062606164193    0.58309723430585    0.09526097235507
C         2.83959998678957    3.32173523051647   -2.63056249202274
F         2.25332567603760    4.48791004453037   -2.76825301000090
F         3.10807503491709    2.89858039107806   -3.85915713164571
F         4.01466219052289    3.56095058710091   -2.04347581618789
C         0.53616563811208    4.97949844668647   -0.87375006258789
F         1.20441267654338    5.25073229216995   -1.96765986988887
F        -0.63929585045533    5.62681598116234   -1.04074726721501
F         1.23008613492944    5.62776820491908    0.08227025682466
C        -2.82533612118885    2.05316684096433   -3.71828780811741
F        -3.81485481237161    2.78424014857606   -3.25293813309759
F        -2.12047406365875    2.86019038260786   -4.50314479369254
F        -3.37386426327296    1.13599380089606   -4.50408504016683
C        -4.57182953226696    2.05116053928241   -0.87656450744555
F        -4.61540476859389    2.78352990742020   -1.95608051838986
F        -5.54447912346215    1.14123702142620   -1.04115499498555
F        -4.97668197903086    2.89728044097046    0.09642712028732
C        -4.24977063578598   -1.01519146335881   -2.62991862782957
F        -4.47028358193984   -2.30229366712528   -2.76230430888067
F        -4.21966726334086   -0.52158524414633   -3.85822486660119
F        -5.34124693095343   -0.52104437651871   -2.04357927495509
C        -2.27026834310787   -3.73023135867936   -2.62952761801597
F        -3.56160576665922   -3.52822296470452   -2.80026070751058
F        -1.79629880329269   -3.85074537139078   -3.86097317153175
F        -2.09892970472624   -4.92015117122401   -2.11465744019722
C        -3.36571734863459   -3.73071245097295   -0.85618666154238
F        -4.09741764471477   -3.52821395993469   -1.93360660774937
F        -2.83031620502117   -4.91951976911793   -0.93106421114443
F        -4.25975696093012   -3.84789388221099    0.12259040868130
C        -1.42465563038598   -1.03481787685573   -4.78774151161924
F        -0.64023141431861   -0.47797514382681   -5.67748384687618
F        -2.65602053214917   -0.61460737463299   -5.05263024605914
F        -1.40258630195812   -2.33924261391525   -5.05174077114313
C         0.54439669363192    1.67523184896772   -4.78767163372407
F         0.25665472108253    0.75664649720042   -5.67738411183553
F        -0.23708466737586    2.71831186935301   -5.05046157484287
F         1.79096032952490    2.05650198329230   -5.05175040499524
156
 energy: -503.900393149759 gnorm: 6.378277615964 xtb: 6.4.1 (a3dbbd7)
C        -1.23775856564251    0.00561454363093    3.31981252030106
C        -0.38454183789579   -1.16889147606391    3.31122299458210
C         0.99541048341056   -0.71461800314574    3.31753572826256
C         0.99564662405663    0.72606894907299    3.33462632627764
C        -0.37955181570982    1.17697129742786    3.33261114226166
C         2.33779559919021   -2.60275713815763    0.59432181077436
C         3.19629102356662   -1.41951392395840    0.59357936438638
C         2.96381888218370   -0.70223268050493    1.83048780007869
C         1.96409287191801   -1.42907110521528    2.58106499355320
C         1.58203331056421   -2.60353974012980    1.83206889232188
C         3.18588607603891    1.42771681110646    0.59488852976241
C         2.34839958731592    2.60150421994047    0.59797108125168
C         1.58617252562254    2.58935349679734    1.82583719939103
C         1.96632223748013    1.42761551163102    2.59687458412375
C         2.95143305350256    0.69530529759892    1.83264557819000
C        -0.37571861440648    3.46441332862147    0.59232973766060
C        -1.75208739273023    3.03498865597390    0.59638871560789
C        -1.98294571312926    2.31218927987347    1.83343143315023
C        -0.75215139540284    2.30724213322100    2.59424827329291
C         0.24266821597408    3.01872152302576    1.82825822481266
C        -3.41912727447885    0.71839435025467    0.59525871614928
C        -3.42388602692047   -0.72920614736101    0.59997152011187
C        -2.80794636708137   -1.17443228806094    1.82822459924145
C        -2.43119548240255   -0.00302503144128    2.59294024839382
C        -2.79604460348310    1.17446845135620    1.83229583210342
C        -1.74331637510664   -3.03568623207231    0.60183985924361
C        -0.36948949845721   -3.48011965153953    0.59705674071963
C         0.24574970256361   -3.03663391047519    1.82573512668181
C        -0.75030045312027   -2.30747416789718    2.57471545438845
C        -1.98781343213222   -2.30753370847002    1.82589638340486
C        -0.23905931524334   -3.03519535335145   -1.82884681091006
C         0.75034596056014   -2.30652624259573   -2.59207494586791
C         1.98353310009779   -2.30652332587850   -1.83097368464664
C         1.74420132010774   -3.03505425164746   -0.60258873014691
C         0.36876948344214   -3.47888552131077   -0.59834496507658
C         2.80466108782358   -1.17455774556098   -1.83318060060598
C         2.42476340675596   -0.00280979994125   -2.59220052445054
C         2.80915343692824    1.16685837488110   -1.83357420834361
C         3.41435398434305    0.71829756799963   -0.60469163659505
C         3.42665864102312   -0.72759641860161   -0.60087991694996
C         1.98769357166729    2.31265932643607   -1.83424229442764
C         0.74425163884567    2.31281820518662   -2.58787539848009
C        -0.25014185034545    3.02642745450335   -1.83486357253323
C         0.37318672187051    3.47094339578342   -0.60233306558007
C         1.74754000724134    3.03810779567762   -0.59670635353881
C        -1.57870622469498    2.60431250549219   -1.82387310511564
C        -1.96745476551504    1.43078138238250   -2.59970750110685
C        -2.96300693277497    0.70322288864819   -1.82793265881700
C        -3.18466000836122    1.42581516465380   -0.60442138418731
C        -2.34038593842099    2.60312411990053   -0.60038465894588
C        -2.96400656909342   -0.70201710967762   -1.83157150117561
C        -1.96447524257387   -1.42901473834795   -2.59089793606039
C        -1.57857708395821   -2.59822263921107   -1.83403262356948
C        -2.34644990327720   -2.59927552665300   -0.59028873631655
C        -3.20036070759637   -1.42639545708626   -0.59276299431416
C        -0.99881571354712   -0.72627786410873   -3.33641514547677
C        -0.99630241942148    0.72418365783883   -3.32876784111939
C         0.38226954392750    1.17599319880800   -3.33752554769114
C         1.23672115684927   -0.00857678641518   -3.32726725149064
C         0.39053704553711   -1.17328109051790   -3.32717239908659
C        -1.79350262402714   -0.00290240391824    4.73614726333876
F        -0.81909156192806    0.12698500174137    5.73434504410343
F        -2.61246050111811   -0.96588166415303    5.05293229983965
F        -2.50814096605987    1.07269444616386    5.06058112384703
C        -0.56448559843607   -1.68757368252831    4.67181335155623
F        -0.27529537545839   -0.81491595751141    5.77427098149895
F        -1.71830585043075   -2.11110363075987    5.11473177612883
F         0.15759019468366   -2.71533807141279    5.16770254444304
C         1.42959114214769   -1.07068059214111    4.69723882206534
F         0.73826553774091   -0.35655361102451    5.75115210261974
F         1.45421760482241   -2.24751451490502    5.16800855837726
F         2.59552386826562   -0.52174431361697    5.14119420281123
C         3.35540426360330   -3.73452147286906    0.84122285637314
F         4.03791689243538   -3.60694243279710    1.97272756557661
F         4.18534037729466   -3.95673969117270   -0.12329745391466
F         2.78423896316974   -4.92039943182441    1.00613263437496
C         4.58467591548198   -2.04201580888525    0.84053642452293
F         4.67801358919753   -2.72586893009502    1.97269866514912
F         5.05600770451785   -2.75673152659381   -0.12293617163330
F         5.54392564251375   -1.13848224772620    1.00612138039068
C         2.79806254029642   -2.03363056127016    3.69268686289814
F         3.82342598384948   -2.77720283312174    3.29458305272775
F         3.49842890811670   -1.17745223366897    4.45339034954914
F         2.21375595093157   -2.98526469635081    4.42463003278266
C         4.55083938423444    1.97250453554886    0.84018573263901
F         4.65536182875826    2.86728464741098    1.93964215644997
F         4.97526726891343    2.96427048309730   -0.06254502836807
F         5.56962658333000    1.23737857283944    0.97309761802520
C         2.25975341278818    3.70188727716156    2.60133056713495
F         3.56004863628728    3.57194693989768    2.78281678415487
F         2.31253750195932    4.90024656562602    2.00927648050842
F         1.90675775457406    3.80695444589531    3.91422892308050
C         4.24149583883526    0.99411738459567    2.60975949310767
F         4.46767973440622    2.28937370738378    2.83929032385975
F         5.32895317398347    0.44356525087768    2.16632876086062
F         4.21973361907875    0.52595452831723    3.87069416180284
C        -0.49382543336753    4.93253716849078    0.84730593694364
F        -1.31901490124747    5.28859493628788    1.94335210441861
F        -1.27266766543319    5.64505871209110   -0.06650186896109
F         0.52060182094873    5.70890089177432    0.99744251303690
C         0.37175849725043    4.30814106248916    2.56894789724527
F        -0.85713218008825    4.95234536393906    2.86550230422733
F         1.09477133827968    5.28213979047244    2.18091667935999
F         0.69740843911651    4.20597223731977    3.91924022728963
C        -4.84300963713153    1.07730374340149    0.83043176274286
F        -5.44647746356054    0.37018801264414    1.96028538978869
F        -5.76058085858402    0.52915047102496   -0.05344856874317
F        -5.23462860451284    2.27196908774291    0.97291742645421
C        -4.01283147050701    1.69127594024832    2.61395970654416
F        -4.95568022142667    0.73486729872662    2.84994229103833
F        -4.56821860760478    2.77876327696297    2.16156778546766
F        -3.72115508237008    2.06192705353471    3.86448008773093
C        -1.07168218495821   -3.31240913139223    3.67470350516310
F        -1.46585283382127   -4.50890297200678    3.22836456874282
F        -0.02423360479073   -3.69208325878347    4.44438083760190
F        -2.14320951041147   -2.96086554503109    4.48197516862416
C         4.88301113052642    1.02872598530056   -0.88746024552421
F         5.36032604664260    0.44994288079528   -1.98418157372655
F         5.17298814304850    2.31450616857593   -1.10073586463186
F         5.76173080623186    0.53965695824375    0.06169266437395
C         2.83803666375327    3.32011995309614   -2.63285018393822
F         2.27337750622234    4.47649559062748   -2.78451384863532
F         3.11234970617367    2.90013547304764   -3.85796879382950
F         4.01549233314712    3.56494794811743   -2.04439129483098
C         0.54113959352982    4.96461831008606   -0.87870332483384
F         1.18488244933994    5.26827278126891   -1.95433233129184
F        -0.62025913278504    5.63695328352876   -1.10199327363608
F         1.29641519534001    5.63107100943154    0.01659259716465
C        -2.82369179711827    2.05232067424538   -3.71976706954516
F        -3.80269759433028    2.78692754924462   -3.27774609174794
F        -2.12385104945294    2.86199032815390   -4.50352547342546
F        -3.37468551198600    1.14215748063360   -4.50554026022152