69
 energy: -142.806955597293 gnorm: 0.165664648917 xtb: 6.4.1 (a3dbbd7)
C        -1.20148285352593    1.77432518274400   -3.70242224672681
C         0.14177296321445    2.07403456481366   -3.77372664082611
C         0.94276243730894    0.89228484184523   -4.28226566292280
C        -1.36923909815728    0.36073082466749   -3.97916443105951
C        -0.10487112436729   -0.19516261942580   -4.22599608675896
C        -2.25568682071943   -0.17160788109657   -3.02012735115311
C        -1.98572666822986    2.10644929297709   -2.56458513212740
C        -2.69337361934005    0.91689831198819   -2.18599995427311
C        -1.44941767332710    2.96509465473513   -1.57455058007777
C         0.75804009953891    2.67656659524625   -2.65749546773177
C        -0.02737918884948    3.25957286084589   -1.62032461868465
C         1.92509034756056    0.71591215906408   -3.13929185942123
C         1.90214340652862    1.87866254431221   -2.32241115906650
C         2.25698557904387   -0.51614097491239   -2.59322777317519
C         0.17830220360429   -1.40236035299204   -3.64342535758713
C         1.45849605844869   -1.65623692902584   -3.00039548884063
C        -2.00770322312177   -1.44964475551147   -2.45378755016181
C        -0.83590107470336   -2.10814308530307   -2.90529432062115
C        -2.48060630689213   -1.72116824626596   -1.11831252145209
C        -3.08733334412982    0.69215406265036   -0.85762147108367
C        -3.07238090469029   -0.65893748636996   -0.32902445307391
C        -2.06826085018218    2.88067887582730   -0.31173289120762
C        -2.93031548106016    1.79332892387529    0.01893885859170
C        -1.40577246845232    3.29735998428967    0.89580730619374
C         0.64689201725695    3.46155543925394   -0.40391797312355
C        -0.05077069146823    3.58675203243355    0.84897718751994
C         2.44929296965008    1.88443580252227   -1.02478707421504
C         1.90595799376385    2.83915526645385   -0.13587214266304
C         2.88922084594268   -0.54981809278165   -1.28176294191157
C         3.04288749546325    0.67166953096126   -0.51641703416469
C         2.88648888912787   -1.76293025579185   -0.57545740478731
C         1.27149400169059   -2.73910235682157   -2.14404406526056
C        -0.15478811358885   -3.04253512203973   -2.07533528504564
C         2.00610185744041   -2.85352346791308   -0.95717710335650
C        -1.89040222195017   -2.81167433236629   -0.43168657042778
C        -0.72135775271838   -3.46837180981754   -0.90545223511354
C        -1.86824803873954   -2.88832956607340    0.99679723816317
C        -3.10621062457848   -0.79710006626815    1.07182642869529
C        -2.49777506326585   -1.90011920499361    1.74214444732584
C        -2.87548344060356    1.60805606154581    1.43803426292943
C        -1.93098888636691    2.53957986672811    1.99559985953967
C        -2.99369631439029    0.33702447186039    1.95930064216469
C        -1.11007619578108    2.14086338868011    3.04444108678390
C         0.81014631542392    3.13402772090287    1.90464961271750
C         2.02592043332179    2.67434890331261    1.28029682105852
C         0.29839683715846    2.44742971662493    2.99653103129009
C         3.23099804384582    0.58628464887332    0.87850165366135
C         2.69886245919774    1.57994772747427    1.77960231149546
C         2.99506867679983   -1.82137366917012    0.84079006174534
C         3.18521807148355   -0.66188213038862    1.56778010951097
C         1.48924306478890   -3.45760534975858    0.18844651659335
C         0.09715037514563   -4.02879320583788    0.24088921837036
C        -0.64755480742806   -3.47273510889318    1.43505049861804
C         2.09508259680278   -2.84586621142353    1.32410705171686
C        -0.01991109636028   -2.94992101811210    2.54552063090512
C         1.39934359936686   -2.64005800779157    2.50640562341998
C        -1.90727217887050   -1.44333129779419    2.96767644866711
C        -2.21187564638260   -0.04660308391103    3.10418445467370
C        -1.25881530581960    0.83016235011855    3.61549329369941
C        -0.66052168106140   -1.93190093084629    3.33609858840321
C         1.01781595142370    1.32494309838291    3.54351645752290
C         2.21575731043124    0.91715083515211    2.96560910637638
C         2.51836479110596   -0.47898868176111    2.83259750984020
C         1.61050423749710   -1.43931648030327    3.26956478866971
C         0.05398516947955    0.33349017081246    3.95059509482978
C         0.34537585425368   -1.01853598914710    3.81422343554855
H         1.43318428924575    1.00888634632171   -5.25008955800204
H         0.10780007116394   -5.12534228460621    0.23726373837125
H         1.81973722149256   -3.41121807210502    3.16866037627881
69
 energy: -142.835477144893 gnorm: 0.087142026879 xtb: 6.4.1 (a3dbbd7)
C        -1.20374635223799    1.77533269356374   -3.70376214774714
C         0.13926917233681    2.07822091499318   -3.77660070327991
C         0.94049798522654    0.89652094554921   -4.28457759552884
C        -1.36926216167369    0.36158222774209   -3.97981667988889
C        -0.10495863252568   -0.19294133589290   -4.22857474915614
C        -2.25498161386340   -0.17174314564172   -3.01975735565451
C        -1.98776207195224    2.10680593394693   -2.56547958211707
C        -2.69395256890718    0.91765870947697   -2.18599355720703
C        -1.45068289658743    2.96642818831194   -1.57509476327051
C         0.75497771160740    2.67898076586168   -2.66018513039509
C        -0.02939385859297    3.26095564774328   -1.62149302250305
C         1.92370296676669    0.72350991976849   -3.14320346892312
C         1.90223048079214    1.88245361823940   -2.32677805376622
C         2.26028148005884   -0.51166644189199   -2.59952740773197
C         0.18059681450342   -1.39970897862146   -3.64547692655937
C         1.46061417369703   -1.64756880099412   -3.00335108609071
C        -2.00531169548501   -1.44803637168964   -2.45173981134093
C        -0.83140810026921   -2.10602264386896   -2.90201734378529
C        -2.48023941953969   -1.71952468720910   -1.11785608772778
C        -3.08894907969276    0.69396845309351   -0.85801791668366
C        -3.07460451662497   -0.65659372263844   -0.32912101992788
C        -2.06928025070808    2.88281436298786   -0.31322665317681
C        -2.93253669715842    1.79581970769002    0.01805318634093
C        -1.40559636725299    3.29885481332194    0.89405505986177
C         0.64613961642742    3.46333783789024   -0.40554551686485
C        -0.05052975778758    3.58818960715145    0.84668300532778
C         2.45013893481828    1.88647173538893   -1.02798798456260
C         1.90564572303865    2.83874181821836   -0.13776085858412
C         2.89832303158089   -0.54336241741405   -1.29477340954553
C         3.04613629681025    0.67472603496284   -0.52388311790993
C         2.89050734599894   -1.75854282843028   -0.59273195833279
C         1.27550747365480   -2.73475513969186   -2.14298778395620
C        -0.15162890361470   -3.04065714361196   -2.07165248934203
C         2.01089840362073   -2.84403315460871   -0.96798429171645
C        -1.89056193690754   -2.80910169816825   -0.43185640053967
C        -0.71829397644185   -3.46659433814701   -0.90203310467990
C        -1.87391017246276   -2.88448458453467    0.99487624835325
C        -3.11083126396052   -0.79309594353288    1.07028722682227
C        -2.50290940931922   -1.89780045662843    1.74101560635738
C        -2.87782657006962    1.61161768638653    1.43618378021734
C        -1.93179742992119    2.54222240542631    1.99371360603482
C        -2.99713607266213    0.34010320337126    1.95743409748405
C        -1.11165559309305    2.14487123414059    3.04328010892174
C         0.81034358912562    3.13447374835532    1.90280702827334
C         2.02485729701575    2.67340688624146    1.27781270117770
C         0.29702109995336    2.45077176944727    2.99543151735216
C         3.22772858660744    0.58517115034071    0.87433833685650
C         2.69625569304278    1.57644068146697    1.77613760012025
C         2.98211752452911   -1.81816159720787    0.82469460708097
C         3.17357246378854   -0.66488793035764    1.55862003865594
C         1.48508117855159   -3.44748282112954    0.19367399953430
C         0.09724775984196   -4.03611181103015    0.24391000097069
C        -0.64871686755627   -3.46120704760007    1.43037138122871
C         2.10171790827478   -2.86234444627860    1.30315379022429
C        -0.03229818087637   -2.94231672115396    2.54105032762535
C         1.44308521057806   -2.72842183258545    2.58619660130067
C        -1.91356319032539   -1.43946525837147    2.96414328902741
C        -2.21498718183356   -0.04263843069705    3.10210717917291
C        -1.26157236875077    0.83454068136801    3.61453747151632
C        -0.66337812628012   -1.92478134543858    3.32770105845616
C         1.01531949647270    1.32918180526062    3.54498913900412
C         2.21254599477399    0.91904491183533    2.96507446879484
C         2.50609128827131   -0.47632232581290    2.82918700614877
C         1.60528377382733   -1.42714705600651    3.27537609763973
C         0.05093884414151    0.34117978960289    3.95156473790362
C         0.34252171198565   -1.01240766263739    3.80929099228306
H         1.43187279171421    1.01186061539261   -5.25194142616236
H         0.10529421520067   -5.13321029019375    0.23962457996911
H         1.86858502218968   -3.49968116414345    3.25815287440723
69
 energy: -142.845785194423 gnorm: 0.021069379213 xtb: 6.4.1 (a3dbbd7)
C        -1.20668046668606    1.77750733119870   -3.70690935981269
C         0.13606741073208    2.08493150378549   -3.78230647439093
C         0.93813181444906    0.90294440022518   -4.28827525748620
C        -1.36930197418959    0.36437611002125   -3.98282376545014
C        -0.10512996799796   -0.18856572598735   -4.23287973764900
C        -2.25376761609987   -0.17001453322170   -3.02103132350392
C        -1.99102296298575    2.10836154697250   -2.56778817113356
C        -2.69502517030922    0.92047809367284   -2.18707839111877
C        -1.45317254049228    2.96918671125848   -1.57722813363846
C         0.75050909699369    2.68267355268138   -2.66540913356949
C        -0.03278378158029    3.26311971502739   -1.62464025645176
C         1.92139169804620    0.73270567490977   -3.14809488849097
C         1.90195134758402    1.88677288998494   -2.33335559475252
C         2.26368895885648   -0.50847319199346   -2.60519093651733
C         0.18394675668620   -1.39529212415735   -3.64952591770245
C         1.46228658713775   -1.63621265850858   -3.00647820711391
C        -2.00173215777799   -1.44321956227397   -2.45040349233232
C        -0.82548630497603   -2.10105332958465   -2.89957247020934
C        -2.47853157933810   -1.71658780209898   -1.11835081731620
C        -3.09042327478861    0.69667649999704   -0.85950829212361
C        -3.07654735309657   -0.65357559823940   -0.33025005324782
C        -2.07163325307496    2.88620113273196   -0.31623675224173
C        -2.93522119499078    1.79938419148383    0.01635034689658
C        -1.40626293738189    3.30064804978360    0.89134062175657
C         0.64425909224160    3.46419904250354   -0.40925323620160
C        -0.05116704081902    3.58921555618193    0.84297682435153
C         2.45142494602162    1.88906910288260   -1.03295040243248
C         1.90556038622028    2.83891090104342   -0.14191892136730
C         2.90298777059500   -0.53757870221398   -1.30444866239213
C         3.04769350586402    0.67751836369817   -0.53227670218687
C         2.88470881158679   -1.75367481208177   -0.59898643052191
C         1.27670583523926   -2.72804496826487   -2.13607588574824
C        -0.14999662305601   -3.03875567157851   -2.06990882793831
C         2.01020635751011   -2.83027607697201   -0.97257488562883
C        -1.88785376664780   -2.80498581327626   -0.43230882383232
C        -0.71665756642982   -3.46621153364721   -0.90133722435391
C        -1.86840548455464   -2.87724396638471    0.99369601007202
C        -3.11398983307862   -0.78921678619088    1.06805328899509
C        -2.50048013733641   -1.89388231822843    1.73800044849955
C        -2.88081108153439    1.61605498531908    1.43409674667318
C        -1.93369084885103    2.54554839425197    1.99134562364908
C        -2.99901673819765    0.34334906128993    1.95498923657035
C        -1.11357599146247    2.14854424605954    3.04094378321187
C         0.81000691289604    3.13488768840167    1.89937739010966
C         2.02269517993521    2.67192351505996    1.27278826261071
C         0.29553264280633    2.45413462895573    2.99313697160651
C         3.22106644748951    0.58076364678783    0.86931381270065
C         2.69086384832091    1.56999518969300    1.76947131931639
C         2.96311793829949   -1.81589315358585    0.82116773468127
C         3.16595139966717   -0.67102217269847    1.55227913162679
C         1.47259502486058   -3.42924999810653    0.21520302991820
C         0.09503095930233   -4.04048016602892    0.24679308351066
C        -0.64081422446773   -3.45558784855190    1.43417638392685
C         2.08269758555388   -2.86325512511124    1.29462766088247
C        -0.03209910860374   -2.94411473460593    2.54208433642248
C         1.48826822940883   -2.82494552544981    2.67827326894574
C        -1.91120486650272   -1.43600737688643    2.95744478704649
C        -2.21503075385725   -0.03951226018840    3.09846523117200
C        -1.26279060987899    0.83774670918570    3.61193030702000
C        -0.65736579952589   -1.92148712908668    3.31418331808548
C         1.01141534211688    1.33019946154510    3.54192188806446
C         2.20466297266305    0.91329275209244    2.95769278945554
C         2.49294517364970   -0.48321943940282    2.82745697965524
C         1.60448306750663   -1.42667690883350    3.28179381753898
C         0.05009264398529    0.34485568696232    3.94766246285809
C         0.34651413824475   -1.01083761108705    3.79988014988095
H         1.43100662985402    1.01648757962595   -5.25514486069349
H         0.10785863450905   -5.13580397809899    0.24432468147722
H         1.91803363962686   -3.58826638197055    3.34001990614899
69
 energy: -142.846324750869 gnorm: 0.011045484591 xtb: 6.4.1 (a3dbbd7)
C        -1.20885246597420    1.78046309240355   -3.70962899456151
C         0.13418482039832    2.08902660549240   -3.78584961839253
C         0.93702729167370    0.90685586557530   -4.29095584566081
C        -1.37002947542763    0.36706886255523   -3.98424633591145
C        -0.10555745131344   -0.18537134350099   -4.23391607823226
C        -2.25374928710447   -0.16770695712582   -3.02192667476565
C        -1.99358131135909    2.11154881442393   -2.57071915713924
C        -2.69633386719581    0.92340128057599   -2.18889571109202
C        -1.45559641308473    2.97252938067818   -1.58012909354549
C         0.74847286124448    2.68592645281047   -2.66904197002663
C        -0.03482779163022    3.26562362417082   -1.62783573336574
C         1.92082091554141    0.73576294256066   -3.15075131570528
C         1.90042293144964    1.88825206127907   -2.33653594222316
C         2.26458863438020   -0.50740630514663   -2.60642173539514
C         0.18491419617720   -1.39210091790749   -3.65010708166011
C         1.46300912492618   -1.63284933886957   -3.00707614008544
C        -1.99982236118198   -1.43975119783250   -2.44982596528620
C        -0.82360727146196   -2.09764804736119   -2.89891427215276
C        -2.47478423467228   -1.71354600408481   -1.11740198682023
C        -3.09150653609342    0.69922477238693   -0.86126016473065
C        -3.07496677430746   -0.65089356415105   -0.33113112625712
C        -2.07400385575494    2.88927030757024   -0.31877781913561
C        -2.93744578456005    1.80227157175852    0.01456108751632
C        -1.40774766055862    3.30264307026365    0.88885680155887
C         0.64282874280397    3.46471296246941   -0.41242654128756
C        -0.05228914582428    3.58973156548205    0.83997279622448
C         2.45017471084712    1.88883641980468   -1.03555567663259
C         1.90418181382984    2.83840023400388   -0.14490285067823
C         2.90217230602943   -0.53817059657527   -1.30447481153711
C         3.04606039003958    0.67685358087230   -0.53420208088719
C         2.88068446732400   -1.75423302783085   -0.59399556695368
C         1.27606048049030   -2.72454625257627   -2.13350480546364
C        -0.14919492645058   -3.03575115489638   -2.06876731068761
C         2.00764984039681   -2.82726414102350   -0.96958862592931
C        -1.88310186328471   -2.80140598261813   -0.43005707909056
C        -0.71458576805002   -3.46469176779151   -0.89945872053368
C        -1.86104445864221   -2.87409681798575    0.99571358312905
C        -3.11221580401490   -0.78748319552625    1.06694524714950
C        -2.49514084012589   -1.89108144970921    1.73674386670283
C        -2.88255580186399    1.61826878408366    1.43256968713378
C        -1.93493671042875    2.54741496252039    1.98933238646515
C        -2.99866751779618    0.34498685545463    1.95355163861723
C        -1.11427063880115    2.14918035183598    3.03839520385713
C         0.80872015650211    3.13385599025813    1.89595115751074
C         2.02033512710313    2.66923018511655    1.26927644492028
C         0.29488323237696    2.45362409734956    2.99016985776953
C         3.21787563468041    0.57738886553491    0.86771731452782
C         2.68616497576692    1.56525056056013    1.76592035920946
C         2.96173410109733   -1.81949594333775    0.82767779976313
C         3.16612087017537   -0.67364430344610    1.55382640721357
C         1.47024298183723   -3.43051943078110    0.22261038808383
C         0.09467033256958   -4.04312519459256    0.24899262623812
C        -0.63730412092474   -3.46221597979585    1.44137785505189
C         2.07824702681800   -2.86511974842303    1.30587551424746
C        -0.02592070968481   -2.95685950948596    2.55317797869835
C         1.49014893126760   -2.83411532758462    2.69080939046906
C        -1.90565366999100   -1.43497792144665    2.95585954216946
C        -2.21312828609742   -0.03884645008264    3.09590701790985
C        -1.26214026821877    0.83788764320975    3.60927316888891
C        -0.65374530370740   -1.92516516975815    3.31545015293526
C         1.00946148938195    1.32773682958558    3.53817141336641
C         2.20010883589988    0.90697348416964    2.95311675039252
C         2.49335435210621   -0.49037629466416    2.83128350489983
C         1.61028193725966   -1.43852982271941    3.29286911025919
C         0.05011469696098    0.34206571997022    3.94440888603190
C         0.34929680692504   -1.01473106806079    3.80189832072973
H         1.42900685649233    1.02120683407220   -5.25843167215633
H         0.11016739914019   -5.13809604182784    0.24281329394527
H         1.92280487956457   -3.59821943166169    3.34837729618373
69
 energy: -142.846454878357 gnorm: 0.003414881448 xtb: 6.4.1 (a3dbbd7)
C        -1.20959589630151    1.78103135046352   -3.71032245875790
C         0.13393368513928    2.09008174537809   -3.78688674401440
C         0.93679620514663    0.90727245666076   -4.29155554783636
C        -1.37024352173182    0.36766747618143   -3.98425185146419
C        -0.10584335987911   -0.18493329952945   -4.23374447416885
C        -2.25408941528185   -0.16710333612992   -3.02199657039066
C        -1.99466534982512    2.11267433294721   -2.57178163223323
C        -2.69718749138099    0.92467961636854   -2.18942752579577
C        -1.45661616017647    2.97352928039758   -1.58081403086849
C         0.74750456533898    2.68692906193477   -2.67035063955176
C        -0.03565530796277    3.26610505751956   -1.62863753063106
C         1.92087614771566    0.73711101334434   -3.15121317223793
C         1.90003898399858    1.88788812128850   -2.33749598220438
C         2.26543154388420   -0.50808659587111   -2.60605550620095
C         0.18537709231770   -1.39157154540935   -3.65004100813051
C         1.46344011636862   -1.63108220564244   -3.00679379371018
C        -1.99948918162548   -1.43849144994259   -2.44935172655965
C        -0.82296576306570   -2.09656958991826   -2.89832777208189
C        -2.47373775447193   -1.71223850530747   -1.11697287030148
C        -3.09255796773240    0.70046680751702   -0.86193071830593
C        -3.07466289048711   -0.64955517729412   -0.33167134943576
C        -2.07521214076161    2.89045945213622   -0.31936117465295
C        -2.93899867055983    1.80362105632887    0.01428079561743
C        -1.40860315230452    3.30356855531597    0.88827590823949
C         0.64224420355810    3.46464809543992   -0.41336208160192
C        -0.05282512568089    3.58988888728076    0.83898582897630
C         2.45035358480633    1.88870789338057   -1.03614250037715
C         1.90405556430968    2.83801759929385   -0.14571126345474
C         2.90321744107298   -0.53804043262725   -1.30460904286068
C         3.04661881400471    0.67692834530019   -0.53519472973006
C         2.87861906023116   -1.75417618658056   -0.59131344978283
C         1.27520519910662   -2.72293102409334   -2.13137459404232
C        -0.14914084426450   -3.03450986100167   -2.06801140328912
C         2.00646055358823   -2.82370458486598   -0.96806364083140
C        -1.88111910059971   -2.79962298107273   -0.42897610038263
C        -0.71446352983443   -3.46455858771369   -0.89843713077043
C        -1.85801994804977   -2.87204229762698    0.99645384699038
C        -3.11218589808831   -0.78625898455477    1.06626870136515
C        -2.49294010070958   -1.88911036157032    1.73547918420236
C        -2.88410619713187    1.61951679430359    1.43248042326146
C        -1.93581949672511    2.54841769347742    1.98907706426003
C        -2.99925907875789    0.34585428909678    1.95309941274747
C        -1.11464460922168    2.14985731401791    3.03771837266492
C         0.80808024066966    3.13327435007444    1.89458039540855
C         2.01943867509215    2.66818561447926    1.26792746605561
C         0.29458337210689    2.45373576880488    2.98908774814966
C         3.21788611634234    0.57686395671894    0.86693315029734
C         2.68367002506500    1.56269884890657    1.76406869446984
C         2.96157604966637   -1.82061520934195    0.83124029435811
C         3.16814172836791   -0.67381224761079    1.55403778772810
C         1.46846652817573   -3.42985640894881    0.22778237183261
C         0.09445153889040   -4.04430317070748    0.24938197662626
C        -0.63627904497124   -3.46469995532232    1.44386689965001
C         2.07297598652704   -2.86314738424441    1.31158322666393
C        -0.02199644229823   -2.96249142153826    2.55675313986722
C         1.49056038453187   -2.83832425820084    2.69596914185173
C        -1.90252829630283   -1.43369368692399    2.95413805883239
C        -2.21223316207890   -0.03822527610700    3.09439273109931
C        -1.26186977824743    0.83809160923428    3.60789998213315
C        -0.65196694982043   -1.92628597903765    3.31398518054617
C         1.00855900173984    1.32678565780586    3.53639057889500
C         2.19736895026526    0.90349104819516    2.95040952779872
C         2.49279457701849   -0.49369844513650    2.83177904333400
C         1.61327199418725   -1.44502984173585    3.29649773574028
C         0.05003033221280    0.34069191739973    3.94177620513678
C         0.35067072402468   -1.01604158789353    3.80060749681501
H         1.42812266023423    1.02195013152857   -5.25943730146605
H         0.11320569547330   -5.13899872731812    0.24026396469920
H         1.92618006104287   -3.60344166102449    3.34888432759677
69
 energy: -142.846467282980 gnorm: 0.001317837274 xtb: 6.4.1 (a3dbbd7)
C        -1.20953578287102    1.78083057424075   -3.71016171742733
C         0.13414834721915    2.08997647559586   -3.78672651720045
C         0.93697659321711    0.90696075207828   -4.29120342304195
C        -1.37012874191058    0.36757676767436   -3.98399708186413
C        -0.10579017037431   -0.18509138389827   -4.23338841128253
C        -2.25414536178123   -0.16733311027184   -3.02190953551682
C        -1.99457378117376    2.11247951251679   -2.57169132578715
C        -2.69720421413248    0.92454900813330   -2.18929592279803
C        -1.45652356929318    2.97321348777827   -1.58058275997820
C         0.74743840950135    2.68678927907415   -2.67030823297311
C        -0.03558286833261    3.26574857022647   -1.62838792261617
C         1.92098714148550    0.73712691540573   -3.15083458627388
C         1.90012782772404    1.88728273391937   -2.33728630513913
C         2.26564747067692   -0.50877530818648   -2.60560688279197
C         0.18546066028071   -1.39181924231121   -3.64995851582986
C         1.46351677895023   -1.63097630427304   -3.00653441241930
C        -1.99961077699367   -1.43867613467034   -2.44931595204995
C        -0.82295112489271   -2.09684842961923   -2.89836066304727
C        -2.47395619438710   -1.71245495644901   -1.11701680052736
C        -3.09262087756583    0.70027685818775   -0.86188300493802
C        -3.07475768130770   -0.64974108071025   -0.33169092014304
C        -2.07515286501630    2.89016169218300   -0.31917060495230
C        -2.93905793359833    1.80341943804895    0.01448608433431
C        -1.40858635645015    3.30335476114207    0.88842893245685
C         0.64232158765224    3.46448361315888   -0.41321174611019
C        -0.05274623035620    3.58966799970874    0.83906793022435
C         2.45068273794679    1.88867215306260   -1.03584167303931
C         1.90438269124855    2.83795433766394   -0.14546669246639
C         2.90376335744668   -0.53789172727124   -1.30467991044253
C         3.04715388153127    0.67707353487477   -0.53519212309914
C         2.87854484284037   -1.75421821932117   -0.59125916893304
C         1.27491891919739   -2.72321059029834   -2.13109029791831
C        -0.14927443035200   -3.03463948900934   -2.06798610029672
C         2.00660578468376   -2.82285552074464   -0.96826214139361
C        -1.88127050686813   -2.79983384553318   -0.42893819735192
C        -0.71487912125693   -3.46490771234661   -0.89839941291795
C        -1.85844498158150   -2.87214191638046    0.99655588723264
C        -3.11251584239207   -0.78630172907864    1.06630446542705
C        -2.49326303849292   -1.88907065635615    1.73538053468861
C        -2.88428001441137    1.61943273844284    1.43270255650138
C        -1.93584973263294    2.54832568840430    1.98930496252832
C        -2.99953567064693    0.34573946852824    1.95323872162714
C        -1.11460848791336    2.14995001625150    3.03793930606463
C         0.80812741107256    3.13318609396112    1.89465858695867
C         2.01973583143364    2.66840214212740    1.26808635686181
C         0.29463969030714    2.45390449266453    2.98925563785151
C         3.21885036996631    0.57744907568735    0.86704747234567
C         2.68385616235895    1.56270405288268    1.76411218178810
C         2.96156632082766   -1.82021573877028    0.83137485749150
C         3.16901120494554   -0.67327259228466    1.55379958231552
C         1.46776733610601   -3.42909518509453    0.22846569284257
C         0.09408031731201   -4.04413275322173    0.24934781264268
C        -0.63692365802803   -3.46463293140733    1.44387092686414
C         2.07080740315498   -2.86125779263636    1.31172284764629
C        -0.02161626973589   -2.96204675854755    2.55604945392632
C         1.49020660242081   -2.83803755840431    2.69532453000987
C        -1.90247758726975   -1.43347812671762    2.95401824462848
C        -2.21228612884829   -0.03819367203668    3.09441147446738
C        -1.26187328205362    0.83809476447927    3.60796921003457
C        -0.65204941286151   -1.92595288558307    3.31332895577275
C         1.00865346075374    1.32696255457590    3.53648773573838
C         2.19722464237630    0.90334758893468    2.95024857419001
C         2.49237516603832   -0.49353659771456    2.83118673460610
C         1.61319147796086   -1.44523798465984    3.29550310936435
C         0.05002252807175    0.34070356251942    3.94157373704666
C         0.35065262741818   -1.01568848999863    3.79978104822722
H         1.42827474707414    1.02152793076765   -5.25909044245315
H         0.11404679575620   -5.13873693322278    0.23989051096152
H         1.92699134471579   -3.60358634719443    3.34654409513999
69
 energy: -142.846469594711 gnorm: 0.000653073449 xtb: 6.4.1 (a3dbbd7)
C        -1.20943016304781    1.78060771672856   -3.71001736297550
C         0.13436644417160    2.08983139231318   -3.78653530313543
C         0.93714361527254    0.90667416407973   -4.29082578567080
C        -1.36999517752861    0.36746410201166   -3.98381121104617
C        -0.10570685906680   -0.18523267821406   -4.23305943828468
C        -2.25411395807876   -0.16760012511127   -3.02180413509374
C        -1.99433910930630    2.11218972306475   -2.57154794660156
C        -2.69710972724710    0.92428400144562   -2.18913168515597
C        -1.45629915215704    2.97283575044687   -1.58036956813781
C         0.74745938983854    2.68659744009245   -2.67021008922547
C        -0.03540378273225    3.26536708261192   -1.62811032323150
C         1.92098255876708    0.73703770805699   -3.15041276585813
C         1.90020646510786    1.88671029617725   -2.33698844739250
C         2.26576608071553   -0.50934546594052   -2.60523433239884
C         0.18550009797480   -1.39205896534069   -3.64987614168610
C         1.46353857897034   -1.63103465794758   -3.00626059489391
C        -1.99970773802745   -1.43893851083927   -2.44927983095959
C        -0.82296197592423   -2.09722638401412   -2.89841134510572
C        -2.47427364101211   -1.71275864465504   -1.11706799009729
C        -3.09252185399691    0.69996316277412   -0.86177903294096
C        -3.07491517015704   -0.65005704295984   -0.33161927083703
C        -2.07490638428240    2.88973912070516   -0.31899374038047
C        -2.93886901600463    1.80309020954755    0.01465402023784
C        -1.40843896181965    3.30302124118255    0.88856806787708
C         0.64246086145610    3.46434004331898   -0.41300419211782
C        -0.05257977447788    3.58938462228567    0.83920872072131