69
 energy: -142.779860304306 gnorm: 0.143561562689 xtb: 6.4.1 (a3dbbd7)
C        -1.20290380672593    1.77944796893883   -3.73947895581329
C         0.14378245903966    2.09186533080351   -3.79514578440438
C         0.95352315025130    0.90024237522855   -4.28210247052785
C        -1.33510752373657    0.38228857284893   -3.95232525776046
C        -0.08319175906800   -0.18871635043019   -4.22132868142840
C        -2.22058776460270   -0.16064621761648   -2.96805736346835
C        -2.15447123048298    2.23047441810790   -2.68410699342965
C        -2.69773049638976    0.88566147155216   -2.18581805088444
C        -1.43656833071882    2.94698821954345   -1.55757142993353
C         0.74874376908081    2.65971369035312   -2.66614433372446
C        -0.03381502140400    3.22601451978180   -1.60805305281325
C         1.93416017423788    0.72098718448471   -3.13716001010088
C         1.89650767024692    1.85826171545635   -2.32272811667314
C         2.27024642308111   -0.53017913696999   -2.59487009593900
C         0.20158742410905   -1.39819261933425   -3.64380005041187
C         1.46852483881111   -1.64223042273814   -3.00552668030987
C        -1.98422064816834   -1.46396703323084   -2.43060336489632
C        -0.82223904422122   -2.11352258025473   -2.89494684168292
C        -2.48424022065077   -1.74647474607522   -1.10732588427761
C        -3.09448226198241    0.67536963117974   -0.85367700427505
C        -3.07353216013083   -0.67620169898974   -0.32293026932988
C        -2.05893962090392    2.87259252618618   -0.32597254370717
C        -2.96358087590176    1.77791974711037    0.01876245615783
C        -1.39352583940394    3.27431237797428    0.87873184961019
C         0.65532416125592    3.45161904237013   -0.40551498236893
C        -0.03518322826538    3.57146992824592    0.83451055513717
C         2.45529598254028    1.86764106558382   -1.01786753798656
C         1.92953533446933    2.82528009257758   -0.13660255613521
C         2.90075595029957   -0.56691594417679   -1.28399327712193
C         3.04967491050884    0.65388343269141   -0.51597369213076
C         2.89112846569878   -1.78604723134686   -0.57737233276451
C         1.26943427030473   -2.73530000147252   -2.11837925261065
C        -0.14162120435414   -3.04368205919521   -2.06610901538911
C         2.02768202271841   -2.86553562074599   -0.97309277301608
C        -1.91989477437846   -2.84415744807126   -0.42003012285818
C        -0.71411263779302   -3.46612524901633   -0.88197437490005
C        -1.90032972800241   -2.91938732180543    1.01089681848314
C        -3.11364163603252   -0.81462000820190    1.07731514349851
C        -2.50638967609468   -1.92822712845132    1.75142070574767
C        -2.87969197050893    1.59237527397027    1.41841999906502
C        -1.92202268406184    2.52121383587967    1.97375971755096
C        -2.99307301877973    0.31489426989762    1.95327229180891
C        -1.10362340975944    2.12557625326594    3.02350822014955
C         0.82478547924741    3.11985219848366    1.89476975818341
C         2.04272169784548    2.66163203047121    1.27436485952515
C         0.30588417054892    2.43384355017466    2.98100384080794
C         3.23657787646448    0.56671092288825    0.88096942251033
C         2.71030888769663    1.55807067392936    1.77612582977607
C         2.99500665026028   -1.84695187981018    0.84908440701994
C         3.18283586901622   -0.68612278108815    1.57198275682170
C         1.47273675191314   -3.47287398858767    0.20891919199945
C         0.11479263598215   -3.77596715134159    0.25657873753253
C        -0.63846236362483   -3.47628954715804    1.43950116910158
C         2.10652604069635   -2.86956819752793    1.34685268814156
C        -0.01104976010602   -2.96191193427796    2.56681097691215
C         1.39582436363244   -2.65344237679771    2.52010541068404
C        -1.90321112041296   -1.45994428253085    2.97354143349352
C        -2.20693770505209   -0.06076451455477    3.09559347343764
C        -1.25490639225805    0.81966107067459    3.60493556931313
C        -0.66059894958888   -1.94579713270908    3.35662237608844
C         1.02216979991961    1.31266040709425    3.53513359681098
C         2.21996760786017    0.90174808352016    2.96219367724522
C         2.51775167677411   -0.49825806937010    2.83614809973023
C         1.61206686694082   -1.45038734556299    3.28504870114027
C         0.05534397637765    0.32580039314330    3.94831022606817
C         0.34640566208770   -1.02775017694935    3.82796379058686
H         1.45052303275980    1.01572465134568   -5.24651694764056
H        -2.95907898676729    2.87122819338399   -3.06186239592676
H        -2.73293147721553   -2.02184984533069   -3.01215204078771
69
 energy: -142.805637744457 gnorm: 0.076729124692 xtb: 6.4.1 (a3dbbd7)
C        -1.20222248112174    1.79096807371380   -3.74297971387505
C         0.14597865692223    2.09498423586254   -3.79213949179577
C         0.95472260610738    0.90158969360999   -4.27827332334708
C        -1.33124211957844    0.39178989935017   -3.95204204528656
C        -0.08084183502079   -0.18606998738155   -4.21708650993495
C        -2.22568499054117   -0.14292556682363   -2.97763106905967
C        -2.15812411935443    2.24434724648513   -2.68986692898329
C        -2.68368285703691    0.89526343542426   -2.18377010412913
C        -1.43576092959651    2.95146007355557   -1.55856858923489
C         0.75288453995141    2.66476566003533   -2.66555800010746
C        -0.03250463405473    3.22714489353601   -1.60757610021001
C         1.93937382781259    0.72232654520575   -3.13578041307540
C         1.89798566026231    1.85940024928838   -2.32163663399921
C         2.28026707135949   -0.52827933361511   -2.59424755273548
C         0.21352923140741   -1.39542468943454   -3.63223928792512
C         1.48476657510608   -1.64298348014905   -3.00341611254626
C        -2.07040915738840   -1.52269224165514   -2.49801931424229
C        -0.80136502968612   -2.13548126614113   -2.91518805580255
C        -2.48175774417912   -1.74516453464525   -1.08386537372165
C        -3.08419463433239    0.67894407371072   -0.84781273636555
C        -3.06311569713501   -0.67128308083334   -0.31014956689120
C        -2.05756484817419    2.87348252822872   -0.32603655696358
C        -2.96179914394157    1.77883468130610    0.02074889975448
C        -1.39320662495221    3.27281765745372    0.87853876615412
C         0.65587859590907    3.45117503306403   -0.40477075216377
C        -0.03465091464174    3.57061937130942    0.83480802371234
C         2.45640867413996    1.86792946042911   -1.01665821184500
C         1.93034943273513    2.82533258143333   -0.13566276896045
C         2.90675155868999   -0.56592616155238   -1.28211771400580
C         3.05197617418637    0.65520849493742   -0.51447165361632
C         2.89762031052112   -1.78476405162495   -0.57535359657138
C         1.28484466997266   -2.73578821448715   -2.11808953933822
C        -0.12728002110488   -3.04185441149522   -2.06616283761503
C         2.03763335605726   -2.86604465259416   -0.97030167507254
C        -1.91784021494666   -2.83733649798993   -0.40983664065070
C        -0.70735403974738   -3.46783972380335   -0.88156390239695
C        -1.90222811402778   -2.91832782352064    1.01738961974208
C        -3.11319894487565   -0.81232905343431    1.08859330609485
C        -2.50969151523544   -1.92599335476659    1.76012960297530
C        -2.87911286303553    1.59325935979996    1.42420430691675
C        -1.92174756608890    2.52155221156577    1.97619228152344
C        -2.99508238725527    0.31984910877898    1.96320624070095
C        -1.10294111651365    2.12683334651195    3.02601583641741
C         0.82500082932654    3.11982861960124    1.89544668334063
C         2.04322457053054    2.66155602464431    1.27520583267024
C         0.30635552423627    2.43427735493277    2.98215622764479
C         3.23777207769374    0.56749805341604    0.88234563583009
C         2.71054289898100    1.55808877869274    1.77708926775903
C         2.99756451951926   -1.84594576755997    0.85111474264867
C         3.18385522299812   -0.68554705477559    1.57336231474696
C         1.47972882664391   -3.47329286190919    0.20919715049800
C         0.11571859491042   -3.77314854369529    0.25359987350700
C        -0.63846754503026   -3.47222667211545    1.43837298789001
C         2.10886273876763   -2.87034684396827    1.34699997356649
C        -0.01090215411232   -2.95924207114988    2.56558892588847
C         1.39679796178699   -2.65426610229082    2.52112500015903
C        -1.90487150894918   -1.45797533782088    2.97897642680853
C        -2.20797582363762   -0.05791524800848    3.10231881412999
C        -1.25397558552847    0.82155964558322    3.60921129515960
C        -0.66064802104184   -1.94445530809842    3.35818489131156
C         1.02206400239321    1.31274198363006    3.53638826969477
C         2.21981860498569    0.90117070790391    2.96318241446545
C         2.51724711920539   -0.49811675840852    2.83720148935130
C         1.61147923633418   -1.45112356812314    3.28508579516523
C         0.05558806643664    0.32649123418275    3.95021911337573
C         0.34606129187900   -1.02797481247361    3.82919390749020
H         1.45017556194363    1.01572217482711   -5.24375801174015
H        -2.96480282459564    2.88459445548701   -3.06564067174434
H        -2.83034185812176   -2.09030479373129   -3.07707924843018
69
 energy: -142.815129340218 gnorm: 0.018821443139 xtb: 6.4.1 (a3dbbd7)
C        -1.19775579033336    1.79643348146807   -3.74401610510366
C         0.15059154847485    2.09702585036845   -3.78857361614175
C         0.95701456008567    0.90239853828816   -4.27467702023240
C        -1.32878690019434    0.39523014157398   -3.94979680106451
C        -0.08160581824139   -0.18320891228186   -4.21653384598155
C        -2.22991009155792   -0.13601209997343   -2.98407467199554
C        -2.15130045430962    2.24375897920540   -2.68710386184910
C        -2.67015128800451    0.88921673316279   -2.18695917567208
C        -1.43073736300620    2.95583941599260   -1.55804263771284
C         0.75857086903711    2.66929744116125   -2.66377952463815
C        -0.02805537860111    3.23101760367117   -1.60569762537330
C         1.94343670894507    0.72595280187215   -3.13247193641740
C         1.90212153897494    1.86233063450942   -2.31894762924329
C         2.28586615469096   -0.52423666376744   -2.59012599579706
C         0.21224111181009   -1.38825556731448   -3.61469665419832
C         1.49079128795656   -1.63748311072511   -2.99752493488616
C        -2.17836587805455   -1.59157248616954   -2.57888586878203
C        -0.78884613476200   -2.13780210473287   -2.92278046226683
C        -2.48331921633347   -1.74536921903301   -1.07524396048329
C        -3.08031109178062    0.67828434679458   -0.84529023970134
C        -3.05422378455481   -0.67232909525515   -0.30863949841129
C        -2.05336972950722    2.87371966656201   -0.32671962209719
C        -2.95653730164980    1.77410066686466    0.01788975356231
C        -1.39057751589280    3.27079105535232    0.87811467674485
C         0.65919073843133    3.45240344065230   -0.40212567781384
C        -0.03201020415681    3.57015530108639    0.83659649826778
C         2.46022949168420    1.86976013260597   -1.01314925393420
C         1.93386344359647    2.82656412719586   -0.13234960338075
C         2.91477080650060   -0.56303734627539   -1.27887662092018
C         3.05751183187976    0.65789348124839   -0.51100745288478
C         2.90415038114762   -1.78216907605498   -0.57261353911753
C         1.29068340828774   -2.73020895528574   -2.11468768073808
C        -0.12515767134997   -3.03039874508332   -2.06760418257318
C         2.04298323726217   -2.86272865763090   -0.96751252586116
C        -1.91790466409940   -2.82581659034952   -0.41010883166688
C        -0.70442440495769   -3.46948877238854   -0.88488803902532
C        -1.89674738181827   -2.90918405591310    1.01696628042696
C        -3.10880314186882   -0.81122941480198    1.09184026560167
C        -2.50764389426869   -1.92102052643217    1.76332244399424
C        -2.87568218426746    1.59224671215392    1.42730690883330
C        -1.91997570918297    2.52027903956348    1.97714519146502
C        -2.99252128283074    0.32263789861488    1.96817981910200
C        -1.10131084538152    2.12769251487522    3.02885267238416
C         0.82701537534832    3.12039980156227    1.89810018410934
C         2.04568536338522    2.66263498412557    1.27844779302179
C         0.30800331915844    2.43496995960277    2.98463775878885
C         3.24114616222821    0.56965122476362    0.88605502513907
C         2.71293892487475    1.55921914006826    1.78026175142706
C         3.00059443934179   -1.84330046620931    0.85469791793943
C         3.18647213166560   -0.68380946766483    1.57681575699021
C         1.48538518178391   -3.47132567958655    0.21073521811351
C         0.11532823840473   -3.76418672045559    0.24833196369618
C        -0.63623120854960   -3.46526015031364    1.43719020064370
C         2.11007024627351   -2.86875182290307    1.34827023263405
C        -0.00956437558186   -2.95606292700597    2.56619469836000
C         1.39849635168917   -2.65268243865681    2.52405640355787
C        -1.90494358867939   -1.45602645929584    2.98423260369535
C        -2.20753558523562   -0.05563391971285    3.10863425243566
C        -1.25247398940322    0.82361731663194    3.61401583417853
C        -0.65976844024121   -1.94230044934306    3.36060574690962
C         1.02356293560402    1.31380519974802    3.53941125559125
C         2.22131943362133    0.90162857265089    2.96623820850562
C         2.51916475784337   -0.49635674826253    2.84100487354423
C         1.61272020640825   -1.45011967510871    3.28724981944425
C         0.05736535794166    0.32807805279830    3.95348186608425
C         0.34722657576261   -1.02632834396602    3.83117514058726
H         1.45152148477766    1.01723415280127   -5.24095058049043
H        -2.96256504970739    2.87901508113912   -3.05922890548596
H        -2.93667752138443   -2.16656974536103   -3.14433122112749
69
 energy: -142.815656518207 gnorm: 0.009712570372 xtb: 6.4.1 (a3dbbd7)
C        -1.19670187856783    1.79242741742360   -3.74141035667876
C         0.15136144783657    2.09592571065301   -3.78595287638466
C         0.95798871325636    0.90263943356212   -4.27262499906976
C        -1.33209810079817    0.39157502659271   -3.95273269530078
C        -0.08328774347094   -0.18222353400826   -4.21810713241813
C        -2.24086191227219   -0.14631843141545   -2.99261899200651
C        -2.14781302669033    2.23665526130158   -2.68335599435169
C        -2.67322923383364    0.87992298044861   -2.19176414354175
C        -1.42685948099604    2.95217104779532   -1.55710611685866
C         0.76083741634538    2.66983073415543   -2.66238599775181
C        -0.02468841744680    3.23106008617852   -1.60404472101562
C         1.94357943966916    0.72748619125351   -3.12976452645970
C         1.90539619782608    1.86438235690418   -2.31701634742279
C         2.28309420008844   -0.52261710816843   -2.58611309159291
C         0.20432616696196   -1.38787570610026   -3.61344135894742
C         1.48432341884823   -1.63356105726123   -2.99378021329360
C        -2.19019982646346   -1.59627073087334   -2.58742820914302
C        -0.79799255612806   -2.13591894469232   -2.92490587304537
C        -2.49971503308108   -1.75387629956771   -1.08912025426401
C        -3.08148262459576    0.67476988761306   -0.84735712818480
C        -3.06044529864628   -0.67773520225650   -0.31529350129197
C        -2.04974209761935    2.87168408471834   -0.32669169050628
C        -2.95174679991216    1.77018304310157    0.01543290352778
C        -1.38754658528677    3.27001132520662    0.87817679036327
C         0.66255691606317    3.45331756899017   -0.40036834000246
C        -0.02921876256498    3.57050411524522    0.83803172473291
C         2.46438168738041    1.87220351514132   -1.01086790560538
C         1.93784253003426    2.82859613286109   -0.12970203552608
C         2.91639171225802   -0.56053440393087   -1.27649765613211
C         3.06141062097859    0.66015041480224   -0.50833857019880
C         2.90498394468082   -1.77993280760576   -0.57112475062729
C         1.28532853754455   -2.72641357519445   -2.11220843862713
C        -0.13190347001431   -3.02886872596279   -2.07009536391616
C         2.04138982721227   -2.85872941282203   -0.96692692780025
C        -1.92356953752528   -2.82754079607667   -0.41668948253388
C        -0.70675792099756   -3.46971175557515   -0.88697370961220
C        -1.89403640399412   -2.90426590117772    1.01243769571476
C        -3.10687608959951   -0.81128415865843    1.08757899896271
C        -2.50537578234442   -1.91912427825819    1.76066032752902
C        -2.87225308871784    1.59148860753564    1.42567812321939
C        -1.91746171403335    2.51961686285334    1.97672828134614
C        -2.98930809186117    0.32208847949429    1.96536339917167
C        -1.09966042163993    2.12831483445460    3.02979708354814
C         0.82948162226175    3.12141876135911    1.90028606606125
C         2.04873738659467    2.66443504877849    1.28137842061398
C         0.30977688759716    2.43597778943098    2.98659384437993
C         3.24457582360931    0.57171290568700    0.88919605676287
C         2.71609609042746    1.56095962632249    1.78358926061158
C         3.00245942708517   -1.84135464095760    0.85655722141218
C         3.18905673375577   -0.68226259753598    1.57952217108696
C         1.48553094945266   -3.46833056201730    0.21140466882999
C         0.11572532849121   -3.75989397571433    0.24660509024495
C        -0.63450584551987   -3.46060050997671    1.43496714969030
C         2.11083136267745   -2.86630418867939    1.34927713742325
C        -0.00835543347672   -2.95331512251861    2.56538104852175
C         1.39985526565116   -2.65047911368557    2.52508796713240
C        -1.90366245741947   -1.45506337225501    2.98381202688716
C        -2.20598095049347   -0.05504086947825    3.10817249014692
C        -1.25141444313996    0.82438519933250    3.61486443654597
C        -0.65864834318678   -1.94069777890173    3.36067951836433
C         1.02527474435521    1.31508884323112    3.54205094866514
C         2.22347688250128    0.90307495116078    2.96926821413174
C         2.52145672206747   -0.49484909240302    2.84388770012950
C         1.61430564826569   -1.44856224195592    3.28922198309111
C         0.05869983942986    0.32923883574990    3.95576528750511
C         0.34852772220023   -1.02491957652581    3.83269423313649
H         1.45394993989354    1.01897422887640   -5.23787432372207
H        -2.96195796854043    2.87040572771060   -3.05221517747184
H        -2.94541508729442   -2.17318348629356   -3.15120615547455
69
 energy: -142.815793486873 gnorm: 0.003114367368 xtb: 6.4.1 (a3dbbd7)
C        -1.19493231945161    1.79004466363379   -3.73971859539966
C         0.15200432197250    2.09591359321619   -3.78496169962141
C         0.95872089863094    0.90348533272320   -4.27200805440653
C        -1.33290208723947    0.38961881126858   -3.95486266277831
C        -0.08351175584916   -0.18096732168737   -4.22109156853817
C        -2.24467213362173   -0.15275193272416   -2.99621658859539
C        -2.14377564616487    2.23251088137889   -2.68113341192162
C        -2.67026823665303    0.87359270000683   -2.19284359580987
C        -1.42476596413204    2.95041741222540   -1.55647474369687
C         0.76207307153352    2.67073423131095   -2.66210488805785
C        -0.02282258079517    3.23173424255997   -1.60363375992151
C         1.94337750260061    0.72836557814950   -3.12883124905597
C         1.90744151431648    1.86605063783358   -2.31688957403663
C         2.28113238625556   -0.52183718132296   -2.58420871981137
C         0.19849508135452   -1.38714956781767   -3.61201722706749
C         1.47968309549868   -1.63079816500682   -2.99070832172468
C        -2.19760301682596   -1.59930074572620   -2.59382015658515
C        -0.80283766808514   -2.13200181447445   -2.92408712841707
C        -2.50511039535351   -1.75634840282872   -1.09645335634317
C        -3.08173102305381    0.67362268075321   -0.84719472844962
C        -3.06169690050094   -0.68011455965186   -0.31816554358951
C        -2.04809332500313    2.87130242867116   -0.32659352838512
C        -2.94878744014412    1.76812678624601    0.01400725171310
C        -1.38644061652318    3.27025023045194    0.87838240852775
C         0.66397237557350    3.45443271485454   -0.39970921880239
C        -0.02821532732145    3.57116584296529    0.83859218688448
C         2.46613408809639    1.87372021052912   -1.01026806636906
C         1.93950801534853    2.82987253768909   -0.12878914337954
C         2.91618393769912   -0.55939650857205   -1.27536194535974
C         3.06244216513695    0.66125074724227   -0.50747782006837
C         2.90471662397590   -1.77910393906470   -0.57063149638359
C         1.28138981203492   -2.72370136624157   -2.10980579699842
C        -0.13675474277022   -3.02744677194798   -2.07100245384728
C         2.04025213084464   -2.85686864421924   -0.96661376413486
C        -1.92503751016028   -2.82658309223645   -0.41997003492543
C        -0.70776563144611   -3.47097061615394   -0.88770165180327
C        -1.89222927450213   -2.90091414604970    1.00980258470468
C        -3.10471961174552   -0.81120762649137    1.08556356054886
C        -2.50435766028425   -1.91852944588985    1.75975437873518
C        -2.87024879689177    1.59119123674374    1.42499142447219
C        -1.91652853216571    2.51965222217783    1.97659798207544
C        -2.98735059325549    0.32167398786494    1.96372566258006
C        -1.09925079935283    2.12868497813216    3.03034902414305
C         0.83031758809491    3.12188373333456    1.90105026507848
C         2.04971456379376    2.66536526562463    1.28240536599520
C         0.31024503773429    2.43637269110559    2.98724670456778
C         3.24551444764961    0.57252385762376    0.89027404696122
C         2.71710776467450    1.56161339670232    1.78469884512742
C         3.00308191789600   -1.84097813001560    0.85733519395177
C         3.18983272242251   -0.68192202131762    1.58040193132060
C         1.48557045713366   -3.46767046519909    0.21207781518787
C         0.11611574562986   -3.75828815992128    0.24583469719015
C        -0.63340267219866   -3.45783607696382    1.43346238947459
C         2.11102052438439   -2.86569362014027    1.34996989292346
C        -0.00790550466481   -2.95231901194192    2.56509750187394
C         1.40039029702348   -2.64987840997289    2.52578764112031
C        -1.90316327072064   -1.45491385790032    2.98429261434614
C        -2.20539758233649   -0.05514213681221    3.10822089860818
C        -1.25130695292903    0.82467054690495    3.61526383907830
C        -0.65820082942912   -1.94018248168352    3.36073337972547
C         1.02567896918462    1.31556545145163    3.54299688233313
C         2.22394004971763    0.90350787025343    2.97019137236402
C         2.52213798807267   -0.49440040969906    2.84494659237216
C         1.61484066441160   -1.44812784170670    3.29020748029578
C         0.05906627871261    0.32959123226591    3.95691958401446
C         0.34903542380221   -1.02442350740299    3.83355658531510
H         1.45587212159336    1.02058710973077   -5.23641837372224
H        -2.96249714192728    2.86268709856360   -3.04705825544468
H        -2.95048731417688   -2.17899788598384   -3.15386764744800
69
 energy: -142.815807359536 gnorm: 0.001461654420 xtb: 6.4.1 (a3dbbd7)
C        -1.19458201641213    1.78994940882302   -3.73946418785449
C         0.15201652754444    2.09615253209202   -3.78518738782832
C         0.95894384361135    0.90392894938395   -4.27248421462754
C        -1.33247813901456    0.38969200889628   -3.95515796573553
C        -0.08308511941022   -0.18037755578534   -4.22223404028252
C        -2.24353032753154   -0.15336060070402   -2.99538106943292
C        -2.14285626215257    2.23215896307940   -2.68079900750095
C        -2.66807696068283    0.87262442258974   -2.19201957067941
C        -1.42477830562741    2.95058981013350   -1.55649149351424
C         0.76209771521280    2.67102507555951   -2.66231847124537
C        -0.02269532506520    3.23200272191540   -1.60386716536962
C         1.94321886771493    0.72845919532054   -3.12910401380243
C         1.90756623073143    1.86627881453816   -2.31726622151653
C         2.28083148174782   -0.52181026156163   -2.58426554336876
C         0.19762570598008   -1.38658568930851   -3.61127539324337
C         1.47919027591692   -1.63040619995804   -2.99016515430226
C        -2.19746870844538   -1.59920753218578   -2.59412521282926
C        -0.80299639402670   -2.12980205903112   -2.92239104161126
C        -2.50381465700348   -1.75564017049617   -1.09656004489870
C        -3.08149386949856    0.67389622936187   -0.84650557333104
C        -3.06110403313362   -0.68011257601410   -0.31786915001039
C        -2.04830209001831    2.87193206191460   -0.32665435862550
C        -2.94856817053235    1.76827633189516    0.01388503846259
C        -1.38663216841566    3.27067550880396    0.87838512888801
C         0.66391200051634    3.45467021327637   -0.39984739595411
C        -0.02833838511727    3.57137607927725    0.83843778453107
C         2.46596910507510    1.87373852005737   -1.01053842889800
C         1.93939065360794    2.82986387868933   -0.12899294088276
C         2.91586848485688   -0.55948117370652   -1.27546021441123
C         3.06214439615933    0.66116847718560   -0.50775234861649
C         2.90437299294590   -1.77928888565859   -0.57083919583213
C         1.28092403554612   -2.72338897171981   -2.10938607721651
C        -0.13732585821580   -3.02693420688788   -2.07060855980262
C         2.04021381337962   -2.85709722010260   -0.96673430087489
C        -1.92465285091153   -2.82603064675514   -0.41990542873577
C        -0.70767255486231   -3.47145894305715   -0.88748450650277
C        -1.89217808482481   -2.90055136044534    1.00963105587045
C        -3.10455901975834   -0.81121280094274    1.08563656924668
C        -2.50462217479519   -1.91874192669401    1.75998247265023
C        -2.87032489463034    1.59141239829677    1.42506652619564
C        -1.91670109289769    2.51989688976163    1.97652926053240
C        -2.98736787170170    0.32169480292742    1.96344713723709
C        -1.09938997693381    2.12871384452267    3.03021254111207
C         0.83019929037352    3.12180135842030    1.90080954183027
C         2.04949027585986    2.66524004107848    1.28214522500229
C         0.31010980154210    2.43630165591586    2.98699452149861
C         3.24520276785360    0.57235536627344    0.88998883639478
C         2.71685575639670    1.56139206642465    1.78437766388737
C         3.00286936059098   -1.84128437966872    0.85718830482319
C         3.18953911287821   -0.68216369424458    1.58008321719475
C         1.48550956198111   -3.46822308466946    0.21218439256319
C         0.11616960828378   -3.75882617320855    0.24596177975265
C        -0.63345569901040   -3.45789813154098    1.43330710800554
C         2.11090470886976   -2.86605270877884    1.34996499220681
C        -0.00812234655687   -2.95263216685117    2.56514153898857
C         1.40020739582044   -2.65014571312786    2.52572320517419
C        -1.90337438168374   -1.45499030675650    2.98456222287626
C        -2.20553751985900   -0.05523832734525    3.10816141741278
C        -1.25150599083419    0.82466810634720    3.61502282606159
C        -0.65837279047103   -1.94029120057293    3.36058084782088
C         1.02551129655680    1.31546676024486    3.54270785304662
C         2.22368364810402    0.90331953628690    2.96984623514364
C         2.52187961901305   -0.49459558469510    2.84464514484057
C         1.61466394062103   -1.44831324368254    3.29006576340845
C         0.05890430216174    0.32948913246774    3.95667885984633
C         0.34890137185918   -1.02450414493584    3.83336895682479
H         1.45650223013929    1.02131614418762   -5.23669370225194
H        -2.96349251276288    2.86032459185048   -3.04608414727586
H        -2.94969490152588   -2.18018717928516   -3.15276722775436
69
 energy: -142.815810269054 gnorm: 0.000708399878 xtb: 6.4.1 (a3dbbd7)
C        -1.19464912823273    1.79030706113056   -3.73955455108295
C         0.15193536745107    2.09639273883469   -3.78557221752395
C         0.95905731133703    0.90420383845110   -4.27311029824434
C        -1.33198167600950    0.39010778598381   -3.95524743972874
C        -0.08262133981551   -0.17995167161275   -4.22295053994385
C        -2.24199329893473   -0.15305859367811   -2.99413621704125
C        -2.14264797827568    2.23242709546828   -2.68075660450741
C        -2.66649251119184    0.87250732538060   -2.19116062963858
C        -1.42509975145008    2.95101719146122   -1.55663815067627
C         0.76193976823935    2.67113602069408   -2.66253105105133
C        -0.02281493520504    3.23205227388681   -1.60410718235306
C         1.94316952851188    0.72844646536620   -3.12951897441173
C         1.90734323564408    1.86614280480769   -2.31756700557610
C         2.28084703157424   -0.52188781841284   -2.58458083652785
C         0.19760847205557   -1.38591693243994   -3.61045547141185
C         1.47952792788673   -1.63045844154582   -2.99016054016426
C        -2.19646900618430   -1.59896604750508   -2.59381088908041
C        -0.80253829296297   -2.12768973322059   -2.92038439732958
C        -2.50224915445577   -1.75485224299279   -1.09576586735696
C        -3.08117390300729    0.67427828876107   -0.84590776988100
C        -3.06055287670985   -0.67988421539549   -0.31724011959408
C        -2.04872034280999    2.87263592004014   -0.32675414118099
C        -2.94881092200942    1.76873394908568    0.01394963344744
C        -1.38693798219133    3.27102034480287    0.87835639870022
C         0.66367638646023    3.45462058018968   -0.40003520878452
C        -0.02854952508587    3.57141260621917    0.83822559716089