72
 energy: -144.382857257761 gnorm: 0.154258609104 xtb: 6.4.1 (a3dbbd7)
C        -1.31248183363320    1.86590693242298   -3.88905513415921
C         0.19371127220646    2.21510862131181   -3.97991450935773
C         0.95712608782425    0.89162548413134   -4.30571044492103
C        -1.33842781877414    0.36754030015369   -3.94543924058707
C        -0.08746170356055   -0.17938833956563   -4.18475462690556
C        -2.19806934708404   -0.16738823461166   -2.98217813865314
C        -1.96727804104294    2.09272512565823   -2.55254888616979
C        -2.65395098338501    0.92998974196326   -2.15838436518628
C        -1.45975122751014    2.96259636860626   -1.57432185028343
C         0.73109770766345    2.62910809899435   -2.64368406640390
C        -0.02540422540904    3.24244969426047   -1.62546902350138
C         1.87727524389820    0.68712670240389   -3.11888239443174
C         1.84251114185571    1.85154662615630   -2.29714975622005
C         2.21368905041416   -0.51764834957634   -2.56681722150454
C         0.19699291944690   -1.40750916803560   -3.63648436596629
C         1.59359072741380   -1.77659748041423   -3.18008847262143
C        -1.96159839352366   -1.43036424117131   -2.41430203488835
C        -0.77394920695305   -2.08161491399248   -2.86246485025005
C        -2.47302346293285   -1.71343263656764   -1.09145265082898
C        -3.07994859946180    0.69966239366615   -0.83525303314538
C        -3.08153649111593   -0.64992133442751   -0.30868273981714
C        -2.06856209251751    2.88013355185434   -0.30771209164927
C        -2.93545042928134    1.79873700824583    0.03493410108319
C        -1.40086963454528    3.29354388835964    0.89987655177203
C         0.64357298587427    3.44617036998555   -0.40406862148342
C        -0.04886736774713    3.58469556818666    0.85160889790441
C         2.40974419255827    1.85691282782870   -1.00631162212312
C         1.89811676389315    2.82654489559334   -0.12662898874910
C         2.82980010320108   -0.56928702867571   -1.26589184557119
C         2.99405645742424    0.64511853142887   -0.50195938929247
C         2.84663027686577   -1.80154442436131   -0.56974667081739
C         1.29849082223489   -2.80445878631874   -2.11930959883085
C        -0.10779200006237   -3.03836342883749   -2.04531603230758
C         2.04986280011193   -2.92102097389937   -0.98617085107563
C        -1.91812781242898   -2.80339463111397   -0.40520298242219
C        -0.69012327754626   -3.43608290852230   -0.84610863365627
C        -1.91038292929017   -2.88647077167336    1.01373754141562
C        -3.12768762418656   -0.78981328809640    1.08963619129552
C        -2.52033594061269   -1.89865556999328    1.76047131954357
C        -2.88321844926001    1.61494348801309    1.45482194217802
C        -1.92846175733603    2.54218159755503    2.00491681613117
C        -3.00249064838644    0.34420743698662    1.97450330513879
C        -1.10785788516961    2.14167394627602    3.05073075125268
C         0.81345003576768    3.13455718085737    1.91094556916998
C         2.02562208258456    2.67189880446127    1.29110196709081
C         0.30038948976391    2.44748103511954    3.00491625738349
C         3.20666022887377    0.56910574956636    0.88913558720232
C         2.69482842251066    1.57129049273726    1.78879932060308
C         2.94224277640517   -1.84662644142595    0.85133414278603
C         3.15235626357223   -0.67760817716227    1.57609988370863
C         1.59500730510343   -3.72912115453356    0.21857291182525
C         0.08903598357395   -3.78431410358183    0.26968642804786
C        -0.64379422089362   -3.45108586241382    1.43328934161634
C         2.10651235520603   -2.88267454507631    1.36466604748411
C        -0.03032467091289   -2.96154535007131    2.58496710227345
C         1.39001148914461   -2.64593228923046    2.51641083901790
C        -1.92025864119675   -1.44305168347016    2.98686330225601
C        -2.21367277249739   -0.04645255867753    3.11646638018543
C        -1.26081012904010    0.83089572040300    3.62820012717545
C        -0.66979767937233   -1.94150474152061    3.35822022892189
C         1.01589603699393    1.32385909618756    3.55177208199214
C         2.21373147677856    0.91321605057701    2.97721624447759
C         2.50774546919259   -0.48706669846032    2.84196796306499
C         1.59898962964089   -1.44212446092508    3.27990811816538
C         0.04964013124870    0.33281950295310    3.96153179370424
C         0.33806515888512   -1.02018955275679    3.82667358794551
H        -1.87882867804055    2.35441951791604   -4.68603648324942
H         0.36843398916088    2.99262766552824   -4.72624252980003
H         1.49298476374615    0.90917086860612   -5.25611939550641
H         2.22925838154802   -2.16866800360614   -3.98082018597342
H         2.03623518734496   -4.73521435545150    0.22499797040982
H        -2.58577890786157   -3.73829157855993    1.18178986982760
72
 energy: -144.406835598733 gnorm: 0.080609480137 xtb: 6.4.1 (a3dbbd7)
C        -1.31270741981036    1.86651857947985   -3.88831395950552
C         0.19345913269504    2.21500133053895   -3.97937899628548
C         0.95719301971395    0.89175690272984   -4.30604742105672
C        -1.33962782266317    0.36780076857774   -3.94824292916647
C        -0.08616445998571   -0.18009671751815   -4.18553871214010
C        -2.19560634687685   -0.16420636626413   -2.98486239184981
C        -1.96783081329105    2.09606642200970   -2.55283969565709
C        -2.65016075186934    0.93145361991915   -2.15754644221575
C        -1.45943081159246    2.96532327904201   -1.57464683239622
C         0.73119411226973    2.62942346523706   -2.64351755117463
C        -0.02444519319588    3.24395056533273   -1.62588406309050
C         1.87750858238697    0.68701350378358   -3.11915363990453
C         1.84263988145160    1.85145560775104   -2.29700644965520
C         2.21405973217448   -0.51717981374992   -2.56619145745547
C         0.19895584407887   -1.40687559286721   -3.63936608015667
C         1.59454460170425   -1.77591412886066   -3.17883429164005
C        -1.96000490201486   -1.43012629756974   -2.41938577364029
C        -0.77376612653917   -2.08578457674586   -2.86810966354941
C        -2.46106590147269   -1.70461580166437   -1.09657814491688
C        -3.07669727776397    0.70295972845073   -0.83306877582037
C        -3.07690497854900   -0.64350296589246   -0.30391510414519
C        -2.06891246653736    2.88624282208508   -0.30808174768635
C        -2.93587546322725    1.80502173995934    0.03593205238204
C        -1.40080342229848    3.29854631742271    0.89885392275083
C         0.64446878071360    3.44802249862042   -0.40441322490016
C        -0.04831039833215    3.58528094203600    0.85077233813790
C         2.40943090145169    1.85737859887077   -1.00641531363825
C         1.89827365142499    2.82731027653703   -0.12674066863082
C         2.83113995609966   -0.56858769938064   -1.26580169169422
C         2.99558413174044    0.64642234245747   -0.50164597245479
C         2.84753814212672   -1.80035320568643   -0.57060727867415
C         1.29865779277339   -2.80317091611006   -2.11745398303894
C        -0.11039764663160   -3.04314851504478   -2.05611235519785
C         2.04877806169832   -2.92120029682388   -0.98642832434867
C        -1.90584616599507   -2.79566226489879   -0.42085736101281
C        -0.68584177092767   -3.42235308014040   -0.84957535648165
C        -1.97360542586706   -2.96859336207072    1.03054606073730
C        -3.12448445268800   -0.77591601763420    1.09661653202105
C        -2.53813258810684   -1.88361280919687    1.78408024661350
C        -2.88685906742231    1.62662903900582    1.45613449103551
C        -1.92973961681143    2.54876307152770    2.00484399369635
C        -3.00848910900407    0.35790090151296    1.97988953802798
C        -1.10880211472796    2.14383867781604    3.04973771367531
C         0.81367568549370    3.13328499203661    1.91071832183409
C         2.02663584135327    2.67220838541455    1.29086788519773
C         0.30054202689668    2.44598156550005    3.00376217748830
C         3.21206491650358    0.57262727880641    0.88737718305635
C         2.69728037212489    1.57248290083922    1.78752215083236
C         2.94819999393460   -1.84424111028626    0.84902956295675
C         3.15520289291342   -0.67501937286744    1.57338648888054
C         1.60595523868953   -3.73793500752729    0.22185145214719
C         0.09972416890923   -3.77063249232142    0.27464036201708
C        -0.62302145711696   -3.44794653526678    1.42886072413145
C         2.11158739498343   -2.88071033550794    1.36465257773085
C        -0.02154943049373   -2.95480045112855    2.58754043205424
C         1.40041475030211   -2.64060024478640    2.51684485667169
C        -1.92639482159786   -1.43744643091326    2.98308813620273
C        -2.21954779773898   -0.03610845021632    3.11880357755028
C        -1.26348955812288    0.83416031874976    3.62569031275384
C        -0.66595314202936   -1.94702096248358    3.35611554057026
C         1.01654329652829    1.32246119782890    3.55098347923036
C         2.21693134866228    0.91380070793869    2.97660984208905
C         2.51314129093940   -0.48409281117611    2.84096884319923
C         1.60568140852424   -1.44005129391904    3.27989414210987
C         0.05130113600582    0.33133029497818    3.95692919513048
C         0.34103433164776   -1.02037247038001    3.82085344485852
H        -1.87878579091281    2.35573894973186   -4.68504136517609
H         0.36812880807222    2.99270021257890   -4.72564031134646
H         1.49276853429552    0.91026752841904   -5.25664726392866
H         2.23075609945618   -2.16846732359748   -3.97887783730641
H         2.05045060525326   -4.74285651784147    0.22993046259159
H        -2.65520162641836   -3.83076027700986    1.18852714631609
72
 energy: -144.416219919051 gnorm: 0.019863927368 xtb: 6.4.1 (a3dbbd7)
C        -1.31219690503882    1.86732819555894   -3.88782550465634
C         0.19375000621537    2.21576248893868   -3.97889616521109
C         0.95744693274269    0.89268738261161   -4.30585106588953
C        -1.34018828640325    0.36818432612219   -3.94985699036274
C        -0.08452947105767   -0.18052862639246   -4.18674904596960
C        -2.18947277624753   -0.16119860871407   -2.98305237725317
C        -1.96676992248607    2.09774737624449   -2.55200804029117
C        -2.64537794645863    0.93274359954087   -2.15439399660911
C        -1.45881916596671    2.96931734317264   -1.57472911511366
C         0.73122110008086    2.62993511059815   -2.64310364260768
C        -0.02321243732913    3.24584458315983   -1.62617102440626
C         1.87834120230586    0.68817583625577   -3.11950436359647
C         1.84386763566230    1.85248667123903   -2.29717465809330
C         2.21608454084581   -0.51553423871106   -2.56641380593724
C         0.20147783383339   -1.40601665435460   -3.64336878859697
C         1.59681430843637   -1.77434762351043   -3.17764463276759
C        -1.95195525287809   -1.42758657721125   -2.41482384473376
C        -0.77176329960392   -2.08668985518600   -2.87057225833720
C        -2.45166883544321   -1.70406815482903   -1.09374241601127
C        -3.07303094288992    0.70438482949794   -0.82924513892111
C        -3.07886329431906   -0.64043424241680   -0.29925374583229
C        -2.06864025544282    2.89333091918486   -0.30893449678655
C        -2.93686460216047    1.81148449494095    0.03632609255474
C        -1.40000950653592    3.30529084944116    0.89737779996966
C         0.64628004617892    3.45029277091290   -0.40474186706963
C        -0.04685803505418    3.58775659394203    0.84957899970002
C         2.41084026138896    1.85918941458560   -1.00745017478549
C         1.89958873623675    2.82894694042989   -0.12757106536639
C         2.83433689932430   -0.56637145821199   -1.26626727746415
C         2.99841736250617    0.64873461100094   -0.50170933699221
C         2.85252125733947   -1.79747676377587   -0.57168759873963
C         1.30111971555005   -2.80137027183449   -2.11490338054033
C        -0.11354379662294   -3.04523736060538   -2.06109276387536
C         2.05169972077092   -2.91869474658897   -0.98911126942876
C        -1.90035083182037   -2.79207062359127   -0.42694189092742
C        -0.69168328845155   -3.40547274506288   -0.85213379632512
C        -2.05146840040532   -3.07589634322566    1.05039970904745
C        -3.11379325550792   -0.77389474653295    1.09783717577639
C        -2.53383455465182   -1.87667838357408    1.79377782239699
C        -2.88711657442581    1.63489137626954    1.45476516628929
C        -1.93055058069637    2.55558869664635    2.00364333268509
C        -3.00506996804034    0.36368263738324    1.97778138854973
C        -1.10864440197363    2.14680054462482    3.04749209948264
C         0.81475850947753    3.13384455859326    1.90975262165089
C         2.02855405184901    2.67341259052789    1.28999307834087
C         0.30154756962076    2.44600049540986    3.00113825697656
C         3.21833538187709    0.57674741442119    0.88601873687196
C         2.70111515041049    1.57570430301294    1.78662083747042
C         2.95803417155430   -1.84089210497580    0.84749290386179
C         3.16074997645110   -0.67090013845274    1.57146174672099
C         1.60281137045190   -3.72709633941960    0.22479863923885
C         0.09937300541123   -3.74523287110837    0.28660237976423
C        -0.61630716191803   -3.44983411883645    1.42714918851534
C         2.11743189158883   -2.87509508708508    1.36622758737919
C        -0.02028622886029   -2.95041318545828    2.58980957645464
C         1.40628085129815   -2.63286155982867    2.51545417137220
C        -1.92546449439355   -1.44006836917308    2.96503621819218
C        -2.21714735586920   -0.03038362014126    3.11291645262690
C        -1.26344475967596    0.83580998655847    3.61766688013916
C        -0.66019486285354   -1.95681309091537    3.35641439080901
C         1.01798088096727    1.32204571954974    3.54866954457397
C         2.22244932630685    0.91688237231765    2.97631818905337
C         2.51890645519868   -0.47892527969279    2.83990599832426
C         1.61132288568697   -1.43569344615743    3.27849503743643
C         0.05569144859111    0.33084796107710    3.95279303346015
C         0.34351665645602   -1.01961838152723    3.81533245120049
H        -1.87837931005684    2.35749383459230   -4.68409274361708
H         0.36844544940064    2.99376908846129   -4.72488096760991
H         1.49268101129738    0.91219100928868   -5.25661885935552
H         2.23327030009884   -2.16918838080860   -3.97661325031130
H         2.03983432149291   -4.73340128367177    0.23383398867157
H        -2.73240713600595   -3.93218882635363    1.20433662057505
72
 energy: -144.416833983168 gnorm: 0.011745661299 xtb: 6.4.1 (a3dbbd7)
C        -1.31133200184995    1.86723244439895   -3.88686899651013
C         0.19440470696960    2.21626821922206   -3.97846322425600
C         0.95842828310590    0.89355151823328   -4.30540143208681
C        -1.33890937536547    0.36799354402575   -3.94777588092568
C        -0.08333978675922   -0.18018667325979   -4.18579395817835
C        -2.18669764894996   -0.16165038055022   -2.97917590004670
C        -1.96521798903757    2.09760806348761   -2.55074206867113
C        -2.64348234569260    0.93304224301781   -2.15230846084962
C        -1.45796672622263    2.97151576273411   -1.57473513586929
C         0.73226756119478    2.63142559977781   -2.64320109918520
C        -0.02219724267105    3.24770666570524   -1.62655482485604
C         1.87975618454823    0.68997657612930   -3.11943421125939
C         1.84581602878710    1.85479931049026   -2.29771249009990
C         2.21805889767811   -0.51359087522566   -2.56646796997114
C         0.20243300761809   -1.40567521734908   -3.64242480397792
C         1.59828136212202   -1.77307809187362   -3.17682984128518
C        -1.94960432739436   -1.42750377339035   -2.40928189304280
C        -0.77100606647048   -2.08486626275071   -2.86792875364661
C        -2.45859163849885   -1.71234999290418   -1.09079444433626
C        -3.07193186529756    0.70371892278100   -0.82816059454723
C        -3.08174741650792   -0.64223111877977   -0.29925886600315
C        -2.06806203581711    2.89500359802376   -0.30958874708051
C        -2.93637156013743    1.81202265838254    0.03566209578342
C        -1.39933772412280    3.30691195545365    0.89672585100311
C         0.64765529418016    3.45220405409232   -0.40519632552623
C        -0.04588145796605    3.58968295498422    0.84893438006291
C         2.41385760571909    1.86235170927305   -1.00851716478652
C         1.90151861701826    2.83158725889954   -0.12849050346926
C         2.83830084923686   -0.56318452905078   -1.26685207895731
C         3.00286242321312    0.65223600227070   -0.50281982573135
C         2.85626275164400   -1.79389911974820   -0.57164411420511
C         1.30086898122242   -2.79795429632962   -2.11239950700251
C        -0.11422200398538   -3.04275510734416   -2.05563887735945
C         2.05099511080285   -2.91292568679570   -0.98757349353111
C        -1.91434649400093   -2.80483906103037   -0.42363632623170
C        -0.69880820122194   -3.40691202333107   -0.85158209687580
C        -2.06151816761250   -3.09186536389596    1.05179352949241
C        -3.11509732369523   -0.78048411748468    1.09571578160802
C        -2.53208409859009   -1.88536883750034    1.78893098781589
C        -2.88556308289874    1.63336429144017    1.45314250867039
C        -1.92984403846031    2.55557999907001    2.00220348820062
C        -3.00182612947920    0.35981881135108    1.97380652102991
C        -1.10713645982521    2.14666239525016    3.04526627946490
C         0.81612735028616    3.13559806000426    1.90864326971945
C         2.03056593881124    2.67577430047350    1.28903195083019
C         0.30292340698819    2.44661126409549    2.99913772960411
C         3.22239094585645    0.57976279551995    0.88539712999741
C         2.70427052681675    1.57891287683666    1.78608900967241
C         2.96099048398434   -1.83780935644314    0.84712073482354
C         3.16473246738983   -0.66780245428831    1.57088484999431
C         1.59578850678451   -3.71799064472487    0.22502137395360
C         0.09265221218086   -3.74208759991364    0.29031040685622
C        -0.62799944861633   -3.46154371762137    1.43187986356986
C         2.11655959436568   -2.87010854715770    1.36480250250788
C        -0.02404133899765   -2.95498598335747    2.59112658753092
C         1.40327586635453   -2.63076293483146    2.51232600519709
C        -1.92426980984442   -1.44577166904268    2.95966864268364
C        -2.21273917313450   -0.03306874677123    3.10696744844745
C        -1.26097361469350    0.83438867883855    3.61230766232288
C        -0.65899585352295   -1.96015614831561    3.35839723248458
C         1.01966524724205    1.32241708042360    3.54597435995482
C         2.22553714617117    0.91909376965110    2.97515584211154
C         2.52089426066711   -0.47694501482231    2.83863077533483
C         1.61177377283407   -1.43400376062111    3.27575551843397
C         0.05834133508268    0.33089498385944    3.95000973864952
C         0.34444896748539   -1.01944244308731    3.81352609407285
H        -1.87784884770455    2.35775472093423   -4.68264281557183
H         0.36848447991153    2.99424562623997   -4.72457578880683
H         1.49347550805952    0.91333654984499   -5.25632725855546
H         2.23547435647050   -2.16968571872185   -3.97450990096570
H         2.02785168217455   -4.72646008032615    0.23394297535208
H        -2.74201009857289   -3.94394709839824    1.21110730276454
72
 energy: -144.417063244827 gnorm: 0.003373218108 xtb: 6.4.1 (a3dbbd7)
C        -1.31126354243221    1.86660150799826   -3.88632985809314
C         0.19440036352155    2.21594845076324   -3.97822268971337
C         0.95906071247652    0.89386844508112   -4.30536059012060
C        -1.33807616281497    0.36743977355560   -3.94644078651143
C        -0.08257244812412   -0.18008531662112   -4.18588850523472
C        -2.18457359868117   -0.16214711761069   -2.97626296332401
C        -1.96487457011645    2.09743407066486   -2.55015454177070
C        -2.64302013968814    0.93372838071355   -2.15135454023379
C        -1.45813026239876    2.97310062800431   -1.57475100670812
C         0.73231396086898    2.63131911774932   -2.64302899324828
C        -0.02210325529409    3.24801266326609   -1.62665653444263
C         1.88028897331776    0.69035320848593   -3.11942045759616
C         1.84664188242909    1.85538530730832   -2.29789371122624
C         2.21952353963800   -0.51327573449394   -2.56720071852264
C         0.20344372131892   -1.40590571569302   -3.64345088264715
C         1.59955926615228   -1.77306410339311   -3.17805405304411
C        -1.94642276230925   -1.42688812814699   -2.40512462626190
C        -0.76974514686667   -2.08260755094123   -2.86658243563455
C        -2.46103609961650   -1.71646159088373   -1.08763658731662
C        -3.07315807336157    0.70436787953732   -0.82813697568143
C        -3.08402052140794   -0.64149483477128   -0.29998230005517
C        -2.06846850815304    2.89642052009208   -0.31018097255595
C        -2.93748237161775    1.81290398284637    0.03501813151601
C        -1.39955695917749    3.30742922851945    0.89646017891271
C         0.64791058778015    3.45223472840971   -0.40512060706164
C        -0.04581295907684    3.59005336567329    0.84886798526870
C         2.41532841463278    1.86343860619034   -1.00903464438061
C         1.90204007326951    2.83207864000528   -0.12874567683306
C         2.84116547455825   -0.56175128661045   -1.26755877822038
C         3.00557360819650    0.65366523447250   -0.50350031257192
C         2.86027409487634   -1.79195893891292   -0.57143568156982
C         1.30173162291903   -2.79571839504688   -2.11181694801305
C        -0.11336978405714   -3.03916768299900   -2.05027737908229
C         2.05059939903537   -2.90803616079111   -0.98711015144501
C        -1.92457667787377   -2.81228567728687   -0.41974121513413
C        -0.70330613733778   -3.40553842019179   -0.85154596362036
C        -2.06884605145011   -3.10304146388945    1.05306353554737
C        -3.11475737698190   -0.78474106187469    1.09302354946998
C        -2.52637138505603   -1.89098055885937    1.78236624256387
C        -2.88500587951476    1.63219870966438    1.45189134738442
C        -1.92978543749273    2.55483206254920    2.00141310935725
C        -2.99839194593878    0.35692726420967    1.97030901053043
C        -1.10641031345734    2.14588210232429    3.04404840714687
C         0.81648261808866    3.13596738612308    1.90835644983619
C         2.03121779392362    2.67604987100384    1.28871858865909
C         0.30350708117372    2.44640657662318    2.99841691693310
C         3.22489187478546    0.58085982083961    0.88531437362648
C         2.70604853432972    1.58021767063120    1.78632900460164
C         2.96390962333120   -1.83613094062156    0.84712941568634
C         3.16785172604639   -0.66618612616340    1.57111345180835
C         1.59093588312281   -3.70876228148665    0.22493140719200
C         0.08842722398565   -3.73417832793574    0.29345760652112
C        -0.63775393420260   -3.46841256540246    1.43531440021448
C         2.11647082226315   -2.86622960481856    1.36441460799087
C        -0.02583663092827   -2.95642963616662    2.59156535308024
C         1.40168378477992   -2.62974515955761    2.51047614839207
C        -1.92181090717080   -1.45018642471228    2.95328590276459
C        -2.20818260338899   -0.03511549256022    3.10118981448314
C        -1.25928447893787    0.83298718546506    3.60892603819845
C        -0.65713783427170   -1.96235869939416    3.36123339695645
C         1.02060595016088    1.32210317628078    3.54491571569327
C         2.22758691256788    0.91995622823776    2.97519526115977
C         2.52228927268810   -0.47626916598090    2.83858469269564
C         1.61199633325352   -1.43307860809034    3.27455376551012
C         0.06040935546143    0.33083527785270    3.94929271505389
C         0.34545142793355   -1.01931277439841    3.81377977390951
H        -1.87780023650810    2.35731735714091   -4.68187533182246
H         0.36805544276045    2.99413026573612   -4.72423336328203
H         1.49434282098740    0.91399554408834   -5.25618255367970
H         2.23755458027941   -2.17104656799811   -3.97436753704768
H         2.01615594687512   -4.72071659231420    0.23315796230999
H        -2.74979538072304   -3.94997871331082    1.21863336847252
72
 energy: -144.417077992777 gnorm: 0.001642916837 xtb: 6.4.1 (a3dbbd7)
C        -1.31122603539420    1.86631782641169   -3.88641415122369
C         0.19442008550796    2.21591272416975   -3.97823126876052
C         0.95898977790912    0.89381738615054   -4.30537527927302
C        -1.33793837578362    0.36718399702308   -3.94629394308810
C        -0.08252555847700   -0.18020509117622   -4.18595191729911
C        -2.18460793416413   -0.16243092897521   -2.97623729334457
C        -1.96513809275640    2.09720644292694   -2.55036197394384
C        -2.64342713822420    0.93378533686692   -2.15169276893801
C        -1.45850047378941    2.97294959364655   -1.57471373204795
C         0.73205533301164    2.63105447788201   -2.64287235578025
C        -0.02245254865735    3.24764159102391   -1.62655933989562
C         1.88003267429746    0.69014650144570   -3.11928488669562
C         1.84640561881709    1.85516177691572   -2.29775039370877
C         2.21952631677913   -0.51354596892386   -2.56740596113741
C         0.20369870855767   -1.40631345694435   -3.64395448023766
C         1.59983462376171   -1.77348225328897   -3.17865932451613
C        -1.94591961659255   -1.42697716822971   -2.40520448304732
C        -0.76947599590384   -2.08245511866439   -2.86688217709465
C        -2.46023634558067   -1.71608628508803   -1.08736535635263
C        -3.07397772442887    0.70465625734351   -0.82850543508545
C        -3.08416163018338   -0.64081993643082   -0.30040155131257
C        -2.06885817681011    2.89637846535290   -0.31022130682619
C        -2.93816103124269    1.81298209172138    0.03496058171101
C        -1.39986256429548    3.30708318888242    0.89652654539918
C         0.64753460319869    3.45177896697283   -0.40496222754836
C        -0.04614140398436    3.58969201845494    0.84903104481464
C         2.41498193426073    1.86314098201586   -1.00889905086489
C         1.90160598398145    2.83168093448872   -0.12859636976287
C         2.84107853225306   -0.56192958278561   -1.26762198598771
C         3.00528693164280    0.65338232311880   -0.50348979053239
C         2.86070956704083   -1.79217817866780   -0.57134128844549
C         1.30215732904174   -2.79604971532726   -2.11240495525204
C        -0.11286722991064   -3.03874198936470   -2.04971536388035
C         2.05043140365353   -2.90768718220882   -0.98711731001220
C        -1.92475883890834   -2.81159951593933   -0.41921804405741
C        -0.70321058000679   -3.40501185562186   -0.85187287515425
C        -2.06910544565604   -3.10288389681176    1.05324215308486
C        -3.11390522071615   -0.78433334554082    1.09253870135950
C        -2.52358292189165   -1.89028555447177    1.78068679291314
C        -2.88539571050454    1.63219081522126    1.45187770010352
C        -1.92996262590294    2.55443542841596    2.00147850969508
C        -2.99802188675753    0.35690297755657    1.97025240524313
C        -1.10656223550674    2.14557969703230    3.04421366029046
C         0.81614657278218    3.13570553319863    1.90853049872171
C         2.03079700882838    2.67558954339352    1.28883512865717
C         0.30331906333473    2.44618464205841    2.99867559524563
C         3.22457543006998    0.58052947510107    0.88540110201661
C         2.70571759452721    1.57993676835627    1.78651342866648
C         2.96426451392593   -1.83633271343303    0.84715799020442
C         3.16791144048854   -0.66632170887397    1.57125938870858
C         1.59049730093860   -3.70792520833204    0.22477301572622
C         0.08826441711542   -3.73210800594158    0.29349392197180
C        -0.63821301401907   -3.46739298219261    1.43503467070685
C         2.11668450763454   -2.86615169782325    1.36438358233084
C        -0.02515192286847   -2.95555238064700    2.59106521733593
C         1.40204795881324   -2.63005018697244    2.51057898857200
C        -1.92074494319506   -1.45013286036358    2.95201611217551
C        -2.20758763329408   -0.03513946782142    3.10070761910029
C        -1.25928736587094    0.83282035414432    3.60936307241995
C        -0.65647373755985   -1.96232117279488    3.36185554109568
C         1.02053135710238    1.32192396432531    3.54530080798112
C         2.22752727441091    0.91973222905208    2.97549928843148
C         2.52239237431709   -0.47652998042072    2.83895125022934
C         1.61229172771951   -1.43328668439199    3.27500947165518
C         0.06063176802077    0.33074634521430    3.94989911934816
C         0.34584624154157   -1.01946041863593    3.81450666875498
H        -1.87764327952261    2.35689784185762   -4.68212009559834
H         0.36808604102846    2.99427244352171   -4.72407552398925
H         1.49455790858698    0.91392746591206   -5.25602513874445
H         2.23811170914439   -2.17106969772478   -3.97485553621907
H         2.01393905852056   -4.72077233250666    0.23259352051116
H        -2.75081512684587   -3.94860106566096    1.22052859621663
72
 energy: -144.417081341953 gnorm: 0.000678963380 xtb: 6.4.1 (a3dbbd7)
C        -1.31126786277654    1.86616889847138   -3.88653770780577
C         0.19437628138147    2.21583059052445   -3.97828039879159
C         0.95894685830708    0.89376091211961   -4.30540503422788
C        -1.33774986585431    0.36706342298657   -3.94612898548743
C        -0.08253427722115   -0.18022707036992   -4.18595601279440
C        -2.18489936817871   -0.16264166611502   -2.97645855481823
C        -1.96549632295388    2.09707123548760   -2.55062015608626
C        -2.64392460885530    0.93385068807582   -2.15215070453990