72
 energy: -144.362262084541 gnorm: 0.156031698379 xtb: 6.4.1 (a3dbbd7)
C        -1.31012209482516    1.85775794809045   -3.89106175207434
C         0.19668457505449    2.20521906696480   -3.97916812371716
C         0.95827380262674    0.88170575851223   -4.30697618230458
C        -1.33731751864456    0.35969387540885   -3.94836527961132
C        -0.08848950722344   -0.18759044105259   -4.19350116441973
C        -2.20037188648266   -0.17465295849405   -2.99063254930857
C        -1.96827184950905    2.08487276233509   -2.55690904454007
C        -2.65711365895295    0.92124762895195   -2.16567442222935
C        -1.46193322951118    2.95314498515455   -1.57776916877098
C         0.73314402467734    2.61566253712488   -2.64218833883649
C        -0.02530229831898    3.22610693118386   -1.62377586364289
C         1.87565579808632    0.67036466954002   -3.11824306438709
C         1.84586384552264    1.83716146211200   -2.29543431043175
C         2.21583488103592   -0.53582718305648   -2.57695519766508
C         0.19429339427348   -1.41862129427846   -3.64999232535085
C         1.59319381641221   -1.79401661187448   -3.19916684227159
C        -1.96305894280688   -1.44046020202449   -2.42321254726670
C        -0.78076919418677   -2.08682207397186   -2.87799414560222
C        -2.47488747770981   -1.72880150220628   -1.10130045387900
C        -3.08272379322866    0.68794009087431   -0.84402754834712
C        -3.08096548409767   -0.66398431933081   -0.31879345981778
C        -2.07678186449107    2.87289453953856   -0.31422468538135
C        -2.94125969987852    1.78802784534505    0.02638106613245
C        -1.41189007110952    3.28435385016238    0.89486909543769
C         0.63982306946992    3.42269619132070   -0.39967729547591
C        -0.05496621970056    3.56041841694337    0.85100397041971
C         2.41544383413041    1.84248123968321   -1.00973443650521
C         1.89894699178979    2.80755009841084   -0.11870444595895
C         2.84961792044875   -0.58582400767680   -1.27627751893085
C         3.00679320422264    0.63286176495308   -0.51099773551226
C         2.89897457816110   -1.80828023304369   -0.58199754772764
C         1.28930419651968   -2.80908423053987   -2.13160089545769
C        -0.11347628570051   -3.03844828280268   -2.04734483915814
C         2.02846505813707   -2.90927885516744   -0.98433319472883
C        -1.92071423191413   -2.82570656233593   -0.41714958114159
C        -0.70916104123548   -3.46320015442908   -0.87463005642264
C        -1.91118239470876   -2.90712899536179    1.00810688174358
C        -3.12808465509629   -0.80439432404836    1.07907950344876
C        -2.52189635685246   -1.91463355208544    1.74996284299409
C        -2.88286727828493    1.60299537766515    1.44497167839918
C        -1.93107002656987    2.53129251560583    1.99399039156224
C        -2.99931804092111    0.33005884051237    1.96261823895162
C        -1.09009766105401    2.12636064892302    3.03141649509161
C         0.80233016805400    3.11639731517391    1.91510182821523
C         2.02978962164683    2.66316496075108    1.29060004218386
C         0.29548930604944    2.45783450803064    3.01469381858561
C         3.21075043705845    0.55089859962282    0.87805332364929
C         2.67393479521433    1.54200925669146    1.79185811931631
C         2.98792365735248   -1.85604762250360    0.83586992366548
C         3.16682916252486   -0.68844334950899    1.56151028259979
C         1.46506210809200   -3.48096283919827    0.20790558121975
C         0.10205714003814   -3.78145842034719    0.25918386871523
C        -0.65169372124692   -3.46797704073472    1.44046302572780
C         2.09945755417453   -2.87698394273624    1.34108932736774
C        -0.02233315241273   -2.94663924796053    2.56095888779071
C         1.38900325535103   -2.64295217187051    2.51717529431391
C        -1.91823630997958   -1.45005365820974    2.97242567232062
C        -2.21231734619060   -0.05790376877336    3.10212477030144
C        -1.23876220727308    0.81266372831374    3.60232466733328
C        -0.66857664021979   -1.93035602478844    3.34734705211892
C         1.08836660524084    1.42079542286493    3.79387537343829
C         2.23397955356272    0.89875224568428    2.97241490232027
C         2.49957265387715   -0.48428257698584    2.82989270153925
C         1.61032164724935   -1.45583262323166    3.29065574787599
C         0.04550453614568    0.32585006763971    3.97482010765374
C         0.33398832819466   -1.01448318389802    3.82425539109103
H        -1.87411985172138    2.34650145573355   -4.68946477467742
H         0.37277295938018    2.98433261842800   -4.72360021426737
H         1.49832998566956    0.90131109262025   -5.25500364767839
H         2.22704546378721   -2.18573303125015   -4.00060864984849
H         1.43242249458231    1.81515498968667    4.75947851773502
H        -0.19329824718256   -0.45597782779527   -5.25509587930183
72
 energy: -144.389062021611 gnorm: 0.078750273640 xtb: 6.4.1 (a3dbbd7)
C        -1.31495782973182    1.86393226543900   -3.88838079539661
C         0.19417226166674    2.20635784923280   -3.97398510396478
C         0.96210512722021    0.88652723350966   -4.29988736914304
C        -1.36959526160222    0.37020386978245   -3.96139269027141
C        -0.10090151159102   -0.21592130296410   -4.31535956145762
C        -2.19149620212132   -0.16088411326663   -2.97563283354134
C        -1.97162887353989    2.09292725423866   -2.55099583441241
C        -2.66308625121738    0.93173866986899   -2.15790319672581
C        -1.46182919613686    2.95838875135569   -1.57286552170816
C         0.73170099348094    2.61916009712542   -2.63704358437783
C        -0.02530507833476    3.22997457694509   -1.62012154036579
C         1.86999353079758    0.67135817362520   -3.10840346768923
C         1.84230308129891    1.83850776552764   -2.28731708643940
C         2.21227485898103   -0.53528945399065   -2.57189670068046
C         0.19836611404741   -1.44692538468518   -3.64864832647442
C         1.59562744935317   -1.79997096750063   -3.19057720680323
C        -1.96170666134342   -1.43662617511140   -2.41681788637638
C        -0.76872271287224   -2.08551372904197   -2.86594058979663
C        -2.47264757914531   -1.72589545637230   -1.10090267542783
C        -3.08751974560324    0.69295077109221   -0.83980087681002
C        -3.08235431564920   -0.66088231567955   -0.31743607046746
C        -2.07741602486156    2.87553537438428   -0.31005169292425
C        -2.94464357788433    1.79173012802730    0.03039722236816
C        -1.41294547380431    3.28653213969404    0.89855747471165
C         0.64008144087528    3.42402336324780   -0.39571292297303
C        -0.05439750708976    3.56046676662924    0.85313873523680
C         2.41519617010915    1.84320387777774   -1.00565184580572
C         1.90105612468519    2.80947115294435   -0.11387921012090
C         2.84931290806000   -0.58680815389292   -1.27295075888812
C         3.00717426971926    0.63317893062848   -0.50968403020059
C         2.90216806165829   -1.80943215217751   -0.57956664956565
C         1.29623083296610   -2.81949798882957   -2.12557091170166
C        -0.10559185861664   -3.04493942063846   -2.03892140111400
C         2.03385303938899   -2.91328987848706   -0.97813821628034
C        -1.91966373309146   -2.82674593936236   -0.41552185295287
C        -0.70512752241348   -3.46536158402190   -0.86805173608870
C        -1.91037926371630   -2.90685745058385    1.00821146464054
C        -3.12907286247290   -0.80240248177078    1.07849676166204
C        -2.52183625299473   -1.91388114722579    1.75029034731440
C        -2.88518944590848    1.60480499990829    1.44735272852918
C        -1.93168308450877    2.53329228281000    1.99563007093436
C        -3.00146427508466    0.33156529411790    1.96288868965026
C        -1.08896666966381    2.12556692984988    3.03057770640031
C         0.80379687101704    3.11391333436347    1.91566631563349
C         2.03466338795017    2.66667648971302    1.29291959690695
C         0.29709657894352    2.45579095423451    3.01478105149437
C         3.21001865708313    0.55079697137468    0.87878397633127
C         2.67322675928561    1.54152471172566    1.79398448779899
C         2.98920255926819   -1.85651840873108    0.83809567216884
C         3.16571610125831   -0.68830927515166    1.56219589037474
C         1.46860916462729   -3.48338650853380    0.21402535730832
C         0.10411705506402   -3.78562086767026    0.26445129392803
C        -0.65104016012162   -3.46882039153035    1.44232548223255
C         2.10267056764535   -2.87885481524870    1.34441717499990
C        -0.02239395982765   -2.94509168176282    2.56209542547207
C         1.39088444344433   -2.64150314342522    2.52019020660960
C        -1.91986038624111   -1.45042056562160    2.97213148018721
C        -2.21309221169564   -0.05834052267264    3.10094081061150
C        -1.23800118168839    0.81166216843607    3.60000284368464
C        -0.66910567411827   -1.93144984916874    3.34837931423047
C         1.09011142185942    1.42138004420285    3.79877529650691
C         2.23624646516133    0.89901114167248    2.97493270643837
C         2.49856051908076   -0.48259150802313    2.83109606032008
C         1.61288901264930   -1.45767689505146    3.29416595948331
C         0.04661061140855    0.32524846347217    3.97259886794679
C         0.33452785976635   -1.01526647799818    3.82243811630836
H        -1.87867404346856    2.36052197131524   -4.68208198019628
H         0.37286842678253    2.98513551411830   -4.71859005821500
H         1.52013925795324    0.92799849689296   -5.23511493314843
H         2.23081913520055   -2.19077055052198   -3.99217386596143
H         1.43071518699701    1.81605244051948    4.76565066160413
H        -0.21099573402050   -0.49967247010434   -5.38272305695148
72
 energy: -144.399882781537 gnorm: 0.021174143465 xtb: 6.4.1 (a3dbbd7)
C        -1.31615502192111    1.86133541743960   -3.88251433992102
C         0.18960847646584    2.19971564042695   -3.96594104788256
C         0.95583047686280    0.88272656763158   -4.29787882193098
C        -1.38446544422460    0.37158498174807   -3.97254092194061
C        -0.11378102845986   -0.24930952329629   -4.46185198929925
C        -2.16849696588400   -0.15010108812542   -2.96932596335435
C        -1.97014552136092    2.09973325719294   -2.54528121066745
C        -2.65307799351874    0.93678198657103   -2.14985038366152
C        -1.46349065935515    2.96772321815750   -1.56811800786930
C         0.72546236758314    2.62006642186416   -2.63173059759999
C        -0.02688410871135    3.23599785077220   -1.61539986563561
C         1.83970552013824    0.66127551580517   -3.09684595866488
C         1.83013915666223    1.83344053393286   -2.28109467055547
C         2.19707377218025   -0.53988038822043   -2.56328940788218
C         0.19636686917871   -1.45309071859648   -3.64391306672659
C         1.59013128287463   -1.80283449184795   -3.18861378920208
C        -1.96597028598325   -1.43706107359930   -2.41541820560794
C        -0.75709600249082   -2.07134231406376   -2.85912906460604
C        -2.46864207380893   -1.72235110207299   -1.10361085627400
C        -3.08378712053123    0.69720929667949   -0.83555479497179
C        -3.08016209746024   -0.65780731960290   -0.31488619730057
C        -2.07855271548954    2.88130346839761   -0.30511420354655
C        -2.94449095522045    1.79625347741209    0.03515822940638
C        -1.41285706319640    3.28902027665534    0.90414272969340
C         0.64008025179470    3.42677574926396   -0.39123672209886
C        -0.05370121497821    3.56107745977050    0.85738387837033
C         2.41074556276141    1.84198696207252   -1.00321052935707
C         1.90157977002838    2.81134606159030   -0.11088493074098
C         2.84411256162615   -0.58942192699494   -1.26787472834654
C         3.00300780364366    0.63203270892355   -0.50662726134198
C         2.90467569434405   -1.81096475771488   -0.57430219213400
C         1.30071216031932   -2.82222853115647   -2.12056634203793
C        -0.09909579849955   -3.03811459530016   -2.02878876868070
C         2.03831303906039   -2.91623886740925   -0.97175313771802
C        -1.91797917028257   -2.82711280544308   -0.41350707652455
C        -0.70119793707060   -3.46290384211271   -0.86241806126916
C        -1.90788823322062   -2.90571589631330    1.00897659622638
C        -3.12772306134317   -0.80013892136588    1.07896258112147
C        -2.52011763606672   -1.91334342242505    1.75235425727797
C        -2.88511760484610    1.60764947269009    1.45181923984743
C        -1.93146232366796    2.53585197279014    2.00055391744471
C        -3.00113108251319    0.33322362278445    1.96475256115027
C        -1.08787834919527    2.12598320712223    3.03387731928511
C         0.80477641181044    3.11435433236719    1.91950801681907
C         2.03683418144594    2.66976207951615    1.29567614970259
C         0.29772138315434    2.45700810533571    3.01843960367272
C         3.20873184148236    0.55117721168580    0.88139996558115
C         2.67341933395160    1.54256279354334    1.79656740263433
C         2.99143007506306   -1.85699944560656    0.84349037566703
C         3.16613994452350   -0.68835214097342    1.56614738832149
C         1.47206319264787   -3.48645142016978    0.21992706379618
C         0.10639132009467   -3.78899521748050    0.26984992834498
C        -0.64924001553282   -3.47014021496783    1.44547338341476
C         2.10437932798782   -2.88024769810707    1.34943928927212
C        -0.02163605428171   -2.94495322088160    2.56582511679491
C         1.39207912216567   -2.64121324530778    2.52426557485592
C        -1.91910404308055   -1.45055812554329    2.97244401460106
C        -2.21197191452527   -0.05843135691591    3.10167671268947
C        -1.23724257078957    0.81139301203424    3.60189614835599
C        -0.66787495733838   -1.93265712297858    3.35142891697330
C         1.08933308428407    1.41963343598478    3.79960510300776
C         2.23696331683896    0.89917200249996    2.97665349416387
C         2.49891010579711   -0.48214594740107    2.83450928957465
C         1.61437995672163   -1.45826384067255    3.29859320540268
C         0.04650998273588    0.32409001659392    3.97558952753843
C         0.33477495685752   -1.01634000087081    3.82606396751803
H        -1.87429537826381    2.36992317851927   -4.67362940260044
H         0.36750141540245    2.97675584420273   -4.71286014592421
H         1.54365463234665    0.95780477333238   -5.21534881474399
H         2.23200855193920   -2.18740962877137   -3.98945491615931
H         1.42934156521014    1.81278754135785    4.76645597353187
H        -0.21036188029946   -0.53770704937380   -5.52364931866907
72
 energy: -144.400593973222 gnorm: 0.012719819145 xtb: 6.4.1 (a3dbbd7)
C        -1.31904321758142    1.85725733292501   -3.88456674144955
C         0.18449896227286    2.19574082407794   -3.96532762813509
C         0.95085047824883    0.87972363693488   -4.30053931951214
C        -1.38194311081074    0.36602743933348   -3.98197422209345
C        -0.11426277391158   -0.25276293540160   -4.48353073611210
C        -2.16200155017018   -0.15166682251858   -2.97698362276144
C        -1.96832221598313    2.09894637830614   -2.54662762987316
C        -2.64346081968891    0.93380628021712   -2.15037935760249
C        -1.46556644223107    2.97090321277324   -1.56846428150512
C         0.71951849735462    2.61738373462049   -2.63126994965056
C        -0.02926502848082    3.23891786318530   -1.61470351789400
C         1.82297368647387    0.65267713971769   -3.09355904861354
C         1.81970161738808    1.82619904274178   -2.27913111068983
C         2.18711752578724   -0.54565677276347   -2.56012691996002
C         0.19249766543672   -1.45098660861004   -3.65680910625292
C         1.58570224141290   -1.80539937279972   -3.19500064068518
C        -1.96647069299982   -1.43855658043157   -2.41654756822156
C        -0.75660587165886   -2.06828322132965   -2.86520761425445
C        -2.46522950080228   -1.72026612289008   -1.10440888063581
C        -3.07687763190199    0.69786948294442   -0.83532429851943
C        -3.07579236437978   -0.65611278172392   -0.31343884347248
C        -2.07903372100690    2.88497063321811   -0.30443891309944
C        -2.94219037546328    1.79792266371578    0.03560379422019
C        -1.41269977482522    3.29193000751043    0.90573024158507
C         0.63874192039994    3.42875335108560   -0.39047893418874
C        -0.05383227419149    3.56375167745492    0.85942514329910
C         2.40285548592979    1.83740704538183   -1.00198752986161
C         1.89853331486140    2.81006999062899   -0.11076080800575
C         2.83701203318468   -0.59265833605433   -1.26544568719966
C         2.99609522248248    0.62856924448654   -0.50441503392460
C         2.90375823856382   -1.81341376374263   -0.57195584736412
C         1.30036076519676   -2.82192766533911   -2.12248318163142
C        -0.09854173598200   -3.03196019422759   -2.02780299982212
C         2.03846885480169   -2.91827949508232   -0.97162833630597
C        -1.91553476970370   -2.82503701099384   -0.41187667227663
C        -0.69978322422114   -3.45944427618167   -0.86149996123202
C        -1.90563796577640   -2.90370881371220    1.01050395020707
C        -3.12457820072568   -0.79835009061574    1.08001720129550
C        -2.51796052494846   -1.91204158075255    1.75444681286716
C        -2.88346447036697    1.60959739807997    1.45310155142959
C        -1.93079422196688    2.53772914674728    2.00265029824045
C        -2.99876755416409    0.33475892136507    1.96597003374911
C        -1.08724942090642    2.12752082085519    3.03637963118555
C         0.80487848406367    3.11590291996093    1.92134289880248
C         2.03531772163082    2.66907686155822    1.29645476289036
C         0.29821958089237    2.45811333043406    3.02061027190022
C         3.20685236617837    0.54980559196642    0.88297152050596
C         2.67306008463621    1.54223833058449    1.79746856206959
C         2.99260884308199   -1.85856150785184    0.84619607095597
C         3.16690320344512   -0.68966682359932    1.56877930630501
C         1.47318476763265   -3.48789453805756    0.22098221860049
C         0.10737566090952   -3.78856177645263    0.27136655053155
C        -0.64775404259091   -3.46960733601499    1.44747858228922
C         2.10493276391425   -2.88155898231834    1.35196813497204
C        -0.02056067646174   -2.94528066446909    2.56886547629902
C         1.39292113472126   -2.64234370919710    2.52680367619880
C        -1.91734434147283   -1.44959497808034    2.97429231785667
C        -2.21015104016693   -0.05709274799939    3.10320440110698
C        -1.23634572436728    0.81281510804275    3.60453629484128
C        -0.66662421558565   -1.93265873752275    3.35460857397968
C         1.08983231871614    1.41945566535898    3.80036591300981
C         2.23703710727581    0.89900892604364    2.97804031775952
C         2.50036995658741   -0.48309667913718    2.83719896768782
C         1.61498055222537   -1.45799397959523    3.30100351451658
C         0.04711066718692    0.32456487670157    3.97777589946670
C         0.33554516394762   -1.01622368017847    3.82944985513216
H        -1.87492764770517    2.37223006201788   -4.67367161085845
H         0.36161310317513    2.97304362184489   -4.71197639002223
H         1.55809085241724    0.97355107951263   -5.20578760691250
H         2.23515394850877   -2.18501625431551   -3.99185009472880
H         1.43060446878502    1.81114288173970    4.76780608188045
H        -0.19484793195498   -0.53202549112855   -5.54652697369854
72
 energy: -144.400827529808 gnorm: 0.003442879686 xtb: 6.4.1 (a3dbbd7)
C        -1.32020147817304    1.85443613450089   -3.88512989054677
C         0.18192539250583    2.19389369974070   -3.96520429556402
C         0.94594576592257    0.87599773353073   -4.29922412272375
C        -1.37770574888535    0.36113339893201   -3.98467755248848
C        -0.11364356009129   -0.25318532736820   -4.49118822516003
C        -2.15741714691918   -0.15349398082621   -2.98110199632124
C        -1.96682131038945    2.09624732520179   -2.54724447409666
C        -2.63631040131994    0.93061751407115   -2.14959368697280
C        -1.46667308987996    2.97228773414614   -1.56915791000379
C         0.71720703232233    2.61681604076865   -2.63175246427548
C        -0.03045055654874    3.24145965471309   -1.61494290471980
C         1.81296359228298    0.64760142342602   -3.09070526614857
C         1.81388036375260    1.82235167937275   -2.27798249535029
C         2.18230718240599   -0.54837492143588   -2.55797966447012
C         0.18886784372664   -1.44687305014419   -3.66316161934965
C         1.58367501377932   -1.80610427347233   -3.19892435895697
C        -1.96799846864228   -1.44026407023377   -2.41397144555157
C        -0.75720775426586   -2.06488965527041   -2.86750982314928
C        -2.46565389675769   -1.72001379338186   -1.10393143972948
C        -3.07312241437383    0.69736772650769   -0.83449636974927
C        -3.07501163234529   -0.65573463250338   -0.31141875304974
C        -2.07927173087358    2.88678518472472   -0.30516952768756
C        -2.94097862757117    1.79834004939687    0.03520456393964
C        -1.41247323159476    3.29376085704276    0.90540590132794
C         0.63823729752117    3.43111942418798   -0.39103850772264
C        -0.05403037888603    3.56620464284929    0.85982682319694
C         2.39807798273293    1.83506740604493   -1.00122006141412
C         1.89675054866886    2.81005053865360   -0.11160303281644
C         2.83370501535513   -0.59420239773283   -1.26422635715320
C         2.99230462090787    0.62680109257380   -0.50345206997164
C         2.90357471654158   -1.81510003608149   -0.57149004213267
C         1.29862543789596   -2.82035059589693   -2.12436321220112
C        -0.09912211939935   -3.02587217080672   -2.02624056593348
C         2.03811380124543   -2.91921589788420   -0.97270621631697
C        -1.91537985282447   -2.82439959684321   -0.40998335291258
C        -0.70046594249549   -3.45662221080446   -0.86096849557759
C        -1.90547826865949   -2.90325915767243    1.01220711602972
C        -3.12415356225832   -0.79809518716315    1.08154438944445
C        -2.51780989018095   -1.91226303818147    1.75670212700965
C        -2.88228372295822    1.61015002290177    1.45322433446064
C        -1.93032643823455    2.53833377784310    2.00264640184016
C        -2.99754024736123    0.33512154029872    1.96662159196336
C        -1.08689155593097    2.12835353561848    3.03686052943256
C         0.80492659533242    3.11741379246314    1.92150418523661
C         2.03376814380535    2.66840089221295    1.29614264759986
C         0.29839230370939    2.45881717748591    3.02082760103947
C         3.20672135776403    0.54909779497437    0.88327434761468
C         2.67297691820132    1.54199234349735    1.79678972639994
C         2.99384388661632   -1.85971281715536    0.84691870145060
C         3.16813704988683   -0.69076043925841    1.56948781080751
C         1.47302326448451   -3.48814271629442    0.21991365871811
C         0.10720208650631   -3.78745780965612    0.27163686779107
C        -0.64753024369459   -3.46960821725318    1.44844524428811
C         2.10494611208164   -2.88207608458888    1.35220663035516
C        -0.02013165525898   -2.94597032682032    2.57021574233445
C         1.39311929586016   -2.64334391460235    2.52680073117617
C        -1.91658432967849   -1.44951769890751    2.97564138399691
C        -2.20907200994220   -0.05660125193489    3.10388306236647
C        -1.23588321023103    0.81361437412754    3.60544677845604
C        -0.66597410410061   -1.93310679408194    3.35632221744665
C         1.09012885435379    1.41901239706371    3.79895449269608
C         2.23695261750273    0.89884318788493    2.97742660864202
C         2.50187223563762   -0.48420506976471    2.83770394099435
C         1.61514514387336   -1.45746572170580    3.30070764900785
C         0.04743169548684    0.32467392520033    3.97776386552232
C         0.33599578180591   -1.01635099987604    3.83055922367245
H        -1.87516990478137    2.37165152889633   -4.67344534415009
H         0.35895187808794    2.96994782622248   -4.71336773952606
H         1.56569682916466    0.97960341580545   -5.19381703968477
H         2.23843035985429   -2.18156550211383   -3.99278607534556
H         1.43172405379069    1.80960733934384    4.76684314383456
H        -0.17896540129294   -0.52308258152455   -5.55559243255794
72
 energy: -144.400841271008 gnorm: 0.001344844188 xtb: 6.4.1 (a3dbbd7)
C        -1.32003110349284    1.85430438068825   -3.88456024731186
C         0.18207562709214    2.19373692245526   -3.96504002432303
C         0.94552593776558    0.87500273090977   -4.29813583711027
C        -1.37635904561385    0.36047835204494   -3.98298985668069
C        -0.11334139100940   -0.25273775651824   -4.49058051886327
C        -2.15711066159963   -0.15349780368242   -2.98058226475311
C        -1.96692896828863    2.09581592496462   -2.54704218117704
C        -2.63618170926951    0.93060504135953   -2.14918342157583
C        -1.46665652978746    2.97241756531059   -1.56916450762515
C         0.71771142965420    2.61745375854386   -2.63197180715672
C        -0.03040464055755    3.24180687928028   -1.61506154701631
C         1.81270390318730    0.64782845361547   -3.08964217200260
C         1.81413325995199    1.82293949927081   -2.27778098633627
C         2.18259884999407   -0.54801263988536   -2.55753213817382
C         0.18812405105265   -1.44554397191138   -3.66211679056695
C         1.58356497372927   -1.80581433303285   -3.19856292540814
C        -1.96850052443512   -1.44059193023936   -2.41261145067121
C        -0.75727240216129   -2.06415919836680   -2.86667049758427
C        -2.46657742748072   -1.72038344333382   -1.10381125693952
C        -3.07353450954205    0.69720452430212   -0.83425529482394
C        -3.07584826606921   -0.65587227196280   -0.31116764214852
C        -2.07922913899530    2.88677107279124   -0.30551159326510
C        -2.94109291435908    1.79818859722980    0.03496485673577
C        -1.41233658874704    3.29366564334445    0.90501707130885
C         0.63836791502823    3.43156029118667   -0.39135539267142
C        -0.05403099224055    3.56646190744422    0.85960156705026
C         2.39835155755823    1.83545547692733   -1.00107357640930
C         1.89690456922718    2.81043517022043   -0.11182294505237
C         2.83445375784058   -0.59406858749959   -1.26431701208501
C         2.99271374724580    0.62698835618707   -0.50364218450735
C         2.90397880432266   -1.81523344808069   -0.57186815598557
C         1.29824027853511   -2.82008176896334   -2.12453570679562
C        -0.09916565445558   -3.02512801416264   -2.02586234377101
C         2.03821725113044   -2.91918899418504   -0.97301605340958
C        -1.91584983135347   -2.82483408641858   -0.40983395284920
C        -0.70103010877529   -3.45651779370947   -0.86105653604710
C        -1.90599648152335   -2.90370633314162    1.01231968263645
C        -3.12480153492122   -0.79837424182781    1.08166126632481
C        -2.51833078651456   -1.91274641949304    1.75690032276329
C        -2.88214618924865    1.60991285630362    1.45295740060074
C        -1.93026597574379    2.53805836325906    2.00220738104421
C        -2.99766524310928    0.33488445542162    1.96644627402881
C        -1.08684721228702    2.12829480154635    3.03650535259199
C         0.80500364552725    3.11751996440135    1.92117451195431
C         2.03359370220476    2.66835389072763    1.29598135472372
C         0.29836794973054    2.45874074996428    3.02044542759846
C         3.20725656343124    0.54920940912345    0.88300729020237
C         2.67314910662124    1.54199812922827    1.79635450689121
C         2.99408967466904   -1.85973194291362    0.84657135595028
C         3.16852397018708   -0.69081530643762    1.56912083394595
C         1.47276191737254   -3.48782608033719    0.21926674782578
C         0.10701251243765   -3.78709851621738    0.27139605532108
C        -0.64778090414598   -3.46974941482431    1.44827001502346
C         2.10480369017770   -2.88179143284778    1.35176911399169
C        -0.02025907378046   -2.94609592708563    2.56996157934770
C         1.39293056040611   -2.64334578610128    2.52615061253925
C        -1.91676496769767   -1.44973137752332    2.97550387440122
C        -2.20906341041417   -0.05674532507709    3.10359323465925
C        -1.23591934615711    0.81354703938445    3.60511169538920
C        -0.66605697296244   -1.93326907570179    3.35614922894356
C         1.09016602128688    1.41883890222505    3.79825523030792
C         2.23694379326853    0.89891157730560    2.97683190357584
C         2.50214364552083   -0.48439680474028    2.83720517330950
C         1.61500808084155   -1.45714857337200    3.29991853740529
C         0.04739082228757    0.32459313815518    3.97722466461748
C         0.33594658254358   -1.01642324551944    3.83013303935736
H        -1.87547176258740    2.36975742424223   -4.67346791825565
H         0.35919848720834    2.96872761071810   -4.71426974110392
H         1.56600639533368    0.97829165573453   -5.19138057951461
H         2.23764582281029   -2.18067473727862   -3.99284704511885
H         1.43188452597447    1.80939677550354    4.76617656618903
H        -0.17682692925696   -0.52112851594435   -5.55493841485565
72
 energy: -144.400843688399 gnorm: 0.000524950328 xtb: 6.4.1 (a3dbbd7)
C        -1.31959039716826    1.85432046989536   -3.88400809609017
C         0.18239276167852    2.19401701436375   -3.96501846043165
C         0.94566394655727    0.87463882061469   -4.29753650764964
C        -1.37528147700425    0.36007413474631   -3.98112797605090
C        -0.11314127631989   -0.25235619350697   -4.48981258556398
C        -2.15753211742485   -0.15341774968503   -2.97992511832805
C        -1.96713595117327    2.09586579287346   -2.54692069914721
C        -2.63681385765137    0.93103341795618   -2.14911780680680