74
 energy: -145.430023295674 gnorm: 0.168948337888 xtb: 6.4.1 (a3dbbd7)
C        -1.33889553088034    1.88409517284110   -3.95312703341324
C         0.18132470629385    2.20834026482916   -3.97820413064865
C         0.96382984933135    0.90449301714025   -4.36317165913643
C        -1.32030733026422    0.39281808209585   -3.91282349449094
C        -0.07404256601495   -0.14606615361102   -4.14645897954501
C        -2.18031498987178   -0.15028861644767   -2.94554918286218
C        -2.18780609523762    2.24617605460244   -2.70082607169158
C        -2.69366537406961    0.90127792482089   -2.17520068284909
C        -1.46089195510976    2.92464812359714   -1.56507655085828
C         0.70650192426104    2.51292442370433   -2.61880176458419
C        -0.05397009633190    3.13818063773699   -1.59659220847101
C         2.14254574383815    0.74816067420767   -3.33771710707308
C         1.83813787708275    1.80422423520492   -2.31684782672320
C         2.26836037405715   -0.57418668081466   -2.59061043564273
C         0.19782358261511   -1.38243217429812   -3.60494469674985
C         1.47549505966332   -1.64703728466070   -2.96533107431506
C        -1.96511719469719   -1.44868925856151   -2.41017354083077
C        -0.80149851842328   -2.09917783921631   -2.87686209700167
C        -2.47882857198212   -1.74212823737764   -1.09895612257504
C        -3.09947633733534    0.67871798972972   -0.85805084876756
C        -3.07815976008146   -0.67440949109195   -0.32277762093211
C        -2.08174023152517    2.87033182786339   -0.32707709128984
C        -2.98774165976221    1.78669454696494    0.02505825138774
C        -1.40663410565246    3.25778508190616    0.87914396561331
C         0.63425529129858    3.37089035463938   -0.39507474143571
C        -0.04580162253540    3.53399613761529    0.84889894104260
C         2.41121065650206    1.80102583386858   -1.02460506479555
C         1.89021893738912    2.74791077135745   -0.13001971525651
C         2.90434202163475   -0.61006179962281   -1.29703652146465
C         3.03745640611869    0.61418841503564   -0.51669019100512
C         2.88969641342095   -1.82354978234394   -0.57583317344693
C         1.27684401621039   -2.76962161952552   -2.10425557694168
C        -0.13107180483973   -3.05485442254388   -2.05351065913443
C         2.03818522978942   -2.90893424042279   -0.96269934195996
C        -1.92154951749282   -2.84656435013812   -0.41461079266550
C        -0.71029867185016   -3.47522835843638   -0.87521977413373
C        -1.90565192854511   -2.92158900425712    1.00983608388777
C        -3.12864546217744   -0.81700925399664    1.07579162641612
C        -2.51788973426548   -1.92812664831657    1.74885451352639
C        -2.90034274895072    1.59152976571698    1.42519899601218
C        -1.93181816765319    2.51149401576656    1.97502355762590
C        -3.01108025671779    0.31388408126942    1.95524025114929
C        -1.09032514475965    2.10748406279445    3.00688683678321
C         0.81160178660287    3.09823600811459    1.91381528808309
C         2.03641911995626    2.61559647246646    1.28411995199263
C         0.30132350995265    2.42939298439026    2.99554454094050
C         3.18929428195694    0.53888659029881    0.87961841724195
C         2.69720580911895    1.53210920428445    1.77958722329700
C         2.98254251294168   -1.87549551366473    0.85646075646234
C         3.14679342320186   -0.70965024334003    1.58047784039565
C         1.47561697882964   -3.50758416951611    0.22144424897322
C         0.11264335884618   -3.78838011509984    0.26412336867148
C        -0.64382218549227   -3.47562820159723    1.44387761234377
C         2.10643847608743   -2.89482775099040    1.35605548149665
C        -0.01663193455287   -2.95177088880393    2.56566054339952
C         1.39066630460288   -2.65157507456313    2.52467046427211
C        -1.91574902405593   -1.46013281003398    2.96883634467634
C        -2.21416043663093   -0.06827626779888    3.08911227929006
C        -1.23928541565362    0.79926771375785    3.58427660139364
C        -0.66426543700756   -1.93351438741471    3.35131286521723
C         1.08332812971385    1.42046888495938    3.81232851466204
C         2.43777439390225    0.95876799467342    3.15672024180233
C         2.51900074378651   -0.51743701343590    2.84737227866954
C         1.61815609886164   -1.45428083433862    3.28707444033364
C         0.05031874903374    0.31868539457799    3.95244431322584
C         0.33424949921221   -1.01926792992030    3.83194857509536
H        -1.81489647748631    2.27934045681915   -4.85427343363373
H         0.39243434124406    3.03565333854176   -4.66156760106610
H         1.34154929727650    0.92615785022043   -5.38657304968423
H         3.09633329683678    0.94309330841222   -3.84327944787953
H         1.31791907480873    1.83892192577954    4.79682281867642
H         3.24879868802320    1.24194120504304    3.83611193013125
H        -3.03455331897034    2.88351760293466   -2.98477023664389
H         3.36891577214172   -0.77097061921359    3.49803744241916
74
 energy: -145.459824156161 gnorm: 0.085585013175 xtb: 6.4.1 (a3dbbd7)
C        -1.34014075953637    1.88444417308609   -3.95412257009236
C         0.17930771281888    2.20933000885595   -3.97943678333282
C         0.96224318551224    0.90561481286647   -4.36387522926066
C        -1.32080887009219    0.39209181112639   -3.91451566845495
C        -0.07487894683995   -0.14524418838354   -4.14568185985413
C        -2.17793536622893   -0.14979071124386   -2.94484405841585
C        -2.18930962151425    2.24618401416180   -2.70073637744677
C        -2.69456811874718    0.90084299621565   -2.17281101520860
C        -1.46288685865997    2.92366161406445   -1.56424543885917
C         0.70500274983275    2.51463001853784   -2.62054105706633
C        -0.05479659881429    3.13893837625355   -1.59764148595536
C         2.14192878647327    0.75068458994543   -3.34022931155534
C         1.83795641103364    1.80746195675545   -2.32073344661119
C         2.26925470337308   -0.57156585877020   -2.59385787420681
C         0.19949287223952   -1.38377188281648   -3.60769376695417
C         1.47351243441014   -1.64514930870019   -2.96684999800973
C        -1.96110886356819   -1.44764109474220   -2.41029304900760
C        -0.79893415325108   -2.09980101198703   -2.87828623480562
C        -2.47646232121811   -1.74241068127479   -1.09930491987015
C        -3.10053962857330    0.67805215757106   -0.85809081287580
C        -3.07712061243008   -0.67531679850909   -0.32254353442642
C        -2.08056797732907    2.86916720460372   -0.32669905458383
C        -2.99046889837747    1.78607122882361    0.02876272898282
C        -1.40597401205136    3.25989641406455    0.87779242746758
C         0.63342078199690    3.37313039113897   -0.39754762531327
C        -0.04527520351158    3.53800738421369    0.84613326272727
C         2.41119605853003    1.80512265183590   -1.02909348298873
C         1.89010274485359    2.74934058101892   -0.13382558871566
C         2.90706312614871   -0.60569975950783   -1.30565644927716
C         3.03629343319030    0.61643486285929   -0.52476598409514
C         2.88889139963812   -1.82188900273020   -0.58216860351071
C         1.27466519247052   -2.76810963737328   -2.10363840252863
C        -0.13106281704751   -3.05862066007891   -2.05626738822686
C         2.03550433926966   -2.90541326688069   -0.96174294716639
C        -1.92227934837558   -2.84868552013427   -0.41763226515839
C        -0.71226670791259   -3.47912817627970   -0.87840811911497
C        -1.91327032672376   -2.92804359677397    1.00712290521489
C        -3.12866833487820   -0.81952837191388    1.07498623432574
C        -2.52312827411491   -1.93302407304825    1.74508599476046
C        -2.90095446328165    1.59277107944196    1.42304097937797
C        -1.93086874709213    2.51352266451249    1.97324032117200
C        -3.00850549181634    0.31175882048393    1.95716889746632
C        -1.08980929038939    2.11055450974229    3.00377317803414
C         0.81166946368881    3.10357282943586    1.91099043447506
C         2.03352100098320    2.61707291918067    1.28020110525562
C         0.30009559506681    2.43551460341747    2.99209277842645
C         3.18345714374076    0.54122216821060    0.87348078651171
C         2.69272292862934    1.53400547691667    1.77608757279518
C         2.97110103432575   -1.86589600541259    0.84625329042019
C         3.14259356203306   -0.70608376394521    1.55985530060124
C         1.47117938626401   -3.50498556601391    0.22341649042257
C         0.10630548874422   -3.79086608761614    0.26232215704136
C        -0.65535135196731   -3.48482580379187    1.44137060594807
C         2.09555540828584   -2.89508538140345    1.35773867453889
C        -0.03410519027186   -2.96498066762082    2.56588807129902
C         1.37003444812028   -2.65603564914970    2.52372259570825
C        -1.92130508325195   -1.46373885284893    2.96519719022864
C        -2.21721359014994   -0.06755708284132    3.08625121953348
C        -1.23689615348106    0.80155725594816    3.58469101843813
C        -0.67888417039031   -1.94373616796895    3.34964647037528
C         1.08079168226269    1.42557888783193    3.80604072984233
C         2.44048800327605    0.97414711267207    3.15990407393690
C         2.61569077420188   -0.53786533891690    2.92602934058616
C         1.59189850839434   -1.47618978318714    3.30599617062453
C         0.04670164284661    0.32353514988327    3.94575643639796
C         0.32612302907835   -1.02517450671645    3.81867980050626
H        -1.81671558617603    2.28057697532207   -4.85470922873240
H         0.39186265608473    3.03672949895777   -4.66244015446083
H         1.34013577938293    0.92669564985954   -5.38729035609456
H         3.09573809680486    0.94485702221950   -3.84601944877553
H         1.31418298231313    1.84440628744073    4.79144870350221
H         3.23459220650943    1.29964243434797    3.83849809429139
H        -3.03506303926408    2.88356753132783   -2.98643427895907
H         3.47447015406805   -0.82598047140184    3.56459569374439
74
 energy: -145.470886883961 gnorm: 0.020545163924 xtb: 6.4.1 (a3dbbd7)
C        -1.34223504899458    1.88506509727064   -3.95531936585357
C         0.17657910049260    2.21013175013151   -3.98110914307256
C         0.95976035993401    0.90659260840953   -4.36582311240940
C        -1.32317889666387    0.39206049137694   -3.91655806790950
C        -0.07656828636857   -0.14458099189160   -4.14612347663227
C        -2.17837448579832   -0.15041203860490   -2.94746669196617
C        -2.18921035936065    2.24517480004071   -2.69966058310846
C        -2.69523942490403    0.90011884484995   -2.17125016164822
C        -1.46400355104489    2.92486266609485   -1.56393424934739
C         0.70351815636321    2.51765774558475   -2.62284812713051
C        -0.05424096530869    3.14291573236411   -1.59972292034072
C         2.13959615870796    0.75231286064969   -3.34268504687438
C         1.83707124623235    1.81018497835767   -2.32368612970224
C         2.26814323636341   -0.57060104731443   -2.59673690354221
C         0.19939262891767   -1.38358672342674   -3.61057477335322
C         1.47223970591258   -1.64400283038041   -2.96854725783953
C        -1.96026970042308   -1.44709578284200   -2.41361309908584
C        -0.79879793514228   -2.10026201360952   -2.88188974887955
C        -2.47728856870440   -1.74364046257464   -1.10238499045249
C        -3.10190785319804    0.67692816156763   -0.86071383789657
C        -3.07883282544667   -0.67703763751165   -0.32505512851770
C        -2.07911584546833    2.87135852091162   -0.32783821246725
C        -2.99037620788950    1.78512141848323    0.03125229420863
C        -1.40563572808290    3.26313410052916    0.87604100536989
C         0.63291731232667    3.37537137085689   -0.39930328823389
C        -0.04463713014050    3.54219495154916    0.84416546154769
C         2.40804153896081    1.80629970377364   -1.03124718640873
C         1.88894335437063    2.74729538305007   -0.13431665430102
C         2.90100638480526   -0.60269079900528   -1.30735818737683
C         3.02670687931258    0.61241723282959   -0.52684249252607
C         2.87914111499671   -1.81906971001350   -0.57938953064013
C         1.27249776329877   -2.76750259975411   -2.10433606030924
C        -0.13187418336925   -3.06109865879822   -2.06089853255704
C         2.03081826755990   -2.90269498930486   -0.95993825931628
C        -1.92527227013807   -2.85079522468927   -0.42335163301578
C        -0.71460018080078   -3.48170975139414   -0.88310142821060
C        -1.92231339509106   -2.93531410908060    1.00257936192744
C        -3.13145858324290   -0.82302590915533    1.07093789526405
C        -2.53083789248461   -1.93825785645538    1.73855565308190
C        -2.90161756460742    1.59487788636862    1.41877395823362
C        -1.93041180224762    2.51646160650809    1.97108234464740
C        -3.00430124828282    0.30918557826809    1.95679721389156
C        -1.08922182441554    2.11281325016507    2.99962023038085
C         0.81151471853351    3.10706724734595    1.90951479192049
C         2.02817507620349    2.61089307679458    1.28077425747911
C         0.30032373452754    2.43732815974616    2.98966790942617
C         3.16380384352801    0.53164458178189    0.87606692463520
C         2.67692428773079    1.52213652610075    1.77963597530684
C         2.96289427204795   -1.85742190527221    0.84755488400305
C         3.13600578336149   -0.70625845648378    1.55284956644829
C         1.46580171323847   -3.50143452807945    0.22724663498053
C         0.09931231153891   -3.79490212770950    0.25884798879689
C        -0.66479097338247   -3.49185591680833    1.43663543682166
C         2.08960330821125   -2.90001977630114    1.36228313922705
C        -0.04394230477946   -2.97066819268829    2.56026155640876
C         1.35963766399216   -2.64964826313512    2.52131858228376
C        -1.92493817591002   -1.46646608787635    2.95820639725118
C        -2.22175524345590   -0.06736166311945    3.08027476194655
C        -1.23264199336826    0.80122020493304    3.58184263856450
C        -0.68800074852216   -1.94814014492028    3.34027512858303
C         1.08306336278930    1.42408207314071    3.79874198998410
C         2.45615922566131    0.98245672441635    3.17404420529424
C         2.72658818164231   -0.55544696239792    3.01299451386880
C         1.56940427031687   -1.47336778614542    3.30060421821550
C         0.04394685739190    0.32967210989396    3.93671639619839
C         0.33130563981988   -1.02406620868341    3.79054737829430
H        -1.82030167386024    2.28198612575741   -4.85476986959215
H         0.38949086442260    3.03708134373223   -4.66461310439200
H         1.33688140790802    0.92708902775288   -5.38956304398935
H         3.09342331675865    0.94639904517302   -3.84860870069343
H         1.30648214261952    1.84011469832864    4.78825064608966
H         3.24029279295438    1.36277226625894    3.83850338515143
H        -3.03530285982945    2.88160163313214   -2.98508722252813
H         3.57470987654240   -0.86108303368467    3.64538936139638
74
 energy: -145.471633911993 gnorm: 0.012190404907 xtb: 6.4.1 (a3dbbd7)
C        -1.34379236552226    1.88599041808456   -3.95553823898920
C         0.17506842797968    2.21106108063539   -3.98163170314800
C         0.95764639097815    0.90714002172368   -4.36631040968170
C        -1.32541760363064    0.39285763969116   -3.91810612318689
C        -0.07836188510110   -0.14457778693728   -4.14801276773947
C        -2.18042500118443   -0.15066288343427   -2.95032781460707
C        -2.18915126655268    2.24588596675805   -2.69924027349377
C        -2.69535686743194    0.90071908001623   -2.17206281662549
C        -1.46300071031912    2.92649539485460   -1.56435706653422
C         0.70331724059433    2.51893478894004   -2.62353526623057
C        -0.05307184149374    3.14562979939888   -1.60043856354721
C         2.13734476809819    0.75165121259550   -3.34279652585485
C         1.83563596497998    1.80932324970694   -2.32322725447074
C         2.26508983215245   -0.57116828730281   -2.59557832098472
C         0.19730742205253   -1.38308159872856   -3.61219684270168
C         1.47069468884014   -1.64401440996160   -2.96812456329723
C        -1.96264803199256   -1.44745451915031   -2.41710288592845
C        -0.80092767251145   -2.10082426232777   -2.88489190583400
C        -2.47972341648783   -1.74503437465996   -1.10583331524866
C        -3.10165490197383    0.67730932469251   -0.86293197372352
C        -3.07992768254919   -0.67758352033764   -0.32819158412228
C        -2.07766863601443    2.87349488205285   -0.32840791889796
C        -2.98812254292277    1.78576583186378    0.03031326021874
C        -1.40425406861163    3.26533348787245    0.87582867398308
C         0.63388426290548    3.37652046038139   -0.39912954460485
C        -0.04315822992494    3.54457607057910    0.84449635016923
C         2.40412607222016    1.80262604324834   -1.02933257329906
C         1.88762918472999    2.74407287848703   -0.13270962999071
C         2.89475552279961   -0.60390220225598   -1.30243794106325
C         3.01905085187238    0.60744533463875   -0.52159695762187
C         2.87209603037317   -1.81828079648550   -0.57213609430684
C         1.27040962032228   -2.76736665318219   -2.10417498240274
C        -0.13399313955757   -3.06185645671881   -2.06362748331631
C         2.02652121863831   -2.90214917819318   -0.95773335123794
C        -1.92844854600662   -2.85308668603906   -0.42731514335567
C        -0.71684849491632   -3.48365215304743   -0.88640444826263
C        -1.92516104841560   -2.93842907562524    0.99904904569222
C        -3.13262177000127   -0.82406851939215    1.06722453428402
C        -2.53331145625149   -1.94018592090851    1.73434075771734
C        -2.89983556151700    1.59581877284151    1.41660544026972
C        -1.92832084863084    2.51745850742344    1.97031432356827
C        -3.00193866759721    0.30879695372251    1.95371755932181
C        -1.08662440724870    2.11276368757416    2.99807631454776
C         0.81324182722129    3.10778624407138    1.90972629015760
C         2.02811228710107    2.60693360298416    1.28238139786624
C         0.30344163959264    2.43656457053311    2.98990279547066
C         3.15855567242740    0.52412368596146    0.88272511606686
C         2.67346645246088    1.51629100750334    1.78325446146325
C         2.96742770041450   -1.86134077202391    0.85604337984541
C         3.14712096905902   -0.71107702593576    1.56697545581589
C         1.46278586932459   -3.50334042204956    0.22792482799336
C         0.09658092365957   -3.79856733522761    0.25600321865311
C        -0.66616117876415   -3.49401871639793    1.43350879991319
C         2.09062470232566   -2.90626345246636    1.36376197740461
C        -0.04140516098404   -2.97086439495880    2.55579008148303
C         1.36485895019636   -2.65061612877050    2.52252734582389
C        -1.92311290133488   -1.46713983142700    2.95224177652462
C        -2.22106235143784   -0.06811108329074    3.07551704326629
C        -1.22971597398043    0.79947361955834    3.57774959541801
C        -0.68528384920653   -1.94741878510409    3.33239839058749
C         1.08544177101448    1.42156288531359    3.80034208783165
C         2.46443380257594    0.98467517032527    3.18111860700899
C         2.74170058833898   -0.55401124398378    3.02466663424373
C         1.57726998315386   -1.46878733324088    3.29706181124797
C         0.04498345167786    0.32905851226723    3.93357850492684
C         0.33893754236605   -1.02404797425310    3.78298444301560
H        -1.82305839859801    2.28422920301415   -4.85381223574872
H         0.38694092585905    3.03767689341580   -4.66598442173913
H         1.33394824458737    0.92832655307854   -5.39030834386383
H         3.09077646706033    0.94590600157968   -3.84946839655536
H         1.29971889245275    1.83714850041228    4.79228658839799
H         3.24352751400553    1.39907752205116    3.83535616719941
H        -3.03619472841159    2.88193054941761   -2.98315165415555
H         3.58390966024106   -0.85289023028371    3.66496214398274
74
 energy: -145.471880093884 gnorm: 0.004072609962 xtb: 6.4.1 (a3dbbd7)
C        -1.34403409218808    1.88625860274641   -3.95503792365419
C         0.17491852544158    2.21104689637971   -3.98175952278484
C         0.95689272045276    0.90674760225204   -4.36636665458284
C        -1.32673435142704    0.39314400353999   -3.91851625236463
C        -0.07924801080614   -0.14526504058440   -4.14959353864878
C        -2.18144319456891   -0.15130786795922   -2.95183747328243
C        -2.18838280964648    2.24567221520964   -2.69837002488342
C        -2.69482386913745    0.90095640609969   -2.17142989375243
C        -1.46201330877393    2.92727276499013   -1.56405183269991
C         0.70346734710348    2.51984679327781   -2.62380294192772
C        -0.05213834937328    3.14777534809996   -1.60069914149803
C         2.13656993445898    0.75121510990407   -3.34271395096277
C         1.83492553388215    1.80885624484539   -2.32297020558749
C         2.26315845290788   -0.57185812159150   -2.59584349439441
C         0.19574511287256   -1.38311798375144   -3.61361911692949
C         1.47015961969156   -1.64422039879003   -2.96809967780412
C        -1.96376092586364   -1.44776334976858   -2.41863262676850
C        -0.80204648871649   -2.10143569560542   -2.88664904021917
C        -2.48049054283495   -1.74599037970854   -1.10708506668135
C        -3.10094829684516    0.67754263842747   -0.86369323562185
C        -3.07991292710984   -0.67799871953413   -0.32910857732664
C        -2.07669849326952    2.87534033675661   -0.32816973500347
C        -2.98597610485955    1.78639046876143    0.03065523501793
C        -1.40366848400634    3.26770415388623    0.87645592478855
C         0.63414404333570    3.37815910486912   -0.39865566688161
C        -0.04254334289973    3.54751530485573    0.84524339241212
C         2.40085810324576    1.80021478681097   -1.02808981237029
C         1.88587854068081    2.74198152824984   -0.13165578260025
C         2.89129346080847   -0.60448921159257   -1.29983677263272
C         3.01366999788654    0.60410941810745   -0.51921322859131
C         2.86723541446339   -1.81688190902031   -0.56774714638759
C         1.26948497569625   -2.76730674822619   -2.10445444659033
C        -0.13498732307965   -3.06247248247451   -2.06528857827064
C         2.02364488386776   -2.90120748300583   -0.95659738338948
C        -1.92954599236932   -2.85454292588937   -0.42902593919347
C        -0.71762408103157   -3.48526759087622   -0.88844492512224
C        -1.92556958720748   -2.93997282505708    0.99764983144986
C        -3.13295664918036   -0.82462333773312    1.06571506954694
C        -2.53383778881214   -1.94084758989429    1.73240043782863
C        -2.89850206763667    1.59707259596527    1.41600214472521
C        -1.92707023195226    2.51923534642452    1.97089501516565
C        -2.99990142534053    0.30907192198052    1.95264964362812
C        -1.08499563126536    2.11440986902547    2.99829486600506
C         0.81415459250264    3.10961433685019    1.91031183424990
C         2.02744217668710    2.60458480820658    1.28303816348131
C         0.30559517868865    2.43853356217015    2.99176579989882
C         3.15199061287681    0.51770847158260    0.88586098569339
C         2.66786875605191    1.51061773051224    1.78336544232598
C         2.96925695183788   -1.86356346621515    0.86087236768946
C         3.15265298264379   -0.71482438550822    1.57744191952223
C         1.46149444427289   -3.50592761001148    0.22720351875019
C         0.09564785016148   -3.80183419607208    0.25387594237085
C        -0.66588835347266   -3.49562891680221    1.43164776539074
C         2.09186927689075   -2.91204862958402    1.36304319810237
C        -0.03847575403752   -2.96999989399005    2.55208983671689
C         1.36958902456516   -2.65131028834272    2.52170306616795
C        -1.92095104215895   -1.46679153767884    2.94893963402518
C        -2.22059124155989   -0.06775700778111    3.07301263992220
C        -1.22790423371022    0.79951100180255    3.57579302799822
C        -0.68229086043934   -1.94576277600293    3.32560528533678
C         1.08601835549484    1.42017760482191    3.80212116572531
C         2.46641293909077    0.98426274499474    3.18292843493299
C         2.74850192987935   -0.55185151956015    3.03054123471863
C         1.58285822326097   -1.46295125420066    3.29026426625642
C         0.04473144629650    0.32942498205041    3.93112270292703
C         0.34554775909928   -1.02279159406262    3.77637063350440
H        -1.82366654052324    2.28541560499593   -4.85272432066609
H         0.38590862071149    3.03699227182554   -4.66719694418146
H         1.33339852989754    0.92847746475577   -5.39028158855956
H         3.08961590527701    0.94542859118940   -3.85009030342389
H         1.29580366071632    1.83245591893783    4.79649646265977
H         3.24154663577713    1.41189547941659    3.82863857714565
H        -3.03623810618233    2.88140122314482   -2.98102111383791
H         3.58453011237855   -0.84186712667980    3.68094627900505
74
 energy: -145.471903690113 gnorm: 0.002122604331 xtb: 6.4.1 (a3dbbd7)
C        -1.34394065088400    1.88620471000073   -3.95464602343364
C         0.17505817968069    2.21093034782487   -3.98139088575172
C         0.95705143378821    0.90673594300450   -4.36613790501832
C        -1.32669818696569    0.39315496281815   -3.91823388361184
C        -0.07904548788719   -0.14544432934389   -4.14972011333508
C        -2.18124893652029   -0.15150963621359   -2.95187815932654
C        -2.18813097480265    2.24554749600158   -2.69798061334804
C        -2.69461309006377    0.90099553929292   -2.17097370878064
C        -1.46184628501374    2.92724379159836   -1.56369520936544
C         0.70360833194913    2.51965488631060   -2.62347488024639
C        -0.05201092732029    3.14782027794146   -1.60048848123202
C         2.13668007758887    0.75089677487955   -3.34241674606093
C         1.83497052997679    1.80847227414835   -2.32265420880181
C         2.26319785354400   -0.57226189599715   -2.59619131133659
C         0.19564978133401   -1.38318767167351   -3.61376717413761
C         1.47047742129921   -1.64442768392401   -2.96809848773215
C        -1.96349855358679   -1.44769672676795   -2.41841169511395
C        -0.80181004795342   -2.10150446741930   -2.88656226325568
C        -2.48009566650537   -1.74594698524812   -1.10679994658674
C        -3.10075189501792    0.67758149924381   -0.86364592410000
C        -3.07956281348406   -0.67801220678010   -0.32877517695750
C        -2.07672258086787    2.87559874157922   -0.32785177049222
C        -2.98563720498626    1.78649664410997    0.03106850078007
C        -1.40386303637992    3.26805511583759    0.87688387149488
C         0.63399615072901    3.37836876613878   -0.39838216199164
C        -0.04273935649872    3.54798657931755    0.84558824246157
C         2.40061524512810    1.79991978835506   -1.02777040753399
C         1.88546487181646    2.74179952525710   -0.13153668973136
C         2.89166521497545   -0.60481306915258   -1.29988830623594
C         3.01343822261981    0.60362505523500   -0.51937506642350
C         2.86733030848604   -1.81690536254746   -0.56778771281446
C         1.26988221679859   -2.76762694276196   -2.10468933188163
C        -0.13473595847003   -3.06251395725421   -2.06521301093436
C         2.02390722758290   -2.90145719241968   -0.95681384041600
C        -1.92905746237251   -2.85439004813127   -0.42877445328962
C        -0.71728541884896   -3.48546594151282   -0.88846651497447
C        -1.92482697979776   -2.93967866220427    0.99786671830683
C        -3.13276422767075   -0.82464186042090    1.06587964724870
C        -2.53327687702664   -1.94054256095419    1.73254094469776
C        -2.89860675554615    1.59735172191671    1.41625619331242
C        -1.92730284410109    2.51974807898602    1.97144932683747
C        -2.99980972199283    0.30923880780609    1.95303027199872
C        -1.08527792634658    2.11530162943621    2.99897285255485
C         0.81380995466839    3.10985965124164    1.91057059117733
C         2.02697509837510    2.60453549686897    1.28296755493741
C         0.30547371567026    2.43959727836657    2.99269203069261
C         3.15044972087188    0.51639643828284    0.88560182665200
C         2.66564162646521    1.50917600664516    1.78213616846925
C         2.96876238071443   -1.86365304398256    0.86052641549520
C         3.15185044255410   -0.71567601470272    1.57839840089336
C         1.46202386659792   -3.50707881972450    0.22656816851720
C         0.09603851992628   -3.80241968539878    0.25363907879666
C        -0.66543006141929   -3.49585503352454    1.43158772667088
C         2.09219309170445   -2.91332778921075    1.36219073637518
C        -0.03806530811742   -2.96946460864135    2.55159584592194
C         1.36984760274082   -2.65111783790643    2.52050249044722
C        -1.92057488510477   -1.46641936155596    2.94914788724114
C        -2.22088635620842   -0.06733657803566    3.07319027804222
C        -1.22812355020123    0.80012930736173    3.57616227130101
C        -0.68179042902053   -1.94511667739312    3.32455082218227
C         1.08588286825645    1.42020429376139    3.80196837825486
C         2.46553456568674    0.98338934386535    3.18169652287971
C         2.74804082935450   -0.55170702782033    3.03091868451834
C         1.58281236808555   -1.46089958571828    3.28685871017719
C         0.04411192180417    0.33000793489615    3.93056419491965
C         0.34651347459979   -1.02198307902929    3.77496153908965
H        -1.82345514172065    2.28548166728799   -4.85234609631214
H         0.38591821117848    3.03675522078827   -4.66697294713158
H         1.33378114016597    0.92877177918722   -5.38998326216103
H         3.08967642085189    0.94525613298320   -3.84974727497741
H         1.29745230474016    1.83127326889660    4.79634282736882