72
 energy: -177.343463148309 gnorm: 0.264751273468 xtb: 6.4.1 (a3dbbd7)
C        -1.23626340000000    0.00000000000000    3.32997640000000
C        -0.38202640000000   -1.17575640000000    3.32997640000000
C         1.00015810000000   -0.72665740000000    3.32997640000000
C         1.00015810000000    0.72665740000000    3.32997640000000
C        -0.38202640000000    1.17575640000000    3.32997640000000
C         2.34433560000000   -2.60145750000000    0.59464210000000
C         3.19857260000000   -1.42570110000000    0.59464210000000
C         2.96246730000000   -0.69904370000000    1.83090550000000
C         1.96230920000000   -1.42570110000000    2.59495830000000
C         1.58028280000000   -2.60145750000000    1.83090550000000
C         3.19857260000000    1.42570110000000    0.59464210000000
C         2.34433560000000    2.60145750000000    0.59464210000000
C         1.58028280000000    2.60145750000000    1.83090550000000
C         1.96230920000000    1.42570110000000    2.59495830000000
C         2.96246730000000    0.69904370000000    1.83090550000000
C        -0.36750900000000    3.48258920000000    0.59464210000000
C        -1.74969350000000    3.03349030000000    0.59464210000000
C        -1.98579880000000    2.30683290000000    1.83090550000000
C        -0.74953540000000    2.30683290000000    2.59495830000000
C         0.25062270000000    3.03349030000000    1.83090550000000
C        -3.42570570000000    0.72665740000000    0.59464210000000
C        -3.42570570000000   -0.72665740000000    0.59464210000000
C        -2.80757400000000   -1.17575640000000    1.83090550000000
C        -2.42554760000000    0.00000000000000    2.59495830000000
C        -2.80757400000000    1.17575640000000    1.83090550000000
C        -1.74969350000000   -3.03349030000000    0.59464210000000
C        -0.36750900000000   -3.48258920000000    0.59464210000000
C         0.25062270000000   -3.03349030000000    1.83090550000000
C        -0.74953540000000   -2.30683290000000    2.59495830000000
C        -1.98579880000000   -2.30683290000000    1.83090550000000
C        -0.25062270000000   -3.03349030000000   -1.83090550000000
C         0.74953540000000   -2.30683290000000   -2.59495830000000
C         1.98579880000000   -2.30683290000000   -1.83090550000000
C         1.74969350000000   -3.03349030000000   -0.59464210000000
C         0.36750900000000   -3.48258920000000   -0.59464210000000
C         2.80757400000000   -1.17575640000000   -1.83090550000000
C         2.42554760000000    0.00000000000000   -2.59495830000000
C         2.80757400000000    1.17575640000000   -1.83090550000000
C         3.42570570000000    0.72665740000000   -0.59464210000000
C         3.42570570000000   -0.72665740000000   -0.59464210000000
C         1.98579880000000    2.30683290000000   -1.83090550000000
C         0.74953540000000    2.30683290000000   -2.59495830000000
C        -0.25062270000000    3.03349030000000   -1.83090550000000
C         0.36750900000000    3.48258920000000   -0.59464210000000
C         1.74969350000000    3.03349030000000   -0.59464210000000
C        -1.58028280000000    2.60145750000000   -1.83090550000000
C        -1.96230920000000    1.42570110000000   -2.59495830000000
C        -2.96246730000000    0.69904370000000   -1.83090550000000
C        -3.19857260000000    1.42570110000000   -0.59464210000000
C        -2.34433560000000    2.60145750000000   -0.59464210000000
C        -2.96246730000000   -0.69904370000000   -1.83090550000000
C        -1.96230920000000   -1.42570110000000   -2.59495830000000
C        -1.58028280000000   -2.60145750000000   -1.83090550000000
C        -2.34433560000000   -2.60145750000000   -0.59464210000000
C        -3.19857260000000   -1.42570110000000   -0.59464210000000
C        -1.00015810000000   -0.72665740000000   -3.32997640000000
C        -1.00015810000000    0.72665740000000   -3.32997640000000
C         0.38202640000000    1.17575640000000   -3.32997640000000
C         1.23626340000000    0.00000000000000   -3.32997640000000
C         0.38202640000000   -1.17575640000000   -3.32997640000000
C        -1.76086815247998    0.00000000000000    4.78849957557021
F        -0.76911826531252    0.00000000000000    5.67468926254662
F        -2.50968386795825   -1.06794314680471    5.04863888333743
F        -2.50968386795825    1.06794314680471    5.04863888333743
C        -4.03961820246674    1.67468514775899    2.62817407948106
F        -4.96930660042401    0.73147479244129    2.75037763231445
F        -4.62303373288714    2.71686348978891    2.04303253910981
F        -3.71458666614023    2.05683907990836    3.85992603200072
C         4.58877084110522   -2.05459160147071    0.86730597290559
F         4.59709252483521   -2.78118520641283    1.98125951001435
F         4.97417519512416   -2.85850196315549   -0.11965482382298
F         5.53562669678859   -1.13053295630600    1.00324569798425
72
 energy: -177.414002906897 gnorm: 0.160186228863 xtb: 6.4.1 (a3dbbd7)
C        -1.23958569635449   -0.00531553649135    3.33943499352153
C        -0.35747131787644   -1.19372977853372    3.33526071092159
C         0.99775110971870   -0.72210005073715    3.32434322570822
C         0.99838618693198    0.72884223576030    3.32263999590424
C        -0.35917965642542    1.19058955033831    3.33989681255540
C         2.30682724627625   -2.59589435130260    0.59671718532143
C         3.25119918697155   -1.45112322935961    0.60246087222781
C         2.92985624738835   -0.68279991262194    1.83171291599938
C         1.95410948345342   -1.41843087579813    2.58306625661875
C         1.56944959256394   -2.59070708523658    1.82504500703346
C         3.18884659638150    1.42401693617889    0.58807530473135
C         2.33903793955386    2.59183199557995    0.58982643057595
C         1.58365222151424    2.59482066995588    1.82400878294082
C         1.96124131318855    1.43211871799824    2.58974685759530
C         2.94143128350429    0.70396794282139    1.82205406510103
C        -0.35441120862925    3.47536140820635    0.59541897810673
C        -1.72916767822935    3.01921570010165    0.59927104425792
C        -1.95639502588737    2.32492245891075    1.83373467662139
C        -0.72812888493616    2.30442400564040    2.58461123449966
C         0.26229728497870    3.03385203896515    1.82507028820191
C        -3.41016657489482    0.70996080394614    0.54993699891116
C        -3.41580992668338   -0.72543878093597    0.57315547486271
C        -2.78989959710995   -1.16811021372417    1.80375753117060
C        -2.43047456933685   -0.01919652220884    2.54124935310133
C        -2.86237327672041    1.19636227377927    1.83229356544078
C        -1.74333632151844   -3.02249884620397    0.59514817694511
C        -0.36732659634869   -3.47227164770126    0.59565363670273
C         0.24687435647710   -3.03513849234470    1.82568920695105
C        -0.73895949970309   -2.30710014402644    2.58607319988394
C        -1.97417467896298   -2.30639215506851    1.82213636980986
C        -0.25116193550661   -3.02643105946434   -1.82387989052260
C         0.74536527162394   -2.30116296319012   -2.58363709658296
C         1.97465217505926   -2.30011888481556   -1.82775295561142
C         1.72928984416908   -3.01759447185360   -0.59090200642024
C         0.36010742250678   -3.47394362364380   -0.59321562289671
C         2.78658710720385   -1.16206921337414   -1.83325509732378
C         2.41230170896754    0.00680581426256   -2.59713329825720
C         2.79428037277881    1.17808933050510   -1.83664572447336
C         3.40794464786477    0.72924021899469   -0.60509616578201
C         3.40366590391959   -0.70303920046650   -0.62641028773242
C         1.97654691287889    2.30105507478009   -1.83024230728711
C         0.74362553817834    2.30031416592473   -2.58695416992329
C        -0.24797169153026    3.02400380619514   -1.82417482756868
C         0.37088158515393    3.47110391548703   -0.59309826346813
C         1.74385402963728    3.02326209670099   -0.59536811318875
C        -1.57473970462236    2.59258573089736   -1.82281871846327
C        -1.95493579101072    1.42020889227874   -2.58738685507004
C        -2.95448561867198    0.69444069609409   -1.83690129941957
C        -3.18212194382261    1.41790764898218   -0.61186656229855
C        -2.33096543939229    2.59239305645652   -0.59440539579933
C        -2.95405434824211   -0.70035275554212   -1.83139271229461
C        -1.95572846936233   -1.42372644718851   -2.58631457585615
C        -1.57640952905502   -2.59481490639560   -1.82396462768311
C        -2.33692296055007   -2.59478959084138   -0.59609694346616
C        -3.19196160190774   -1.42716298394848   -0.60586613283252
C        -0.99707401151767   -0.72564006603484   -3.31710243562673
C        -0.99795126826787    0.72331099062827   -3.31846027824099
C         0.37696783429996    1.17229579377041   -3.31943498614511
C         1.22644233800315    0.00230562041378   -3.32298422143732
C         0.37748365311338   -1.17196682437305   -3.31714750911276
C        -1.74990557949912   -0.02047381317425    4.82668503447572
F        -0.74625091775427   -0.02936407629929    5.70302142646531
F        -2.50874737835573   -1.08718586517850    5.07356167731281
F        -2.47362453861894    1.04672165206249    5.12978244579714
C        -4.09594330115831    1.69845544316733    2.62787130224100
F        -5.01262567958316    0.74197433372651    2.75996501530589
F        -4.66945524809695    2.73042892154113    2.01643401368064
F        -3.78719885594892    2.12465338185958    3.84280681988719
C         4.63573741024384   -2.07557470489346    0.87647802090916
F         4.63338274486087   -2.80059557492552    1.99296710914710
F         5.00495145848737   -2.87633438261319   -0.12061069296868
F         5.57183421646511   -1.13820350984768    1.00759100108740
72
 energy: -177.455350614722 gnorm: 0.061196887711 xtb: 6.4.1 (a3dbbd7)
C        -1.26512949426129   -0.01002522514294    3.43918828028016
C        -0.33271948356123   -1.19788108985895    3.28221363658887
C         0.98970847943278   -0.71712322982027    3.29718769767835
C         0.99013620842434    0.72848669731996    3.29002292495400
C        -0.33793797975677    1.19209649373764    3.28835891420868
C         2.27314199768706   -2.59016300066629    0.58698914680684
C         3.32747850541312   -1.48726322028705    0.61991975632112
C         2.89881622532051   -0.66901394890852    1.83416739793883
C         1.94917623389005   -1.41290987448237    2.55952929555372
C         1.55963758239690   -2.57812432428983    1.80146432798262
C         3.18047567910995    1.42193003073124    0.58493161640073
C         2.33579867175812    2.58225823617791    0.58475462525018
C         1.58677168956647    2.59193480420417    1.81499681834131
C         1.96229825342049    1.43981729807791    2.57687479460850
C         2.92743249188302    0.70738813912036    1.81551120943510
C        -0.34235410366406    3.47259274331124    0.58578136719007
C        -1.71039187336084    3.00453555444671    0.58978605453329
C        -1.92413664133009    2.33522849077076    1.80682556285158
C        -0.71585126235051    2.29157405446263    2.53716910952511
C         0.27117611415135    3.03677555756327    1.80504046929474
C        -3.38890758502608    0.69447738533008    0.52140320073927
C        -3.39579038419145   -0.71834747922893    0.55667256957780
C        -2.76148550694672   -1.15126282458713    1.78750885870011
C        -2.42926409994786   -0.04412478463038    2.51805293041101
C        -2.93537685007222    1.22032791199806    1.87217053837001
C        -1.73735443109660   -3.01417750934751    0.59298076151159
C        -0.36722907859715   -3.46732204045112    0.59065547381385
C         0.24217861278153   -3.04100297951514    1.81027366275831
C        -0.73340076265273   -2.30640537212339    2.55580056996734
C        -1.96906994993358   -2.31739837088552    1.81802520779296
C        -0.24917593291659   -3.01856686852669   -1.82122189633516
C         0.74501001619659   -2.29286417219859   -2.57425729201936
C         1.96850148263718   -2.29538737430498   -1.83049618530024
C         1.71487193250671   -3.00389799653077   -0.59466377222059
C         0.35559627168085   -3.46360595331299   -0.59833800774264
C         2.76922492351775   -1.14769762068390   -1.82763446402601
C         2.40117993656891    0.01352724592760   -2.59630620327519
C         2.78276872944456    1.18060640838860   -1.84094845455501
C         3.38329486862165    0.72490517945608   -0.61022003966408
C         3.38009893512954   -0.67987894018532   -0.65068880822760
C         1.96976857173192    2.29543598008063   -1.83005702055567
C         0.74095696168872    2.29492924697348   -2.58156195936117
C        -0.24193850609455    3.01516115312402   -1.82193025817084
C         0.37794289626055    3.46350505659722   -0.59789450445757
C         1.74059801262937    3.01560343709426   -0.59668033519060
C        -1.56734327251327    2.58240918406184   -1.81602988640939
C        -1.94610008445546    1.41425680460880   -2.58125939734980
C        -2.94374708682074    0.69163929138517   -1.84021537957305
C        -3.16448302115469    1.40826890090813   -0.62075432072782
C        -2.32089646678488    2.58819281682656   -0.60232907210259
C        -2.94497691038160   -0.70102424329135   -1.83210987347129
C        -1.94850458468619   -1.42063798814636   -2.57927753620457
C        -1.57164703623662   -2.58748729155774   -1.81862938026689
C        -2.32789039183400   -2.58947087947147   -0.60045030126012
C        -3.18086135366384   -1.42351134457996   -0.61623346477089
C        -0.99155605754125   -0.72357560565251   -3.30546281962650
C        -0.99267407787054    0.72102173451410   -3.30805541362463
C         0.37495072141589    1.17005804296754   -3.31336925587634
C         1.21924630716351    0.00572744228368   -3.31459343196077
C         0.37501107813346   -1.16640431494432   -3.30731041789198
C        -1.76209586157843   -0.03332736784735    4.91011838834061
F        -0.73575992135665   -0.05373486447394    5.76019119558772
F        -2.52575878124472   -1.10578032713075    5.12223130994142
F        -2.46288968261445    1.03813726297988    5.22484534505542
C        -4.15871316046668    1.72545338764514    2.64511430306093
F        -5.05857548638521    0.75023577142315    2.77886774146039
F        -4.71852290907970    2.74718816656367    1.99924302991509
F        -3.85437775221443    2.18589267708338    3.84345519190957
C         4.69110616081332   -2.09984326241493    0.88885014111137
F         4.67234011104075   -2.82286225424882    2.00811821292353
F         5.04343906052267   -2.89707585555759   -0.11948263151085
F         5.61452000393010   -1.14734800630670    1.01730338981599
72
 energy: -177.466713022725 gnorm: 0.036108553685 xtb: 6.4.1 (a3dbbd7)
C        -1.28959867083419   -0.00396012000423    3.48659997575809
C        -0.34837601990740   -1.18798027298290    3.28581739368727
C         0.97845740316163   -0.71497735085726    3.27915616061206
C         0.97920211169627    0.72830468092029    3.27575508177230
C        -0.35412605093109    1.18966777205660    3.29662558967397
C         2.29978853634350   -2.59534468983022    0.57864578429148
C         3.36941210325499   -1.50583568012529    0.61892112743471
C         2.91986643742810   -0.67980201869524    1.82247992440764
C         1.94915889966420   -1.40753988855024    2.53998518933684
C         1.56606004943526   -2.57415922092992    1.78577102873387
C         3.18550169142066    1.41805682336340    0.57541275773470
C         2.33885777343604    2.57973433325913    0.57443300769990
C         1.58586948585351    2.58748634428432    1.80346453838433
C         1.95762628691255    1.43187180577451    2.55981750378839
C         2.93529053410057    0.70053703549542    1.80244004508204
C        -0.34359157850159    3.46632233061500    0.57918633033076
C        -1.71494227090109    2.99846012795649    0.58674616684800
C        -1.94437476898502    2.33229239454953    1.80717694812718
C        -0.73005676509170    2.28464852617304    2.53647248852078
C         0.26642951985498    3.02469523426051    1.79667250381270
C        -3.40163474964250    0.70725470480492    0.53358126402369
C        -3.38770463959004   -0.70716910066120    0.55365428399512
C        -2.75376374507377   -1.13558479459337    1.78856869312882
C        -2.44128324893460   -0.02828491761946    2.54100630253450
C        -2.97393037923110    1.23406439501851    1.89873133919424
C        -1.73401011723759   -3.00891085239901    0.58603310419245
C        -0.36396043223817   -3.46319912220255    0.58223818703609
C         0.24463736634267   -3.02888319041219    1.79898689710071
C        -0.73792014420811   -2.29901872483811    2.55457218968783
C        -1.96670926202328   -2.31019013270794    1.81333218938403
C        -0.24589679616833   -3.01761876124722   -1.82861177715331
C         0.74728059131605   -2.29062130792293   -2.58076665952950
C         1.97323448146066   -2.29594762731077   -1.83989722472260
C         1.72720460421060   -3.00372530993074   -0.60243056130712
C         0.36187524405028   -3.45726150723211   -0.60584243086087
C         2.77395721195431   -1.15035717077631   -1.83064864452782
C         2.40075359928607    0.01109504013596   -2.60234794618956
C         2.78292016761651    1.17706263531871   -1.84756084450061
C         3.38756553339029    0.71587387085569   -0.61655257042597
C         3.39722515915415   -0.69234429533543   -0.64994787278372
C         1.97040778063819    2.29340424640271   -1.83882601489398
C         0.74136231303490    2.29578866839566   -2.59088552893199
C        -0.23993137227795    3.01582556308087   -1.82998315914736
C         0.38001897204042    3.46103089883970   -0.60477253171458
C         1.74397751051488    3.01597334828800   -0.60577272422041
C        -1.56482469782454    2.58192123939165   -1.82065385318980
C        -1.94431770467406    1.41513639808031   -2.58673150050663
C        -2.93946370982581    0.69374372521510   -1.84107594831320
C        -3.16773363560148    1.41249759921293   -0.61897225602951
C        -2.32133402707596    2.58981360477638   -0.60819452388539
C        -2.94359434776791   -0.69906201266297   -1.83849121358925
C        -1.94807183968448   -1.42049183760094   -2.58668924337963
C        -1.56939523508428   -2.58667601359724   -1.82504345413061
C        -2.32440819498160   -2.58719150244061   -0.60715977662140
C        -3.17449139985556   -1.41619269372319   -0.62022003474262
C        -0.99150286599579   -0.72290543135649   -3.31177363285587
C        -0.99266948955700    0.72165526869216   -3.31535875306707
C         0.37457689503153    1.17096842892282   -3.32316888201123
C         1.21848812406919    0.00623160411202   -3.32185801091419
C         0.37489859677609   -1.16528288740715   -3.31337586601579
C        -1.77339319554917   -0.03868220879341    4.95773661562735
F        -0.73827716559306   -0.08230964011008    5.80252285210088
F        -2.53683579701031   -1.11197512498754    5.17590426656736
F        -2.47546677988370    1.03535603326135    5.28809576246517
C        -4.20867875582835    1.75015436617439    2.65560342179670
F        -5.11644112864332    0.78127766651058    2.80299803975327
F        -4.78130252801962    2.75930731374240    1.99066304157827
F        -3.91147673346302    2.22255519716605    3.85821078430768
C         4.74102106510430   -2.12025829127294    0.89047411971686
F         4.73663740484334   -2.84631422171203    2.01060364987547
F         5.11037586215632   -2.92286144963492   -0.11005909919358
F         5.67531683036954   -1.17609907009042    1.02270923403060
72
 energy: -177.472030755086 gnorm: 0.012996587264 xtb: 6.4.1 (a3dbbd7)
C        -1.31005672752154   -0.00049859999764    3.53335557180038
C        -0.36280187098915   -1.17822878230983    3.28751799744042
C         0.96803724668279   -0.71426153475956    3.25833809104153
C         0.96752815515269    0.72637380286201    3.25992309789505
C        -0.37255058090588    1.18466221814337    3.30140058951427
C         2.32940729406398   -2.60341670174890    0.56900243786425
C         3.40480729698746   -1.52296895775558    0.61816704249514
C         2.94145303769311   -0.69245750469267    1.81174619586396
C         1.94794997722074   -1.40221293549999    2.52003477949149
C         1.57236969634940   -2.57135761687489    1.76915400404276
C         3.18944567058374    1.41480649535175    0.57049680055419
C         2.33886933958986    2.57722901323103    0.56651445812665
C         1.57980001086943    2.57926873798385    1.79155482249172
C         1.94843566585215    1.41931506373643    2.54271346530600
C         2.93970649743919    0.69223794388014    1.79166909253905
C        -0.34909744926322    3.45517169415376    0.57230383636024
C        -1.72470413018068    2.99524675111486    0.58174223748702
C        -1.96468456586759    2.32591196790865    1.80158192058753
C        -0.74677540697306    2.27460804752383    2.53320178109055
C         0.25761722143882    3.00737109405587    1.78696247605635
C        -3.41492055733129    0.72389375696141    0.54795025756630
C        -3.37522367563451   -0.69238981786023    0.55490559945350
C        -2.74261710597278   -1.11567181925025    1.79379944445972
C        -2.45038821194300   -0.01069401465070    2.56621679629165
C        -3.00740450233117    1.24741737625855    1.92230379931693
C        -1.73051322666009   -3.00058684604815    0.58005740560241
C        -0.36105774659134   -3.45574119926843    0.57479629140148
C         0.24977324983680   -3.01507899581924    1.78760671298897
C        -0.73913136147943   -2.29063650353375    2.55078594466316
C        -1.96235770802952   -2.29801486037444    1.80924242526228
C        -0.24146302547397   -3.01502923381340   -1.83430052892424
C         0.75106256366296   -2.28992082325871   -2.58899231829833
C         1.97983297755996   -2.29809412583347   -1.85007830446709
C         1.73961582081702   -3.00530166875072   -0.60957277307871
C         0.36871933954441   -3.45044691401838   -0.61153317570022
C         2.78122380972811   -1.15527122525832   -1.83212768610741
C         2.40123478622191    0.00696706160502   -2.60316972628278
C         2.78249262763194    1.17100389226986   -1.84870284375617
C         3.39231308023505    0.70587360821867   -0.61801928646260
C         3.41195929871054   -0.70559774343745   -0.64465502706268
C         1.97154991224586    2.28988499189059   -1.84475861577472
C         0.74311745730832    2.29531024207772   -2.59897096666250
C        -0.23912342416299    3.01627398938000   -1.83858789727891
C         0.37916440280849    3.45711179413136   -0.61054685966636
C         1.74467282738683    3.01518637485340   -0.61240003400344
C        -1.56423359289758    2.58391546482382   -1.82755659354887
C        -1.94309480357254    1.41616068803610   -2.59098667689069
C        -2.93565169432497    0.69642513461700   -1.83848964106642
C        -3.17191558095897    1.41741998729418   -0.61637655435251
C        -2.32572156525417    2.59469635628138   -0.61638203800317
C        -2.94164785236620   -0.69549887838913   -1.84061098752754
C        -1.94776376277703   -1.41935344807611   -2.59312048789258
C        -1.56650682738773   -2.58391546056451   -1.82971229163480
C        -2.31949126650072   -2.58046770644883   -0.61075201369778
C        -3.16728254298498   -1.40511280147343   -0.61843409482791
C        -0.99137589716552   -0.72253056999981   -3.31863132934444
C        -0.99251139383948    0.72228492953939   -3.32254896619813
C         0.37608337251588    1.17038933883850   -3.33228027340003
C         1.22010169294038    0.00532351059795   -3.32761821619980
C         0.37616237317441   -1.16514222445458   -3.32033221515083
C        -1.77954918283204   -0.04728154124023    5.00244192415770
F        -0.73718078452931   -0.11667014062499    5.84169815692076
F        -2.54390234973746   -1.11949438749531    5.23067422753309
F        -2.48146927010679    1.02874040260056    5.35169195709250
C        -4.25244266826715    1.77538693690356    2.66041836678137
F        -5.16873956600705    0.81459511299521    2.82349577536550
F        -4.83767679563576    2.76683179595703    1.97199578416917
F        -3.96549168751940    2.26431778935378    3.86590057559379
C         4.78401302492959   -2.13639090704715    0.88950367429500
F         4.79274214681286   -2.86523370226120    2.01031283182730
F         5.16997303319615   -2.94285892488695   -0.10421319265769
F         5.72705135701122   -1.19873346510119    1.02541621190714
72
 energy: -177.472705670970 gnorm: 0.008620544860 xtb: 6.4.1 (a3dbbd7)
C        -1.31709433670952   -0.00187871652409    3.55229826467247
C        -0.36749104905829   -1.17562928801626    3.28751858614495
C         0.96454304802946   -0.71543488393289    3.25080529052640
C         0.96188009763423    0.72421065111012    3.25357481573298
C        -0.38124983582205    1.18049852555529    3.30047249781451
C         2.34064949439184   -2.60786409631990    0.56535503648258
C         3.41855453835379   -1.52993166586402    0.61821636144121
C         2.94908013330220   -0.69792566392027    1.80883345609164
C         1.94753483150041   -1.40094489171912    2.51327997535266
C         1.57535428040350   -2.57147576669540    1.76316178119356
C         3.19043750990768    1.41251923725508    0.57047893041898
C         2.33681539511456    2.57421866588800    0.56473545421248
C         1.57467032224700    2.57332324920585    1.78669807767353
C         1.94263169618912    1.41167993516224    2.53640275515468
C         2.93955266404652    0.68798077405289    1.78875342073737
C        -0.35348918611267    3.44900273738547    0.56971205010377
C        -1.73106923919472    2.99498834904609    0.57959857838715
C        -1.97318265154604    2.32277684086717    1.79734358078194
C        -0.75473454976228    2.26783098383791    2.52956051192037
C         0.25188022403163    2.99757583518769    1.78251515723725
C        -3.41953908136284    0.73067124963723    0.55316697968755
C        -3.36982731140429   -0.68528632093132    0.55735023737542
C        -2.73929049611297   -1.10675269417424    1.79834017250630
C        -2.45596891244249   -0.00470132291169    2.57797286390227
C        -3.02020349507466    1.25321925525118    1.93109508081439
C        -1.72830351055316   -2.99486585519722    0.57868759788518
C        -0.35971614324863   -3.45120084341205    0.57248733802332
C         0.25279381618337   -3.00955546821623    1.78379855623847
C        -0.73835052761498   -2.28747015419640    2.54828414391054
C        -1.96084985434935   -2.29151693055916    1.80849843923931
C        -0.23872180861143   -3.01305285593467   -1.83548062291783
C         0.75395627416439   -2.29043129964284   -2.59232105749184
C         1.98404946793844   -2.30032649405493   -1.85413512926931
C         1.74446405103011   -3.00676924827907   -0.61159154364992
C         0.37207000263082   -3.44788314742019   -0.61279226515091
C         2.78559264825298   -1.15823997879878   -1.83247750615812
C         2.40256113881026    0.00434238398048   -2.60206256791488
C         2.78225012718823    1.16713980340766   -1.84726900587349
C         3.39414992325711    0.70087639868739   -0.61718301433315
C         3.41703381659860   -0.71055989659841   -0.64223319294213
C         1.97193907647000    2.28708206603192   -1.84557527854683
C         0.74408475612422    2.29397430514983   -2.60076322435225
C        -0.23975406466919    3.01558553657348   -1.84167278075529
C         0.37709851366814    3.45444351851306   -0.61193881629513
C         1.74286526334448    3.01255093163434   -0.61344094925192
C        -1.56570300070811    2.58579954958161   -1.83116859380183
C        -1.94309159368579    1.41691834019600   -2.59270483660291
C        -2.93500601816474    0.69828207382599   -1.83684319084839
C        -3.17424181356496    1.41963619165303   -0.61568151829179
C        -2.33029175167450    2.59831063596531   -0.62073694759227
C        -2.94007882057860   -0.69274061475002   -1.83976396876433
C        -1.94666809813423   -1.41757867420264   -2.59443767023334
C        -1.56415121182262   -2.58113463854998   -1.83054460908832
C        -2.31587955736449   -2.57453748373998   -0.61071615575494
C        -3.16363227478448   -1.39877315212488   -0.61553019221899
C        -0.99059908169730   -0.72206955196351   -3.32112945716546
C        -0.99227778801188    0.72283217271695   -3.32505807254498
C         0.37759666566315    1.16922391341066   -3.33468745280076
C         1.22213044268617    0.00426840065685   -3.32943525147910
C         0.37771943456913   -1.16549504452346   -3.32295439148526
C        -1.78026561996558   -0.05329908314506    5.02080931222908
F        -0.73624512835767   -0.13304975192809    5.85747943912541
F        -2.54731175963209   -1.12315574793241    5.25396199130462
F        -2.47961145050923    1.02346070447083    5.37836713427758
C        -4.26874984450896    1.78865669568738    2.65925687520535
F        -5.18957512540805    0.83332111192367    2.83084885811873
F        -4.85474298077966    2.77062865569198    1.95763118805155
F        -3.98730736025852    2.28917205865975    3.86292552760561
C         4.80219733401641   -2.14065566820867    0.88596018323880
F         4.81769200918136   -2.87104865205240    2.00638066007945
F         5.19250870632640   -2.94611786419009   -0.10753490295866
F         5.74569453223132   -1.20259754467750    1.02138025041385
72
 energy: -177.472853116265 gnorm: 0.006747831358 xtb: 6.4.1 (a3dbbd7)
C        -1.31781521805561   -0.00424982185019    3.55683564753109
C        -0.36843119861869   -1.17614521637567    3.28790729971359
C         0.96427394936194   -0.71682785177481    3.25050875429469
C         0.96044300298495    0.72277221550321    3.25264338112895
C        -0.38422988660423    1.17767499581651    3.29917029039715
C         2.34266821391770   -2.60942964054259    0.56536456998765
C         3.42065254257163   -1.53111127244215    0.61880474975389
C         2.95069766675266   -0.69946627252120    1.80959675258703