63
 energy: -142.082559336067 gnorm: 0.137319438166 xtb: 6.4.1 (a3dbbd7)
C        -1.29585809770389    0.00401118895665    3.54517689253707
C        -0.36796043462932   -1.17243305037605    3.30515820978008
C         0.98298838983527   -0.72191219207564    3.27512267938171
C         0.98156472667820    0.71960753568128    3.26971969810914
C        -0.37066843460465    1.17924059903467    3.30150764336582
C         2.33648296603916   -2.58548060331365    0.57950289353032
C         3.18657767574002   -1.41946403927647    0.57781419519059
C         2.94957050639235   -0.69854930596759    1.80123308070154
C         1.95308396824160   -1.41752165468763    2.55613481575760
C         1.57961582989334   -2.57968580837377    1.80518673242103
C         3.18767024140451    1.40991878522763    0.57593180000620
C         2.33807592116844    2.57402574447607    0.57591940981122
C         1.57683795432701    2.56605672107525    1.79975339071644
C         1.95304946465436    1.40835201077487    2.55205927518980
C         2.95072023087345    0.68875745016373    1.80098024572921
C        -0.36516779407368    3.42666371337356    0.57921714423118
C        -1.72924376763824    3.01648005769000    0.58287705261872
C        -2.09463355992581    2.46231283092052    1.94730853815858
C        -0.73027134402217    2.28553619303067    2.58224921102021
C         0.24829448349984    2.97593693112150    1.80334175266563
C        -3.37466967425340    0.70300551354290    0.57574930054980
C        -3.39003092747716   -0.73268815647906    0.56838248265369
C        -2.76818811332164   -1.16356142379097    1.78871572221350
C        -2.38904763706855    0.02437925876362    2.53264263719760
C        -2.74834472563595    1.12995086275151    1.81420011519069
C        -1.73481952350512   -3.00995345714269    0.57938225060336
C        -0.36149853481650   -3.44686666227317    0.58178847315895
C         0.25217194581416   -2.99475012292755    1.80551621994623
C        -0.72930832442940   -2.27346636839910    2.56467955448571
C        -1.97147545426586   -2.28746259170963    1.79868366133100
C        -0.24419850626392   -3.01431906333444   -1.82647673840836
C         0.74940205407495   -2.29291975825760   -2.58286291053874
C         1.97453700933417   -2.29239152843074   -1.82543977586922
C         1.74139873400736   -3.01127177410490   -0.59946235558356
C         0.36858334367966   -3.45436466613801   -0.59762914044760
C         2.79442417392884   -1.17031401259636   -1.82833550603033
C         2.41574661888024   -0.00512369156855   -2.58546959716668
C         2.79806943075341    1.16104826420258   -1.83045397172065
C         3.41356646771945    0.71553904943849   -0.60565027142670
C         3.41126633561149   -0.72579612454708   -0.60436594395851
C         1.98256115248497    2.28538932455247   -1.82964816243281
C         0.75350030257848    2.28551308199782   -2.58573232036207
C        -0.23508280213456    3.00436687409655   -1.82344140492918
C         0.37359850932028    3.44286488622179   -0.60220138863872
C         1.74684322376492    3.00246743943424   -0.60372642363492
C        -1.55566653231806    2.56818250386052   -1.80941223575869
C        -1.93859434646944    1.40592010794080   -2.57168095880615
C        -2.93551210457882    0.68461262535792   -1.82146846772098
C        -3.16898901542976    1.39767486975662   -0.59605965548237
C        -2.30435127723071    2.57332623923171   -0.58497549467516
C        -2.94114405309208   -0.70773319324488   -1.83440725641731
C        -1.94505174577217   -1.42387954875747   -2.59102123506710
C        -1.56548890447542   -2.59170746585215   -1.83211639425372
C        -2.32839595515909   -2.59312664323360   -0.60918315818311
C        -3.17773883494341   -1.43218193772331   -0.61434027474195
C        -0.98775846759569   -0.72638522820754   -3.31322849837523
C        -0.98659864719709    0.71557045430270   -3.30737103326374
C         0.38544609985482    1.16109326139683   -3.31071431261235
C         1.23106807703669   -0.00470839638716   -3.31198800126459
C         0.38446650889097   -1.17000629330740   -3.31255499443923
Cl       -1.95494402230001   -0.00808767739961    5.23350834621500
Cl       -3.13453400437008    3.62205440029917    2.87428256883422
Cl        0.56224929524745   -5.22724825038275   -0.90662314673069
63
 energy: -142.106527457529 gnorm: 0.059076874725 xtb: 6.4.1 (a3dbbd7)
C        -1.29806701155841    0.00850867404284    3.54933514828412
C        -0.37057151279365   -1.16758136207601    3.31239639995221
C         0.98155625586471   -0.71899446040182    3.27944838219897
C         0.98074542195406    0.72030401249361    3.27126851777452
C        -0.37143342283414    1.18159468483540    3.30340863473729
C         2.33412284966866   -2.57142229913129    0.57577796245660
C         3.19154240254336   -1.41463911389981    0.57651491298971
C         2.94879756977224   -0.69665614485849    1.79967539354437
C         1.95136077932385   -1.41630456975352    2.55560617356294
C         1.57691120609546   -2.57374081007294    1.80691386547024
C         3.18790590660451    1.41190786296368    0.57518514540265
C         2.33834015787033    2.57497354743300    0.57571678339891
C         1.57663138957936    2.56596300830448    1.79980967836538
C         1.95300645294466    1.40937220738772    2.55226223769708
C         2.95004779696201    0.69007090763182    1.80010378823715
C        -0.36534908781836    3.42698340445035    0.57965695953823
C        -1.72925309080411    3.01686281225338    0.58327632117869
C        -2.09493609283248    2.46401694906329    1.94804193197929
C        -0.73065462930789    2.28683504067813    2.58315124767977
C         0.24801140833961    2.97635397695718    1.80325105119930
C        -3.37550531956105    0.70333486464825    0.57681136238255
C        -3.39279612620042   -0.73005263049615    0.57120985506681
C        -2.77273859258102   -1.15890263647646    1.79405403613493
C        -2.39106300465090    0.02861834373411    2.53661794003782
C        -2.74908786661977    1.13216538913332    1.81575770856656
C        -1.73209594862466   -2.99849565282805    0.58733708718897
C        -0.37514790040885   -3.45345135529363    0.60308457497527
C         0.24350742465061   -2.98265097183491    1.80668373380871
C        -0.73645307965304   -2.26696130514546    2.57502305079447
C        -1.97717577017739   -2.28117006757809    1.80958939212971
C        -0.24639349578212   -2.99861626715431   -1.83362514246727
C         0.74632064987954   -2.28154760371417   -2.57939493132566
C         1.97283433564025   -2.28122125727214   -1.82141089670604
C         1.74841134038367   -2.99590819008792   -0.60058416752690
C         0.38127643230425   -3.56004132368719   -0.61809287558255
C         2.79967168849358   -1.16280007084496   -1.82950891619562
C         2.41766876346441    0.00019651976552   -2.58781573902733
C         2.79982772991190    1.16540391953924   -1.83216790517075
C         3.41557240251442    0.71940788317504   -0.60732437406892
C         3.41693266200032   -0.72079092295815   -0.60735987193918
C         1.98295773804656    2.28848539719771   -1.83019014920864
C         0.75374742657042    2.28862646433415   -2.58639485148850
C        -0.23495337350693    3.00597312930222   -1.82344096917306
C         0.37374727581516    3.44392791085132   -0.60234254101016
C         1.74673196969427    3.00416892325061   -0.60400676582659
C        -1.55559023256462    2.56896556544510   -1.80962788607314
C        -1.93800088239510    1.40798413615651   -2.57215312446164
C        -2.93436464991277    0.68588526705071   -1.82124310631505
C        -3.16933078082442    1.39878843049790   -0.59582550010467
C        -2.30464054033097    2.57299386961126   -0.58433945221186
C        -2.93962078845138   -0.70569050157499   -1.83478977712697
C        -1.94608947730807   -1.41852968966429   -2.59630875807210
C        -1.56124882545836   -2.57715127253697   -1.83183120386177
C        -2.32977986586760   -2.58791673842345   -0.60705915356922
C        -3.17650714231303   -1.43150684605594   -0.61366189040820
C        -0.98751254591082   -0.72093838533981   -3.31990368464148
C        -0.98594780295813    0.71968398076418   -3.31020367720287
C         0.38614127192464    1.16561500711509   -3.31315064967868
C         1.23232165844225    0.00063177198728   -3.31483878538760
C         0.38315124575568   -1.16213917683536   -3.31814386689065
Cl       -1.95589036783842   -0.00551313839281    5.23747315835126
Cl       -3.13514314337954    3.62357379422234    2.87445091542616
Cl        0.58173683324190   -5.37234480347953   -0.93646777342621
63
 energy: -142.112485286874 gnorm: 0.013628019957 xtb: 6.4.1 (a3dbbd7)
C        -1.29970711344965    0.01280256044084    3.55314657395785
C        -0.37179359905115   -1.16300179115459    3.31291423412944
C         0.98024237362429   -0.71514487032120    3.28118817358393
C         0.97940853692723    0.72239675195442    3.27190401662536
C        -0.37277978355414    1.18558797004644    3.30566916860510
C         2.33007477312244   -2.57022286523554    0.56995245772251
C         3.18437445741393   -1.41119134790909    0.57354636298619
C         2.94529130592297   -0.69404602215628    1.79736181039419
C         1.94763378398251   -1.41556943079526    2.55233511290597
C         1.57674285935778   -2.57330076514067    1.80785574980835
C         3.18770852882809    1.41535568404863    0.57474856116485
C         2.33772504949310    2.57743234154708    0.57581552215968
C         1.57561580243090    2.56797043679491    1.80023096451240
C         1.95208922348549    1.41228425287585    2.55231170970368
C         2.94849922245664    0.69245555492852    1.79932694959761
C        -0.36582595930835    3.42975531758792    0.58078191912724
C        -1.72964358845784    3.02004929727543    0.58448315887782
C        -2.09580480510925    2.46773864207192    1.94930010875012
C        -0.73161192812301    2.29024234343156    2.58468493286714
C         0.24712512155792    2.97925646714400    1.80386544480320
C        -3.37560979486747    0.70522766412574    0.57787005602955
C        -3.39405928419300   -0.72641605568649    0.57308631750950
C        -2.77306648601136   -1.15459698251418    1.79538144068295
C        -2.39342322102926    0.03301623073082    2.54032769884142
C        -2.75004254300438    1.13582094055843    1.81788178709796
C        -1.72270540306170   -2.99294640976314    0.58591992274985
C        -0.37722462782174   -3.44896155252723    0.60573840819431
C         0.24042806342537   -2.97683904913836    1.79767668336461
C        -0.73716427315285   -2.26080808499859    2.57353078238002
C        -1.97566091905662   -2.27520143098730    1.80962796271190
C        -0.24636489489903   -3.00160962683782   -1.83769619353913
C         0.74049358822121   -2.27764399946904   -2.56975557767941
C         1.96717634357130   -2.27750298889756   -1.81233279075619
C         1.75221827278737   -2.99913819956151   -0.60238093317807
C         0.39427195162058   -3.65284409950584   -0.63870929196712
C         2.79775698857304   -1.15855647309166   -1.82730464622467
C         2.41728007710262    0.00438017335288   -2.58734314926264
C         2.80023044891136    1.17031615051730   -1.83299037702161
C         3.41701546859060    0.72400726978996   -0.60839393369550
C         3.41493277514238   -0.71611690325423   -0.60908272436675
C         1.98314262322438    2.29354850537348   -1.83035693826647
C         0.75389925692146    2.29371128245896   -2.58653853856640
C        -0.23489111409776    3.00977493464627   -1.82268774121969
C         0.37352198504688    3.44745222990705   -0.60162253907566
C         1.74622124112611    3.00796320724933   -0.60379065017347
C        -1.55527300614693    2.57142091272190   -1.80876296411670
C        -1.93741587559542    1.41156004375569   -2.57179484414057
C        -2.93302690584694    0.68832668715567   -1.81993661518945
C        -3.16921986165865    1.40198596390821   -0.59481132012248
C        -2.30481757925063    2.57500881312821   -0.58277177099060
C        -2.93608498965266   -0.70291610319324   -1.83245179158887
C        -1.94015804702967   -1.41481922976248   -2.59081625674028
C        -1.55431762823291   -2.57586470419782   -1.83065204778767
C        -2.33144605412041   -2.58793716811737   -0.60699121370540
C        -3.17223901079751   -1.43116372697109   -0.61195256230412
C        -0.98499297009034   -0.71602359926183   -3.31868153914663
C        -0.98557730721497    0.72447663996033   -3.31183738919077
C         0.38669983390008    1.17069673951082   -3.31387214592056
C         1.23203579305094    0.00480326808719   -3.31427668449549
C         0.38193795590534   -1.15771910533255   -3.31563566676512
Cl       -1.95740715201722   -0.00013718770963    5.24112121553944
Cl       -3.13646352132487    3.62715571833916    2.87497348290109
Cl        0.59222161653158   -5.48124313352521   -0.95264288872635
63
 energy: -142.112798451610 gnorm: 0.008173850753 xtb: 6.4.1 (a3dbbd7)
C        -1.30012293179016    0.01404121378348    3.55401567858310
C        -0.37198583564101   -1.16192698120841    3.31193035903504
C         0.97992562063521   -0.71384276475230    3.28114209726194
C         0.97898889624728    0.72340467903518    3.27185047205445
C        -0.37322431744391    1.18710205499908    3.30620724570177
C         2.32956011729634   -2.57442605398357    0.56820585538347
C         3.17905991907562   -1.41084563829420    0.57181250405892
C         2.94235887286394   -0.69319567685165    1.79570514382840
C         1.94617778638000   -1.41554397400798    2.55125380516869
C         1.57803680051628   -2.57479121962606    1.80879190276922
C         3.18694444475524    1.41701098258920    0.57467444030792
C         2.33739571923746    2.57927454170456    0.57602017954262
C         1.57511169294420    2.56948407298085    1.80053420023483
C         1.95153698784317    1.41376624006660    2.55229305213325
C         2.94708462448172    0.69333993351790    1.79871240526165
C        -0.36614461952771    3.43159246267821    0.58136852009196
C        -1.73003765242298    3.02196542634002    0.58513873435134
C        -2.09645672397341    2.46955856037268    1.95001032207761
C        -0.73206482840475    2.29186051346796    2.58533179453581
C         0.24666548549123    2.98111291149976    1.80436725836484
C        -3.37544472178917    0.70618494947117    0.57806026952791
C        -3.39401173930712   -0.72513628314517    0.57321629459890
C        -2.77225978737558   -1.15348187167933    1.79488021363068
C        -2.39421890126239    0.03430904754327    2.54123949785774
C        -2.75048178796842    1.13723511147013    1.81859194894150
C        -1.71912972093760   -2.99382895808253    0.58305593344728
C        -0.37475884226150   -3.44714502237971    0.60153860283062
C         0.24119016440589   -2.97765215697354    1.79316937834827
C        -0.73581130493489   -2.25876566475903    2.57012185703944
C        -1.97337240700336   -2.27313569101342    1.80675499276306
C        -0.24570636601441   -3.01126119160809   -1.83999989384433
C         0.73870523419134   -2.27918038938698   -2.56670837273838
C         1.96542241068724   -2.27911727801802   -1.80949388799490
C         1.75417909877774   -3.00896906411888   -0.60398882425658
C         0.39839775765295   -3.67534364493604   -0.64517261952298
C         2.79460074379806   -1.15796310187169   -1.82585517949429
C         2.41602945025293    0.00576324453611   -2.58585760429143
C         2.79995276961427    1.17240053822352   -1.83281905475392
C         3.41676722656084    0.72579480347929   -0.60838840318678
C         3.41222497221162   -0.71483750211243   -0.60923548828133
C         1.98327893344625    2.29620837622413   -1.83033596997338
C         0.75390668677872    2.29637552744161   -2.58659333422372
C        -0.23497705637219    3.01221698606549   -1.82243022023114
C         0.37330794934095    3.44969245194715   -0.60115894101816
C         1.74612421143319    3.01043438222742   -0.60358848550518
C        -1.55524067787862    2.57324202391283   -1.80830765566906
C        -1.93692087202526    1.41325869273089   -2.57107519112914
C        -2.93191465013786    0.68926096145845   -1.81895179704430
C        -3.16908247691783    1.40357153174122   -0.59436031906704
C        -2.30493364866664    2.57648327042313   -0.58209393519857
C        -2.93333161089064   -0.70201253236255   -1.83059765432925
C        -1.93617388705812   -1.41443515358089   -2.58676131317887
C        -1.55252829588931   -2.58008370876421   -1.83102008060525
C        -2.33305867094303   -2.58951217770166   -0.60789613144119
C        -3.17071268473285   -1.43119961473388   -0.61129306266210
C        -0.98355380117486   -0.71468919179729   -3.31627477445303
C        -0.98538942232848    0.72633388061986   -3.31152450573853
C         0.38675758270530    1.17283595605703   -3.31353404438185
C         1.23131695585455    0.00619356924266   -3.31243837598986
C         0.38206530264356   -1.15708336459931   -3.31217963791586
Cl       -1.95652053126748    0.00333688572449    5.24238726180713
Cl       -3.13703424189919    3.62955945614983    2.87514624011497
Cl        0.59172667314586   -5.50030127896824   -0.95190873917252
63
 energy: -142.112898488139 gnorm: 0.004748981259 xtb: 6.4.1 (a3dbbd7)
C        -1.30032529829946    0.01410465997839    3.55420881939644
C        -0.37190502464790   -1.16189849911705    3.31166383306460
C         0.98014416182124   -0.71348611045879    3.28142440641389
C         0.97905165225871    0.72353820329143    3.27183060643590
C        -0.37326505703818    1.18723215569480    3.30611189519185
C         2.32931663378748   -2.57641428615886    0.56763260949040
C         3.17627606145719   -1.41069807689145    0.57084920504622
C         2.94083122934568   -0.69284507138616    1.79487194209149
C         1.94601065260307   -1.41567034944178    2.55135013335544
C         1.57945813873811   -2.57558651536492    1.81009931995701
C         3.18663057176674    1.41771549144579    0.57469266517114
C         2.33740626883474    2.58008367923383    0.57611591827809
C         1.57501441586826    2.56998286473872    1.80066357214170
C         1.95148163686176    1.41426339632188    2.55234005181043
C         2.94666522023435    0.69362457714048    1.79852215463436
C        -0.36622907304961    3.43194826391474    0.58147080147359
C        -1.73021613804983    3.02238616800988    0.58526378625177
C        -2.09673917299879    2.46987005405400    1.95019738744904
C        -0.73216918182829    2.29201936531623    2.58541419480306
C         0.24653571526014    2.98157138004014    1.80446694046027
C        -3.37550905924766    0.70632365943035    0.57792689130280
C        -3.39436296902172   -0.72472739361611    0.57303402828521
C        -2.77214674325695   -1.15337865769338    1.79450156039210
C        -2.39469143616218    0.03441088106048    2.54152182377493
C        -2.75078830886484    1.13739326344839    1.81877333513913
C        -1.71728156862846   -2.99434230125630    0.58090444257346
C        -0.37268871483147   -3.44439205194504    0.59808061489433
C         0.24213511597193   -2.97808981416755    1.79050356280022
C        -0.73482656800469   -2.25747903257681    2.56775171952248
C        -1.97187145904072   -2.27185829958629    1.80472791479689
C        -0.24547103396670   -3.01663104044848   -1.84072422110904
C         0.73757785230911   -2.27953720541212   -2.56479255560169
C         1.96433470594601   -2.27950103862951   -1.80766503094097
C         1.75487663782085   -3.01449083618034   -0.60451212505935
C         0.40027807123826   -3.68451161784537   -0.64806497781807
C         2.79253999564335   -1.15750275253257   -1.82491067337550
C         2.41526410488414    0.00643894234174   -2.58489096025633
C         2.80008808297876    1.17336679112710   -1.83267020415987
C         3.41687908140485    0.72672842857651   -0.60829708190960
C         3.41103629649846   -0.71423203191785   -0.60912070353731
C         1.98354317364356    2.29739408088781   -1.83047796834825
C         0.75397970983234    2.29754711153508   -2.58686900070871
C        -0.23499446481898    3.01319727103994   -1.82253259736705
C         0.37326011054708    3.45041593437844   -0.60107180689533
C         1.74623505782522    3.01144799550062   -0.60359276184199
C        -1.55528881900093    2.57400865499148   -1.80831913818556
C        -1.93671866757786    1.41395099810497   -2.57082035254760
C        -2.93156755272804    0.68953634834924   -1.81869996859947
C        -3.16915565177500    1.40410399517301   -0.59436262880166
C        -2.30503544886928    2.57690057044332   -0.58197856909662
C        -2.93191564590327   -0.70167632531255   -1.82969425806752
C        -1.93402603247065   -1.41432468450669   -2.58474617399131
C        -1.55190186655928   -2.58210057196663   -1.83114679311447
C        -2.33488679758331   -2.59030139196215   -0.60865401341067
C        -3.17071361854874   -1.43133133700702   -0.61123521512525
C        -0.98303634818344   -0.71409734249918   -3.31519355322248
C        -0.98544615516090    0.72727068765530   -3.31157071090100
C         0.38665495468342    1.17380724195973   -3.31359405133395
C         1.23086877078423    0.00687002967122   -3.31127439044482
C         0.38218660419230   -1.15661185554647   -3.30990702768652
Cl       -1.95532631917797    0.00460883289905    5.24289045898138
Cl       -3.13697021457583    3.63031955152829    2.87518156898054
Cl        0.58910579985777   -5.50216694944686   -0.94791368654078
63
 energy: -142.112939887782 gnorm: 0.002474298805 xtb: 6.4.1 (a3dbbd7)
C        -1.30036236857779    0.01371379758887    3.55414651826282
C        -0.37174101322832   -1.16226833545530    3.31180369460322
C         0.98053467645664   -0.71365049240578    3.28179160596804
C         0.97924197443945    0.72320523197806    3.27183610644787
C        -0.37316342250784    1.18680047324931    3.30583370253228
C         2.32916720662138   -2.57648970296922    0.56752406647905
C         3.17560624106435   -1.41064106774080    0.57048967722778
C         2.94061547020846   -0.69285693945338    1.79472353822608
C         1.94649126493606   -1.41588425127080    2.55183657421981
C         1.58037604465873   -2.57575046467955    1.81096419800384
C         3.18662658086418    1.41774258144803    0.57470465034959
C         2.33748392484328    2.58007637639589    0.57614863768026
C         1.57506113328190    2.56981245992279    1.80069707179681
C         1.95162336919953    1.41412969411193    2.55238910167631
C         2.94687599273169    0.69353786868558    1.79859371045280
C        -0.36622520407241    3.43158288566720    0.58141829699612
C        -1.73025212046559    3.02202308324025    0.58519180528080
C        -2.09676039933374    2.46943782873688    1.95013721972546
C        -0.73212947675950    2.29156287867139    2.58531136192754
C         0.24655220599613    2.98127083114708    1.80439822177913
C        -3.37560805945824    0.70599577142556    0.57775363369930
C        -3.39480534155989   -0.72483616501251    0.57279995384541
C        -2.77244767699635   -1.15371880811020    1.79437358124189
C        -2.39484310798580    0.03401768701633    2.54151875407735
C        -2.75086240586606    1.13696718334638    1.81870485401221
C        -1.71653066868087   -2.99413784444392    0.57985709799774
C        -0.37157604893203   -3.44171003725359    0.59623850403554
C         0.24266814613286   -2.97782993422382    1.78931675936283
C        -0.73443504307322   -2.25688123844441    2.56672972754910
C        -1.97127125688870   -2.27130538676309    1.80391946722518
C        -0.24546370499086   -3.01773718419266   -1.84052040441107
C         0.73707351312105   -2.27910309312465   -2.56395637771248
C         1.96386539396341   -2.27906310473539   -1.80683182238680
C         1.75475747357204   -3.01568054926840   -0.60441569105505
C         0.40077830074712   -3.68723131892124   -0.64881159338733
C         2.79188737069456   -1.15724313812310   -1.82464823771132
C         2.41507323071007    0.00659458436722   -2.58461202534939
C         2.80033890768694    1.17354494741233   -1.83262519334406
C         3.41717484321242    0.72700131427965   -0.60828984144039
C         3.41103102627874   -0.71407080314379   -0.60904301892587
C         1.98369645295881    2.29753095678273   -1.83058059140604
C         0.75402760962676    2.29767228640629   -2.58705558386075
C        -0.23498558640519    3.01316002507563   -1.82263897879138
C         0.37325296349774    3.45025719004278   -0.60108986169967
C         1.74629948722690    3.01142702288348   -0.60362897599819
C        -1.55533314986799    2.57397301356055   -1.80844385832757
C        -1.93668021529069    1.41395615976814   -2.57086874856539
C        -2.93168218945239    0.68941069170534   -1.81886919583350
C        -3.16925716302501    1.40395987891068   -0.59451910819579
C        -2.30509045190131    2.57666261651248   -0.58205405749706
C        -2.93165958334609   -0.70172889693673   -1.82964556748069
C        -1.93338389637965   -1.41432737555768   -2.58440223793601
C        -1.55174176432222   -2.58220930066197   -1.83115708455763
C        -2.33602226537562   -2.59042565709133   -0.60910867474675
C        -3.17129621871327   -1.43153974241516   -0.61152636907018
C        -0.98304732061976   -0.71396900723230   -3.31522124299586
C        -0.98554676886174    0.72752519253651   -3.31186510667797
C         0.38655325191910    1.17397653461823   -3.31381907584576
C         1.23075326041711    0.00702679305569   -3.31096053254240
C         0.38227983343544   -1.15635391770593   -3.30920891348305
Cl       -1.95460073798926    0.00460750319282    5.24288779913107
Cl       -3.13674177070664    3.62998355792336    2.87522015776167
Cl        0.58597532615940   -5.49700505592064   -0.94315711397808
63
 energy: -142.112951889177 gnorm: 0.001331799297 xtb: 6.4.1 (a3dbbd7)
C        -1.30031140059644    0.01342544419394    3.55407821330056
C        -0.37163242363172   -1.16252713534495    3.31196669902473
C         0.98074982427368   -0.71390128094729    3.28192753738724
C         0.97933939092859    0.72290512364964    3.27184745646355
C        -0.37309271193605    1.18647113982124    3.30569552455084
C         2.32921972351910   -2.57589404778632    0.56754093581444
C         3.17614119386943   -1.41065647346197    0.57053970722899
C         2.94108154886286   -0.69300627967538    1.79491186260924
C         1.94691592796583   -1.41602908339257    2.55207387694637
C         1.58052807670274   -2.57561585659460    1.81100573771021
C         3.18672437161596    1.41751865833116    0.57468544138524
C         2.33750165157876    2.57977791562189    0.57615154104402
C         1.57509672562196    2.56950836817784    1.80069233620357
C         1.95173235561860    1.41386049524557    2.55241233345717
C         2.94716235731799    0.69337304687853    1.79869227474599
C        -0.36621617096207    3.43124882830426    0.58140064483795
C        -1.73022653201319    3.02164479248478    0.58514669879665
C        -2.09668451090198    2.46903266250609    1.95005411469616
C        -0.73208714279597    2.29121063857390    2.58524359037931
C         0.24658836180088    2.98092002926621    1.80434774783662
C        -3.37563781786380    0.70568645732447    0.57769016568464
C        -3.39498394010665   -0.72507223499696    0.57268650631835
C        -2.77270700968687   -1.15399903125953    1.79439784973151
C        -2.39478023490756    0.03371328024903    2.54143889845655
C        -2.75076936415090    1.13660969816994    1.81859575790065
C        -1.71658102829719   -2.99369224939718    0.57987664296928
C        -0.37149797389074   -3.44051056991415    0.59612155054678
C         0.24268929309933   -2.97736586935682    1.78935455393568
C        -0.73452429541707   -2.25693421262264    2.56687544729987
C        -1.97138313297537   -2.27139146338973    1.80409877141471
C        -0.24550462753764   -3.01658935532385   -1.84027004037182
C         0.73715813613964   -2.27873407752996   -2.56413678235042
C         1.96397854889243   -2.27868255803090   -1.80696970293774
C         1.75453801541193   -3.01453925155872   -0.60426144456400
C         0.40057188077626   -3.68691729286845   -0.64848956326978
C         2.79224316349802   -1.15724243267542   -1.82486481607370
C         2.41523657517529    0.00648217280035   -2.58480515084624
C         2.80042977559964    1.17335407779856   -1.83265923241033
C         3.41732961988574    0.72687091031136   -0.60835613150005
C         3.41145743435830   -0.71415628901629   -0.60908143066703
C         1.98366849720285    2.29723635754161   -1.83056503254931
C         0.75401890160026    2.29737748219531   -2.58703545100485
C        -0.23498436078423    3.01281231595854   -1.82262360338497
C         0.37324248572320    3.44993925149754   -0.60108577532887
C         1.74626611151265    3.01107471728136   -0.60362071394650
C        -1.55533857768918    2.57367080475933   -1.80847988132266
C        -1.93670002962802    1.41372544130787   -2.57098277140112
C        -2.93185365553047    0.68922277394967   -1.81906183433221
C        -3.16928362644040    1.40366790730464   -0.59461028314773
C        -2.30508914706094    2.57634193198407   -0.58209665705003
C        -2.93200334839314   -0.70189641354090   -1.82998686497144
C        -1.93366796913747   -1.41436903414678   -2.58490620902780
C        -1.55178740087079   -2.58162795334459   -1.83123613344518
C        -2.33609241306870   -2.59026758939307   -0.60921741220010
C        -3.17165253353050   -1.43168959774081   -0.61180116523353
C        -0.98319777304275   -0.71406896900494   -3.31565033039984
C        -0.98556154027106    0.72738622143886   -3.31205933028045
C         0.38654017907756    1.17378162397508   -3.31392779951454
C         1.23085391540693    0.00691664043873   -3.31119785293228
C         0.38231904626766   -1.15635594007446   -3.30963330501477
Cl       -1.95458655061920    0.00415443822972    5.24270447892359
Cl       -3.13671389715283    3.62937008384320    2.87527685658001