63
 energy: -142.082398744060 gnorm: 0.136606914427 xtb: 6.4.1 (a3dbbd7)
C        -1.29585809763920    0.00401118881931    3.54517689231029
C        -0.36796043466059   -1.17243305044266    3.30515820987539
C         0.98298838984909   -0.72191219210780    3.27512267957929
C         0.98156472691728    0.71960753564614    3.26971969840148
C        -0.37066843430553    1.17924059866277    3.30150764324135
C         2.33648296598357   -2.58548060321166    0.57950289371033
C         3.18657767566203   -1.41946403917212    0.57781419536533
C         2.94957050634668   -0.69854930588343    1.80123308089156
C         1.95308396825138   -1.41752165469557    2.55613481597303
C         1.57961582984989   -2.57968580834158    1.80518673258983
C         3.18767024138397    1.40991878537575    0.57593180017933
C         2.33807592119235    2.57402574463448    0.57591940987423
C         1.57683795447400    2.56605672116665    1.79975339077111
C         1.95304946478205    1.40835201085528    2.55205927541471
C         2.95072023090319    0.68875745027160    1.80098024590342
C        -0.36516779392141    3.42666371311492    0.57921714402649
C        -1.72924376731069    3.01648005687427    0.58287705229366
C        -2.09463355901587    2.46231282969886    1.94730853737491
C        -0.73027134368917    2.28553619224850    2.58224921046650
C         0.24829448370074    2.97593693088527    1.80334175247540
C        -3.37466967439567    0.70300551329579    0.57574930039426
C        -3.39003092771629   -0.73268815670587    0.56838248256510
C        -2.76818811346571   -1.16356142396752    1.78871572205038
C        -2.38904763717889    0.02437925858140    2.53264263708558
C        -2.74834472581071    1.12995086235998    1.81420011509538
C        -1.73481952354600   -3.00995345707075    0.57938225067925
C        -0.36149853487188   -3.44686666226009    0.58178847329193
C         0.25217194576597   -2.99475012297255    1.80551622011247
C        -0.72930832450935   -2.27346636848304    2.56467955460776
C        -1.97147545437730   -2.28746259180062    1.79868366143107
C        -0.24419850633136   -3.01431906314620   -1.82647673825261
C         0.74940205395547   -2.29291975806330   -2.58286291039202
C         1.97453700920709   -2.29239152825096   -1.82543977569151
C         1.74139873391846   -3.01127177396538   -0.59946235539016
C         0.36858334361035   -3.45436466601281   -0.59762914030018
C         2.79442417375665   -1.17031401238235   -1.82833550582627
C         2.41574661868216   -0.00512369138436   -2.58546959698227
C         2.79806943058290    1.16104826437995   -1.83045397159780
C         3.41356646756867    0.71553904959985   -0.60565027126811
C         3.41126633543504   -0.72579612437446   -0.60436594375932
C         1.98256115237360    2.28538932475628   -1.82964816243890
C         0.75350030248264    2.28551308222168   -2.58573232043658
C        -0.23508280223273    3.00436687434747   -1.82344140510130
C         0.37359850933878    3.44286488634390   -0.60220138875814
C         1.74684322375821    3.00246743965493   -0.60372642363152
C        -1.55566653240424    2.56818250404503   -1.80941223602174
C        -1.93859434660526    1.40592010808590   -2.57168095899201
C        -2.93551210472019    0.68461262540438   -1.82146846795257
C        -3.16898901543324    1.39767486955451   -0.59605965569985
C        -2.30435127708354    2.57332623889815   -0.58497549494069
C        -2.94114405324375   -0.70773319319533   -1.83440725651199
C        -1.94505174587464   -1.42387954866205   -2.59102123509086
C        -1.56548890453788   -2.59170746569988   -1.83211639417485
C        -2.32839595521473   -2.59312664308342   -0.60918315809929
C        -3.17773883520354   -1.43218193780650   -0.61434027481289
C        -0.98775846768414   -0.72638522805960   -3.31322849835342
C        -0.98659864734294    0.71557045446948   -3.30737103344774
C         0.38544609972999    1.16109326157285   -3.31071431262535
C         1.23106807690940   -0.00470839623161   -3.31198800118088
C         0.38446650877846   -1.17000629315169   -3.31255499434049
Cl       -1.95494402211016   -0.00808767691631    5.23350834623694
Cl       -3.13453400293270    3.62205440046694    2.87428256889563
Cl        4.22898077748444   -1.75755958855222   -2.76283536348805
63
 energy: -142.106385236707 gnorm: 0.058699494209 xtb: 6.4.1 (a3dbbd7)
C        -1.29642864919620    0.00422072069828    3.54567459771370
C        -0.36863877279213   -1.17216110499069    3.30656139255536
C         0.98153605030659   -0.72045264948563    3.27513790623051
C         0.98034372967044    0.72131807318881    3.27063237075236
C        -0.37178135743425    1.17992022181734    3.30194728052480
C         2.33044340603011   -2.58492690760912    0.58118178378519
C         3.17617146545378   -1.41033473471472    0.58185864494702
C         2.94922024080583   -0.69440335635034    1.80702765970320
C         1.95183879690580   -1.41537100668871    2.55631934491729
C         1.57753336669748   -2.57869247070883    1.80409788990611
C         3.18649470473714    1.41481744247374    0.58348921414164
C         2.33592064902814    2.57806274072702    0.57908078355785
C         1.57526743421938    2.56979201550255    1.80254090654450
C         1.95164105514808    1.41193688517143    2.55460870288031
C         2.95198759447944    0.69454893172335    1.80636767912888
C        -0.36728358643934    3.42880485041257    0.58091330735562
C        -1.73066499451694    3.01755862328239    0.58371213651041
C        -2.09611397616797    2.46302312455120    1.94784290368577
C        -0.73179112004087    2.28659627973494    2.58287231612865
C         0.24611408740426    2.97820691061144    1.80519982090030
C        -3.37528145594958    0.70385330749044    0.57626987476049
C        -3.39046344449975   -0.73205991149861    0.56927145202295
C        -2.76868994259552   -1.16314665227048    1.79005186385071
C        -2.38930701251180    0.02439875376331    2.53301991494772
C        -2.74888715990181    1.13030555637724    1.81387064378190
C        -1.74005011106962   -3.01198477170677    0.58224925576688
C        -0.36845369504504   -3.45185413989247    0.58517441338097
C         0.24834900337661   -2.99640163230936    1.80706693985514
C        -0.73073914071682   -2.27448506393437    2.56550607557143
C        -1.97342423663027   -2.28814663491686    1.80091114721040
C        -0.25512140051132   -3.02159420676261   -1.82231358992485
C         0.74113127181351   -2.29389765029094   -2.57097411123967
C         1.96399086948294   -2.31585805288525   -1.82916278122248
C         1.72704442756621   -3.00848793174589   -0.59913807395988
C         0.35676576475198   -3.46206089246599   -0.59494386798637
C         2.88112489024765   -1.20457339901974   -1.88449742835895
C         2.40565671564490    0.00800671000151   -2.58258672951735
C         2.78689381052295    1.16207784454317   -1.82530461491265
C         3.40333962093902    0.71618136887881   -0.59928764315584
C         3.40596210590274   -0.71663971475695   -0.59169438285781
C         1.97774097916689    2.29349857422851   -1.82944258707231
C         0.75191524399425    2.29357871728909   -2.58578731693988
C        -0.23700342530157    3.00887559566488   -1.82191202043867
C         0.37139795851234    3.44706410569088   -0.60044238093989
C         1.74432370613663    3.00676913455256   -0.60146608034462
C        -1.55663451975101    2.57015622809687   -1.80848079462198
C        -1.93919127627977    1.40719492217521   -2.57038136516392
C        -2.93675076931062    0.68576499709160   -1.82116779287179
C        -3.16966354393046    1.39810002479067   -0.59623653008791
C        -2.30515549794211    2.57418723052155   -0.58451655668089
C        -2.94233390263057   -0.70796251883508   -1.83395266987425
C        -1.94912472241475   -1.42478244372781   -2.58948973461609
C        -1.57301209269675   -2.59488175300978   -1.82999262649609
C        -2.33360466828198   -2.59478572944240   -0.60651206782892
C        -3.17969290993931   -1.43170428983261   -0.61285595019783
C        -0.98779348354815   -0.72604612811213   -3.31101732736231
C        -0.98715372224828    0.71749735047235   -3.30557132818440
C         0.38222085409407    1.16788154618121   -3.31083688649091
C         1.22383026779662    0.00261689789298   -3.30155165533423
C         0.37941261415008   -1.16940042121982   -3.30945974639939
Cl       -1.95550395917108   -0.00755602707644    5.23419110055174
Cl       -3.13589278627501    3.62258304802807    2.87489842065741
Cl        4.35094620801999   -1.80055978712699   -2.83909835554109
63
 energy: -142.112295348095 gnorm: 0.013278763763 xtb: 6.4.1 (a3dbbd7)
C        -1.29895805682144    0.00521409243747    3.54690399273529
C        -0.37118428157107   -1.17105997687981    3.30833143968527
C         0.97864265859209   -0.71903272446417    3.27497919124808
C         0.97780130142809    0.72312139388596    3.27220842363162
C        -0.37445539277707    1.18098843365683    3.30297300098817
C         2.32983725903916   -2.58632246654433    0.58147500388596
C         3.17373060890091   -1.40620301271430    0.57676511102673
C         2.94230690202664   -0.69192959154766    1.80236584437170
C         1.94819202894016   -1.41303787914484    2.55407669310109
C         1.57508062612656   -2.57663384483063    1.80032073211483
C         3.18187400771653    1.41405401563385    0.58543991506726
C         2.33239046609529    2.57859569665340    0.58103251787771
C         1.57219240097158    2.57224870094377    1.80474294595782
C         1.94923089603035    1.41481034485308    2.55735390439334
C         2.94784186566338    0.69738741586737    1.80638540976154
C        -0.37074205143341    3.43140910527736    0.58343454677329
C        -1.73369312811133    3.01954655615263    0.58580721969490
C        -2.09939678434314    2.46460454009525    1.94978253586410
C        -0.73490679704469    2.28835211086678    2.58462853356233
C         0.24258111982120    2.98062979230283    1.80780270408153
C        -3.37764598687887    0.70538456140135    0.57838149183589
C        -3.39287403334533   -0.73079979409284    0.57117798952228
C        -2.77088213399447   -1.16188441270684    1.79224188530285
C        -2.39184869747064    0.02535148407165    2.53464494309299
C        -2.75151380840411    1.13164551383234    1.81514509381410
C        -1.74504575338352   -3.01308308636819    0.58535203454781
C        -0.37258444483934   -3.45105550254708    0.58722854575912
C         0.24449443356760   -2.99629838917721    1.80896875398081
C        -0.73322193453426   -2.27423417722538    2.56668176612442
C        -1.97691340850696   -2.28796125993171    1.80361331013380
C        -0.25796408802410   -3.01832692205371   -1.81784856087324
C         0.74418133124491   -2.28918019743378   -2.56188854921401
C         1.95912964071706   -2.31699478747082   -1.82758396386901
C         1.72375051709625   -2.99975191999151   -0.60261009586686
C         0.35276526369660   -3.45852853755951   -0.59274388966203
C         2.95868361282558   -1.23213736304146   -1.93354455107509
C         2.40850782556169    0.00969028715449   -2.58598318344018
C         2.77744946603647    1.15399400139625   -1.82340853129085
C         3.39421846057411    0.70837991403852   -0.59752452157140
C         3.41068662194218   -0.71649890099824   -0.59149835586485
C         1.97299288085688    2.29293419448385   -1.82725707696636
C         0.74985433181374    2.29514001196900   -2.58130327768591
C        -0.23987454495091    3.01265032755249   -1.82008638378730
C         0.36836843480986    3.44974778523977   -0.59798205005925
C         1.74080627550759    3.00727131955185   -0.59958422213209
C        -1.55903817692311    2.57238409061371   -1.80667392724909
C        -1.94074294648500    1.40815257135865   -2.56794929570241
C        -2.93936157426043    0.68740893573593   -1.81918708508106
C        -3.17172402178832    1.39908779899641   -0.59472702230009
C        -2.30736526123314    2.57560795809211   -0.58281695793840
C        -2.94405924611299   -0.70722789866823   -1.83204732167795
C        -1.95271636451446   -1.42401055035089   -2.58669134219086
C        -1.57625274355853   -2.59367975629513   -1.82642665313972
C        -2.33853770264062   -2.59533515633501   -0.60386860894021
C        -3.18307258595976   -1.43072088924193   -0.61032205372044
C        -0.98588764106474   -0.72632165743721   -3.30632685994732
C        -0.98763347891974    0.71782270088957   -3.30092102395826
C         0.38175683745947    1.16610184501181   -3.30259517077285
C         1.22677961084688    0.00300880480845   -3.29545303066042
C         0.37825503816936   -1.16974960754650   -3.31019586367946
Cl       -1.95773919451198   -0.00632453917536    5.23583295277568
Cl       -3.13951485181763    3.62359868795939    2.87686161290589
Cl        4.43789594941216   -1.83781344077133   -2.89641786769723
63
 energy: -142.112593602104 gnorm: 0.007979797751 xtb: 6.4.1 (a3dbbd7)
C        -1.30039878173979    0.00588875499394    3.54780546063513
C        -0.37255201891913   -1.17042947859082    3.30918294635023
C         0.97708319051986   -0.71836029613957    3.27418527421178
C         0.97614607111402    0.72384377714686    3.27250484526750
C        -0.37606124477058    1.18186098758036    3.30391845394303
C         2.33148688012116   -2.58801548316644    0.58199340556632
C         3.17663458426832   -1.40727987406812    0.57335194496133
C         2.93888917492310   -0.69149591277196    1.79787531143834
C         1.94604575620704   -1.41186033154397    2.55166558017311
C         1.57438106347901   -2.57618466910149    1.79893690841312
C         3.17895940765084    1.41224054018010    0.58392417682903
C         2.33016131075831    2.57732636932858    0.58129032878808
C         1.57047877714658    2.57274753147243    1.80543262716635
C         1.94769996519804    1.41538382707052    2.55791419474200
C         2.94507405162123    0.69735513629495    1.80479864444330
C        -0.37252884577136    3.43288344909323    0.58466431408990
C        -1.73556656497474    3.02102078394155    0.58709453317812
C        -2.10135445627101    2.46560011258137    1.95108536721517
C        -0.73668469773555    2.28964373523602    2.58601494321962
C         0.24086833519464    2.98190379954839    1.80919462970914
C        -3.37913793904407    0.70614033413349    0.57958008882066
C        -3.39410828909716   -0.73025299466444    0.57209260424815
C        -2.77200453585295   -1.16142857359192    1.79333054744326
C        -2.39332330007247    0.02584362078164    2.53563679715400
C        -2.75311131391779    1.13236198073546    1.81613748575980
C        -1.74614561085188   -3.01292597158931    0.58633772718229
C        -0.37306981516040   -3.44942273885828    0.58751702716703
C         0.24350639415375   -2.99575325601228    1.80974629988336
C        -0.73413186176552   -2.27382283387475    2.56737270137115
C        -1.97827478213189   -2.28785140609866    1.80476661162261
C        -0.25687454771797   -3.01438563670284   -1.81620508639456
C         0.74810148927826   -2.28701239411014   -2.56121053839815
C         1.96088999061206   -2.31280692777919   -1.82707314042935
C         1.72639050387634   -2.99696892054821   -0.60452896660094
C         0.35340876052562   -3.45450299952117   -0.59205713892201
C         2.97807008893098   -1.23755226063155   -1.94532325920964
C         2.41594414099596    0.00674531269521   -2.59178217041572
C         2.77652047963591    1.15001076731359   -1.82444878988273
C         3.39335266999222    0.70445978821749   -0.59860368724120
C         3.41881323577267   -0.71999282303548   -0.59600992524485
C         1.97162730074652    2.29004027404888   -1.82544881139582
C         0.74916107586091    2.29388050324334   -2.57870884883875
C        -0.24114204359315    3.01339522476678   -1.81904331202895
C         0.36686795490969    3.45031385391149   -0.59683882252909
C         1.73882705764227    3.00584003407855   -0.59881513977280
C        -1.56021621000340    2.57312093680410   -1.80533823089769
C        -1.94101765901773    1.40828333622817   -2.56625448095708
C        -2.94055767263808    0.68827681719961   -1.81799375432319
C        -3.17306136150419    1.39983774322128   -0.59366184248792
C        -2.30891120574357    2.57668196176460   -0.58170019533145
C        -2.94460878395750   -0.70647763340712   -1.83104861810780
C        -1.95352108357614   -1.42303870182057   -2.58550892969044
C        -1.57603502096860   -2.59205718228701   -1.82483661343011
C        -2.33952963009375   -2.59489450709614   -0.60300890084087
C        -3.18431968825240   -1.43018299889997   -0.60931642313249
C        -0.98514561548242   -0.72650909989665   -3.30472246094374
C        -0.98704326346065    0.71732307483104   -3.29768704603234
C         0.38290474162694    1.16355303920191   -3.29805892914263
C         1.23069564563047    0.00133861494808   -3.29676627257009
C         0.37843361585924   -1.17001166262170   -3.31246228068298
Cl       -1.95958461516883   -0.00491781436010    5.23681585781162
Cl       -3.14251862233297    3.62357909626312    2.87828804602236
Cl        4.45004492460087   -1.84814298582769   -2.90652032134747
63
 energy: -142.112688637010 gnorm: 0.004632693182 xtb: 6.4.1 (a3dbbd7)
C        -1.30078260964773    0.00611862413812    3.54817573120210
C        -0.37292799273145   -1.17026840353948    3.30973589232532
C         0.97656242400807   -0.71813610104489    3.27386031743123
C         0.97550940500687    0.72413208415414    3.27261773880515
C        -0.37657531813845    1.18225566425965    3.30442661841145
C         2.33261585027895   -2.58938118550542    0.58311294075176
C         3.17803434370426   -1.40796806044535    0.57185024589499
C         2.93722302806778   -0.69117383152750    1.79544614623105
C         1.94502708221813   -1.41126465160066    2.55030557188175
C         1.57434803204027   -2.57640022999092    1.79882260234338
C         3.17699413817714    1.41124102427959    0.58295506883728
C         2.32895847291254    2.57657785457087    0.58140373011317
C         1.56988940727802    2.57302110233527    1.80595419034434
C         1.94711636447282    1.41570859632446    2.55840583369306
C         2.94381016409011    0.69726063371813    1.80415172230604
C        -0.37319326881838    3.43374745453893    0.58513019384713
C        -1.73623746327413    3.02177087443697    0.58755881001230
C        -2.10196189208782    2.46599581439641    1.95157606764371
C        -0.73722114416320    2.29028741520661    2.58667180323235
C         0.24033413316118    2.98264012717817    1.80990128674575
C        -3.37943430337213    0.70636713578310    0.57988717607786
C        -3.39423358288097   -0.73017055867801    0.57218985980263
C        -2.77200215977780   -1.16139753371900    1.79356096540632
C        -2.39347629993833    0.02586277040544    2.53575789004082
C        -2.75333837777309    1.13250896943901    1.81627329943898
C        -1.74616569580304   -3.01290728026927    0.58656926991559
C        -0.37295402849586   -3.44873943553843    0.58761933133280
C         0.24334825013482   -2.99571283489680    1.81040829481187
C        -0.73421862056662   -2.27382906975390    2.56781673742154
C        -1.97852583604007   -2.28805828861518    1.80519699888207
C        -0.25603927313167   -3.01178122119533   -1.81521008074198
C         0.75043493838429   -2.28533970504943   -2.56114022769734
C         1.96147585199209   -2.30857168595490   -1.82588650670345
C         1.72829060729206   -2.99519467006910   -0.60526683863972
C         0.35396334562524   -3.45181685898862   -0.59165308229646
C         2.98621815119161   -1.23951551593521   -1.95017056955236
C         2.41992785805423    0.00472391131608   -2.59494409462311
C         2.77557418371690    1.14792926441089   -1.82481024851054
C         3.39244033733537    0.70241164143200   -0.59893638765519
C         3.42304660797283   -0.72222508931590   -0.59863982251612
C         1.97071907627063    2.28826283603145   -1.82413218404570
C         0.74873222393889    2.29328798114348   -2.57760115487424
C        -0.24182676061985    3.01392142284225   -1.81870110414041
C         0.36615360873061    3.45074962632335   -0.59650910456711
C         1.73775239097745    3.00498669227675   -0.59841455398414
C        -1.56073142320488    2.57346636959900   -1.80480777508413
C        -1.94110049486153    1.40840123476165   -2.56573303790292
C        -2.94105380876344    0.68869984483562   -1.81771967696214
C        -3.17354604641041    1.40018338687392   -0.59339701405341
C        -2.30957644854379    2.57726262767333   -0.58133367604305
C        -2.94471458495099   -0.70612939078977   -1.83093293373910
C        -1.95393382399373   -1.42250303487905   -2.58536723295967
C        -1.57568126174032   -2.59129803498432   -1.82433422007082
C        -2.33948488126913   -2.59470011787719   -0.60288626145881
C        -3.18461676508978   -1.43006274145012   -0.60917997143334
C        -0.98508583156151   -0.72657888693169   -3.30458638655002
C        -0.98661826738505    0.71703129758053   -3.29603162343040
C         0.38364761828650    1.16228724071524   -3.29572404284351
C         1.23243613687730    0.00046660358803   -3.29762475407057
C         0.37797822051249   -1.16999859384175   -3.31444864276097
Cl       -1.96076375632364   -0.00412794227927    5.23707207593094
Cl       -3.14399356965782    3.62311970341042    2.87889361603928
Cl        4.44838089557240   -1.85325012507381   -2.90771206963928
63
 energy: -142.112728072885 gnorm: 0.002410803431 xtb: 6.4.1 (a3dbbd7)
C        -1.30062004906217    0.00603444526948    3.54812561928341
C        -0.37273526077736   -1.17034627088113    3.30990849896871
C         0.97671211530070   -0.71818991606985    3.27387401284055
C         0.97553899351307    0.72415102889580    3.27258047747593
C        -0.37647209896572    1.18223685851431    3.30448454597336
C         2.33306253342911   -2.58998379118367    0.58399482094378
C         3.17811368275873   -1.40794231646355    0.57164046032364
C         2.93691630877382   -0.69093052333081    1.79478680232527
C         1.94498409688106   -1.41114167034261    2.54999721621014
C         1.57470190518502   -2.57676811339836    1.79922527998657
C         3.17630694492422    1.41109298458656    0.58267835817302
C         2.32869663431441    2.57643060815763    0.58145243911182
C         1.56997014889967    2.57315190394322    1.80622273198233
C         1.94717567144821    1.41590575116289    2.55872228211326
C         2.94370906507441    0.69731118216275    1.80420083690801
C        -0.37318660721091    3.43396084764001    0.58512439604895
C        -1.73615830055733    3.02183248008670    0.58752603056945
C        -2.10186467068558    2.46592292475085    1.95154180617792
C        -0.73710597947530    2.29034316982695    2.58670486579477
C         0.24041585308062    2.98281678813541    1.81004337058365
C        -3.37912833189014    0.70626658830959    0.57972885785323
C        -3.39385646476161   -0.73032143304698    0.57194294297045
C        -2.77154865129489   -1.16154413839416    1.79335760613935
C        -2.39311295791882    0.02566009732590    2.53549798230905
C        -2.75301937128744    1.13233577228910    1.81603205112474
C        -1.74578807277406   -3.01300317408452    0.58644038820169
C        -0.37267636840695   -3.44879783794600    0.58764106007233
C         0.24359696408594   -2.99591246999218    1.81079124016520
C        -0.73391422937132   -2.27402339207709    2.56792697710709
C        -1.97824814644002   -2.28831540337883    1.80516991416004
C        -0.25571195051521   -3.01084432185597   -1.81480784648844
C         0.75118627749611   -2.28429987474339   -2.56093574905930
C         1.96095084243779   -2.30566486515171   -1.82459639653410
C         1.72888597446966   -2.99413632385205   -0.60526957786609
C         0.35414991866726   -3.45081580398000   -0.59153607035706
C         2.98861598034186   -1.24015701338456   -1.95162029886635
C         2.42068752239857    0.00408404819027   -2.59553579567432
C         2.77479128743750    1.14738892449327   -1.82467511103825
C         3.39167222030824    0.70188181428926   -0.59874763666340
C         3.42374671362124   -0.72283901738679   -0.59929317630803
C         1.97040611392032    2.28782600253841   -1.82359050107768
C         0.74860587632738    2.29335119557807   -2.57752364523363
C        -0.24199215637062    3.01426969437820   -1.81876569388709
C         0.36603093997013    3.45101240275810   -0.59660684831594
C         1.73750278241990    3.00480568000620   -0.59832467672836
C        -1.56074116646747    2.57353153176392   -1.80479413605721
C        -1.94107625924452    1.40849551065475   -2.56594309597140
C        -2.94105233302240    0.68876526749381   -1.81792571023534
C        -3.17347609455560    1.40017331870524   -0.59356429819389
C        -2.30959159096531    2.57734484334686   -0.58140692968119
C        -2.94454894847784   -0.70612304471986   -1.83121874157339
C        -1.95405153666138   -1.42235010762331   -2.58571830638323
C        -1.57547052512277   -2.59124698323833   -1.82447107460903
C        -2.33908369332188   -2.59472915777793   -0.60307822059368
C        -3.18439654251128   -1.43016377469111   -0.60939539623427
C        -0.98521295220322   -0.72653804729959   -3.30512764185333
C        -0.98642921726360    0.71702117833919   -3.29577906844185
C         0.38396572464484    1.16211241349427   -3.29513739911444
C         1.23261737801565    0.00041264639552   -3.29765160955424
C         0.37747292905303   -1.16981881158613   -3.31548609497963
Cl       -1.96123704837003   -0.00397011078240    5.23689474106357
Cl       -3.14431199468889    3.62261571036615    2.87890893734346
Cl        4.44155772870837   -1.85544115494723   -2.90516805512653
63
 energy: -142.112739787547 gnorm: 0.001298428084 xtb: 6.4.1 (a3dbbd7)
C        -1.30038297154944    0.00587459734161    3.54793212361799
C        -0.37247409440420   -1.17045593857080    3.30980911027392
C         0.97699393239381   -0.71829777842582    3.27398004402653
C         0.97576295230431    0.72407883072092    3.27250265009529
C        -0.37625081233363    1.18207618286145    3.30434092761411
C         2.33302520432333   -2.58986604471014    0.58416229508614
C         3.17776427685073   -1.40760022044593    0.57199315529669
C         2.93729971479372   -0.69084262657856    1.79517899213547
C         1.94537184858848   -1.41126638795310    2.55031363238786
C         1.57502677920476   -2.57691539565449    1.79951479133324
C         3.17660070249699    1.41140173015663    0.58285603233378
C         2.32894261990034    2.57663826680244    0.58146137739363
C         1.57018530909228    2.57316615643142    1.80621683512022
C         1.94740334217252    1.41596130625617    2.55875509351319
C         2.94408249929834    0.69743059393292    1.80446039737991
C        -0.37300172535624    3.43377437437766    0.58498519735315
C        -1.73591085170260    3.02158618624148    0.58735960313530
C        -2.10163640375656    2.46570963242422    1.95135499553623
C        -0.73689509166486    2.29014561289629    2.58650380377112
C         0.24059133702898    2.98266084897026    1.80989868484125
C        -3.37883256324293    0.70609955697472    0.57952457404803
C        -3.39355311406650   -0.73047045432279    0.57174853293890
C        -2.77124664339243   -1.16166194115468    1.79313530114159
C        -2.39284975701777    0.02549979930638    2.53529213275943
C        -2.75277586894938    1.13215142404972    1.81583556980378
C        -1.74552252210574   -3.01309843321567    0.58626901254286
C        -0.37249772595434   -3.44908634722054    0.58761915637506
C         0.24385245997376   -2.99605091614639    1.81080101962093
C        -0.73365669876087   -2.27415911214478    2.56779966773782
C        -1.97796765019417   -2.28841979250645    1.80498281534836
C        -0.25577114306150   -3.01118113168140   -1.81490430298903
C         0.75085751238462   -2.28409129244587   -2.56071701848362
C         1.96020421406735   -2.30493387267856   -1.82396670376839
C         1.72855002044529   -2.99391384389962   -0.60499375921559
C         0.35408666070980   -3.45113631432948   -0.59162935440747
C         2.98823466667533   -1.24025078396937   -1.95145607944922
C         2.41985479266404    0.00448837539301   -2.59484578052144
C         2.77465939965086    1.14779427226577   -1.82448812460411
C         3.39154715458034    0.70227686460106   -0.59851600709491
C         3.42281139910738   -0.72236618169130   -0.59877497844015
C         1.97056260254463    2.28823685505388   -1.82371981767484
C         0.74869181255225    2.29364231405922   -2.57783619347452
C        -0.24185464363755    3.01434161083020   -1.81890166932132
C         0.36617849597334    3.45104048944070   -0.59674812619114
C         1.73771363772782    3.00502375992854   -0.59839266173040
C        -1.56055741833250    2.57345409442676   -1.80494945584567
C        -1.94101076827634    1.40851282147020   -2.56625828726542
C        -2.94086378289861    0.68864941104848   -1.81815544865055
C        -3.17326351284302    1.40001061944052   -0.59376709599731
C        -2.30937773315736    2.57716754876151   -0.58157562864971
C        -2.94434642375753   -0.70626438552231   -1.83145703787275
C        -1.95394991701082   -1.42242534677312   -2.58602181857538
C        -1.57542866994338   -2.59147629143588   -1.82476196218656
C        -2.33882390174793   -2.59484273978431   -0.60325686991571
C        -3.18410766571098   -1.43028433294756   -0.60957487667035
C        -0.98523777535671   -0.72646087154909   -3.30557718488661
C        -0.98643645886001    0.71715451358748   -3.29624715993759
C         0.38395510500321    1.16246297809082   -3.29554362483236
C         1.23223236974443    0.00075176243389   -3.29737504905148
C         0.37736698960332   -1.16966381173152   -3.31551172019350
Cl       -1.96109752954595   -0.00421318623236    5.23668840425086
Cl       -3.14403026853366    3.62242950491061    2.87869513382882