63
 energy: -142.111117421758 gnorm: 0.044666298493 xtb: 6.4.1 (a3dbbd7)
C        -1.33437018259539    0.02754969028264    3.65537106861365
C        -0.42060486567835   -1.26600194518254    3.60274317212997
C         0.96109499924951   -0.73297752920763    3.29103858524302
C         0.96776088966461    0.67622191901971    3.23890203041749
C        -0.39066240155874    1.10918892605096    3.23034746014475
C         2.32555117810563   -2.57313655373136    0.56646543193808
C         3.16910280399758   -1.40375884854461    0.56784144975232
C         2.90184581357819   -0.68796315113128    1.78741937495348
C         1.91663809618795   -1.39766517700529    2.55514696587714
C         1.57445211778797   -2.56547882951730    1.77478682878988
C         3.18375809552044    1.41380830296087    0.55477055079916
C         2.33616867785961    2.57516317070014    0.55280991413193
C         1.57659317658325    2.55128880821839    1.77370857851203
C         1.92374899441517    1.38550486570115    2.51590260574337
C         2.92250191631784    0.69195403470984    1.77668718474003
C        -0.35972963303168    3.41075648110351    0.57300836139098
C        -1.72350499929242    2.95768487002293    0.58077125073472
C        -1.97842260817406    2.24189812102320    1.79252269323926
C        -0.72357351009771    2.23246580120865    2.54112911256762
C         0.25586203824354    2.95230476088171    1.77943045879891
C        -3.35699094412835    0.71823535859829    0.59450781098857
C        -3.34457604473249   -0.71391944506854    0.58161014635641
C        -2.76657824670392   -1.14246736072669    1.80177548485041
C        -2.65054163710426   -0.01340272238144    2.79038736834005
C        -2.80374910880341    1.15619521346248    1.83660165100856
C        -1.70767224189838   -2.96394342298445    0.54544205637402
C        -0.35783572503541   -3.40008546301873    0.54905886460000
C         0.23927142801667   -2.94510793359207    1.79097944802442
C        -0.73996494797369   -2.24828043106458    2.53747292604360
C        -1.93454114479251   -2.23612385628830    1.78733586981485
C        -0.22477171379027   -2.99757668059311   -1.85368130377087
C         0.76477343625198   -2.27599937467108   -2.60474880990854
C         1.98804127091438   -2.27791221342606   -1.84314082865022
C         1.75429362569595   -2.99905788375848   -0.62773273527684
C         0.37978858814383   -3.43060483946078   -0.62092860397109
C         2.80037074781985   -1.15534594468008   -1.84508719694245
C         2.41923511420204    0.00763299567214   -2.59815690447541
C         2.79857866857781    1.17153559908933   -1.84161736287494
C         3.40745959741148    0.72388687872591   -0.61953114067949
C         3.39677634410968   -0.71803373709628   -0.61088315727332
C         1.98044321680948    2.29067436623400   -1.84249328812345
C         0.75755468530266    2.29340808109935   -2.59845324195479
C        -0.23564256669658    3.00181992002164   -1.83779405425807
C         0.36806995417892    3.43259597254931   -0.60682340662427
C         1.74387183936491    3.00408293664398   -0.61941440038701
C        -1.55143950038287    2.57309858613728   -1.83634946925214
C        -1.92658232431267    1.41679219605501   -2.60136140896176
C        -2.90967322525367    0.70027268323267   -1.82561452527786
C        -3.13470046638911    1.40130458333882   -0.59266036363007
C        -2.30229510338896    2.56106036617452   -0.60869873908677
C        -2.90720517691522   -0.68343877094305   -1.82888227468198
C        -1.92155826159505   -1.40168315078081   -2.60903990963844
C        -1.54268432518820   -2.56242573064830   -1.85353712278535
C        -2.29349109496282   -2.55680734095624   -0.62861582760103
C        -3.13103256838292   -1.39578697778777   -0.61481242849938
C        -0.97018650093986   -0.71071737690506   -3.32936771613381
C        -0.97228660369415    0.73098952236149   -3.33108945774378
C         0.39532590652567    1.17279754522562   -3.32925359995319
C         1.24347113221459    0.01070380731075   -3.33025249297245
C         0.39895671628779   -1.15506119566433   -3.32778753777265
Cl       -1.71770888468493    0.46960761598839    5.36194368760716
Cl       -4.11265048791978   -0.16261896581422    3.86179858919383
Cl       -0.43891031057042   -2.19394193132870    5.16703105540663
63
 energy: -142.115698178931 gnorm: 0.019355352396 xtb: 6.4.1 (a3dbbd7)
C        -1.32151584643110    0.01803136823919    3.63324005423291
C        -0.39976461807841   -1.27230871244502    3.58636915923172
C         0.98458813472280   -0.73274951550184    3.29308018081775
C         0.97381661848613    0.68315232663524    3.23965780248788
C        -0.38274328173609    1.12186808126174    3.23598591222105
C         2.33054745235758   -2.58156615465597    0.57170408978232
C         3.17582149219080   -1.40980342740743    0.57137801486758
C         2.92498201696790   -0.68962428405891    1.79411008489441
C         1.93621838478686   -1.40596859171927    2.55441187602404
C         1.58398335469593   -2.58485523440649    1.78748705225353
C         3.19119243109046    1.42096391132288    0.56843705809397
C         2.34087042544256    2.58539661969569    0.56922056759391
C         1.57829408913041    2.56742850884536    1.78982337576378
C         1.94076379967469    1.39864363241569    2.53005564028650
C         2.94346007450498    0.69673173656286    1.79112755034457
C        -0.36211725834861    3.43080246255691    0.57538624749243
C        -1.73120194999022    2.98288066486703    0.57644986363388
C        -1.97964410914461    2.26329772002810    1.79171403138283
C        -0.72912247592607    2.24950133174556    2.54759067272135
C         0.25185162850091    2.97420494537653    1.79054653236167
C        -3.36616343575844    0.72468212194676    0.58295772666386
C        -3.35207198623032   -0.71412472376245    0.57541837689810
C        -2.76352262761603   -1.15002895981112    1.79138477699956
C        -2.63639048642025   -0.00816407419380    2.76664397077405
C        -2.80214495713107    1.16920868437004    1.82112489713555
C        -1.71455062252405   -2.98342255591512    0.55026762875107
C        -0.35778321783322   -3.42470514210870    0.55393342175141
C         0.24377335289156   -2.96939063445788    1.79296280966097
C        -0.73514986783598   -2.26957887898524    2.53728400241876
C        -1.93278840378560   -2.24949891245125    1.78335996893049
C        -0.23481659405784   -3.00788470866710   -1.85083910967235
C         0.75686516412091   -2.28425471864913   -2.60234028699832
C         1.98269888742081   -2.28548608542241   -1.83889641932218
C         1.74998701573551   -3.00883989949208   -0.62210384328994
C         0.37583450096380   -3.44758055335945   -0.62066428563283
C         2.79832351517766   -1.16007586563461   -1.83884935213087
C         2.41712692974397    0.00592099876643   -2.59136127554296
C         2.79749457879190    1.17232140676842   -1.83348969961002
C         3.41032449293347    0.72607022221884   -0.61034802089680
C         3.40349220550913   -0.71849930420031   -0.60746181374131
C         1.97947031801751    2.29562109203594   -1.83325286476865
C         0.75453520683723    2.29663054345980   -2.59215059010331
C        -0.23874427938771    3.01154973368192   -1.83508603829530
C         0.36908608992230    3.44828687807936   -0.60366137648194
C         1.74512966534347    3.01314816310103   -0.60820383640188
C        -1.55979703746768    2.58450257996002   -1.83937206520556
C        -1.93619232205138    1.41959506837682   -2.59987003221600
C        -2.92585707511107    0.69969471416898   -1.83691314859101
C        -3.15160358473526    1.41290215864258   -0.60662322934643
C        -2.31646140651215    2.57741951527674   -0.61491001153417
C        -2.92421800091948   -0.68855921042289   -1.83898003712312
C        -1.93440705857346   -1.40994984707209   -2.60871551880638
C        -1.55607495721862   -2.57662110709269   -1.85400456521083
C        -2.30802489447009   -2.57027179259872   -0.62811568769926
C        -3.14751017361597   -1.40443640629653   -0.62001220989800
C        -0.97871794814084   -0.71491484285864   -3.33028591039383
C        -0.97898785073631    0.72890926147472   -3.32847863353385
C         0.39047998799966    1.17225603117747   -3.32413584318323
C         1.23808730576251    0.00812570518381   -3.32458019638563
C         0.39206072512746   -1.15975610999429   -3.32750064765419
Cl       -1.71030678788854    0.43454693953609    5.34405723954160
Cl       -4.11883644334462   -0.13663438856260    3.80964819188544
Cl       -0.40870457315904   -2.17958128972901    5.16332649973611
63
 energy: -142.116113350824 gnorm: 0.008580576852 xtb: 6.4.1 (a3dbbd7)
C        -1.31931875909304    0.01637852179591    3.63001642527319
C        -0.39212347124032   -1.27510914773192    3.57804354289507
C         0.99177596313290   -0.73078801339309    3.28897495415542
C         0.97360778753704    0.68728728833938    3.23961944934420
C        -0.37917003535156    1.12757887453563    3.23898824889650
C         2.33146734990529   -2.58396383700266    0.57442786324878
C         3.17708556037359   -1.41230179705857    0.57304310009994
C         2.93420205912508   -0.69043916958202    1.79659923543096
C         1.94159681069304   -1.40850566326613    2.55157381280251
C         1.58679004829393   -2.59309462949202    1.79432629143879
C         3.19356406159923    1.42309336137190    0.57535833943609
C         2.34205927618394    2.58849698224957    0.57717071484009
C         1.57868689476539    2.57332676815991    1.79796875301130
C         1.94923348012939    1.40511116380722    2.53926489282941
C         2.95159064017263    0.69814724644869    1.79794745414296
C        -0.36258322451060    3.43953280448467    0.57734185922197
C        -1.73431148857831    2.99530483653217    0.57532983287966
C        -1.97744778760612    2.27203980112813    1.79143220530726
C        -0.73156517100704    2.25570018293653    2.54950907108246
C         0.25043892569877    2.98397450334685    1.79697870074742
C        -3.36719038439359    0.72504939736261    0.57724577843164
C        -3.35367876016131   -0.71571396821918    0.57217967584678
C        -2.75930301927776   -1.15464216053781    1.78462082306707
C        -2.62379854257875   -0.00767546201004    2.75449723998889
C        -2.79180406972982    1.17028325890795    1.80899554716355
C        -1.71837535071799   -2.99336325280296    0.55234289923272
C        -0.35760866949872   -3.43774880018956    0.55552578248559
C         0.24459031479444   -2.98016450717766    1.79156751987411
C        -0.73262444128460   -2.27922401071660    2.53617214318147
C        -1.93107426390984   -2.25611500919671    1.77929027060381
C        -0.23940373385387   -3.01155641963387   -1.84978766641074
C         0.75310436622684   -2.28659661673457   -2.60041870390492
C         1.97961513556978   -2.28757916477869   -1.83601519200853
C         1.74698964747100   -3.01209615375076   -0.61886915046932
C         0.37363758439270   -3.45474087429827   -0.62148596513140
C         2.79643232559985   -1.16169552411631   -1.83495746966376
C         2.41532411942225    0.00496322101800   -2.58739590422881
C         2.79541777248310    1.17152875901958   -1.82855589662598
C         3.41066014165802    0.72646034578192   -0.60548588595457
C         3.40611951264587   -0.71818593285791   -0.60545994700368
C         1.97791548812140    2.29615698451147   -1.82763415243730
C         0.75204123729299    2.29648363656814   -2.58709391546614
C        -0.24065385914096    3.01422821915110   -1.83188065122284
C         0.36988329959427    3.45440772007420   -0.60124670305766
C         1.74517451260882    3.01556006499304   -0.60237932782756
C        -1.56369737618611    2.58845690293215   -1.83826418026377
C        -1.94055528121653    1.42028256840497   -2.59758806367429
C        -2.93207830881576    0.69877106223865   -1.84134869761337
C        -3.15994733690039    1.41793824637515   -0.61229656227200
C        -2.32351444107623    2.58385236413207   -0.61559551577244
C        -2.93067750495912   -0.69123126999127   -1.84402140623420
C        -1.94021565948404   -1.41336599082345   -2.60837272127247
C        -1.56197915067173   -2.58320572404664   -1.85437769746686
C        -2.31502024055552   -2.57716757970482   -0.62811441239950
C        -3.15523103780748   -1.41019640450405   -0.62255220437530
C        -0.98255897703159   -0.71632407514804   -3.33034946768401
C        -0.98226205759420    0.72752191242659   -3.32585395043390
C         0.38779904502884    1.17120735088548   -3.31968048487994
C         1.23517245545193    0.00710851827555   -3.32059041615937
C         0.38876598060084   -1.16108502006146   -3.32643638448788
Cl       -1.74704891251817    0.45058250141662    5.32817475313742
Cl       -4.11191041525328   -0.10560873819579    3.79213522695600
Cl       -0.35678635189806   -2.20217125674349    5.14638501731438
63
 energy: -142.116249013219 gnorm: 0.006367367557 xtb: 6.4.1 (a3dbbd7)
C        -1.31949647515817    0.01580850433517    3.62758623646094
C        -0.39052386583545   -1.27111619568496    3.56953621106438
C         0.99366880024899   -0.72735286304679    3.28359076564605
C         0.97303260746795    0.69051402790067    3.23695089545148
C        -0.37703534224165    1.13011491231094    3.23997935474101
C         2.33086633470714   -2.58368985264731    0.57587627721424
C         3.17670560758200   -1.41287883441004    0.57338419096896
C         2.93729905496552   -0.69021776643990    1.79667105939037
C         1.94279931339107   -1.40834390831037    2.54985985589550
C         1.58663275317942   -2.59473597862578    1.79774430774286
C         3.19424515731872    1.42376447391413    0.57681698229052
C         2.34228028828777    2.58936208373238    0.57881241564634
C         1.57895320338999    2.57535073963425    1.79984947729994
C         1.95353603702429    1.40877864867299    2.54224511355304
C         2.95427161147916    0.69888413018485    1.79913225732454
C        -0.36256355042709    3.44234982382531    0.57814219715752
C        -1.73517143541515    2.99996640199677    0.57541315747920
C        -1.97617457348155    2.27533470468922    1.79221448166216
C        -0.73262443148074    2.25809938973378    2.55043109796731
C         0.25017644251334    2.98748305223535    1.79953164153362
C        -3.36595717482315    0.72456090484622    0.57461539192109
C        -3.35352594089302   -0.71625774302403    0.57015496720235
C        -2.75704698887988   -1.15566689879942    1.78056890035035
C        -2.62177790769350   -0.00807242297801    2.75040557846146
C        -2.78474976162276    1.16901754744203    1.80221205779287
C        -1.72047026437931   -2.99692224320662    0.55316299439282
C        -0.35781036520967   -3.44270633102940    0.55669112962860
C         0.24365443151581   -2.98355238240843    1.79130279816871
C        -0.73315624708993   -2.28285814527957    2.53648825448063
C        -1.93094901964344   -2.25801952093624    1.77664687631480
C        -0.24093993555108   -3.01211274608146   -1.84901874337899
C         0.75177837556793   -2.28672260355239   -2.59901441793710
C         1.97819296265411   -2.28762516116837   -1.83421901606314
C         1.74525867963469   -3.01241857472561   -0.61689444957697
C         0.37241554566236   -3.45630000012514   -0.62135284965438
C         2.79537105313746   -1.16210704392500   -1.83334008936151
C         2.41443029039785    0.00436087253099   -2.58608464405924
C         2.79408803187871    1.17070814391203   -1.82710606218310
C         3.41061244461689    0.72637340569308   -0.60443214833540
C         3.40693509786477   -0.71775446236737   -0.60495430119467
C         1.97691582272150    2.29551401796232   -1.82586446893413
C         0.75064969784428    2.29560417216943   -2.58492415086120
C        -0.24149414913616    3.01429141314261   -1.83033742347863
C         0.37017174053560    3.45591589320267   -0.60037192550792
C         1.74493285828226    3.01579366326417   -0.60107757903421
C        -1.56485520490722    2.58922436781678   -1.83699352054529
C        -1.94172855261935    1.42028158748804   -2.59648669519111
C        -2.93340305254232    0.69845697097823   -1.84298187203508
C        -3.16289169746786    1.41998580929306   -0.61431965536097
C        -2.32585552519682    2.58554037697458   -0.61492070363270
C        -2.93203641442483   -0.69195106616837   -1.84639582602295
C        -1.94196205349219   -1.41415361014200   -2.60822225518021
C        -1.56376327656577   -2.58527403145018   -1.85448181771121
C        -2.31756680167568   -2.57944320393461   -0.62825651995293
C        -3.15782673318519   -1.41264660063958   -0.62385309642325
C        -0.98361890326370   -0.71658354537673   -3.33040653296491
C        -0.98326071219137    0.72671935721482   -3.32470558987346
C         0.38686211609579    1.17035563656353   -3.31768775459508
C         1.23407480355654    0.00664036443254   -3.31892975644971
C         0.38772832930660   -1.16136396700632   -3.32565871995569
Cl       -1.71422897026622    0.40227161896110    5.34506390725675
Cl       -4.12886499672369   -0.09684550202701    3.76365595005625
Cl       -0.35998545667391   -2.16657461569157    5.15749453090335
63
 energy: -142.116402716658 gnorm: 0.002119323623 xtb: 6.4.1 (a3dbbd7)
C        -1.32070987521364    0.01494465570624    3.62864454535017
C        -0.39217352564067   -1.27265993381282    3.57454029291102
C         0.99081603525513   -0.72842113883740    3.28466578585839
C         0.97224566235309    0.68873814570159    3.23763197606529
C        -0.37874987499835    1.12783154496203    3.23999792935136
C         2.33065804514640   -2.58271973498419    0.57465043951492
C         3.17615668874489   -1.41203328307671    0.57264213256809
C         2.93381179784045   -0.69008072612777    1.79556890382013
C         1.94068304962645   -1.40764886544833    2.55081951430348
C         1.58575953860727   -2.59153505434867    1.79527253335876
C         3.19292461123398    1.42260805626792    0.57448907495616
C         2.34148048967875    2.58781731279230    0.57602467867492
C         1.57843638647821    2.57238306701134    1.79698116080807
C         1.95007333798728    1.40606727795067    2.53955698025516
C         2.95061528271478    0.69801136823253    1.79669235487666
C        -0.36236019052615    3.43901936449561    0.57748080705376
C        -1.73402634212987    2.99584750805895    0.57566382266355
C        -1.97729522235207    2.27309295579255    1.79253577422749
C        -0.73207794047970    2.25516727560504    2.54946927115044
C         0.25053991000456    2.98334470479756    1.79731310099862
C        -3.36509702323501    0.72432243954926    0.57686603571974
C        -3.35274084830611   -0.71580138160480    0.57216172926013
C        -2.75866786088903   -1.15435418263712    1.78395896468162
C        -2.62390866559522   -0.00734541492926    2.75372759978223
C        -2.78743803505969    1.16905020885052    1.80549754191579
C        -1.71911463626675   -2.99320177355382    0.55287298056124
C        -0.35769314869435   -3.43798993905355    0.55622394995043
C         0.24355381042233   -2.97943588409612    1.79141665655149
C        -0.73341329004803   -2.27959841259269    2.53745676895248
C        -1.93140850099534   -2.25574390813192    1.77858533907580
C        -0.23929023149216   -3.01046661195351   -1.84924523485737
C         0.75313574939651   -2.28560145755922   -2.59952709980538
C         1.97932486512569   -2.28663773710545   -1.83522240590452
C         1.74635309976690   -3.01117712017268   -0.61808738087350
C         0.37316647596566   -3.45331247074145   -0.62102852786034
C         2.79610094308820   -1.16147190912231   -1.83477025302610
C         2.41509220355441    0.00472771282941   -2.58748604307489
C         2.79474889387864    1.17087532569419   -1.82876893234912
C         3.41038096804401    0.72606694001709   -0.60608996700487
C         3.40613005527624   -0.71780887081736   -0.60574981533063
C         1.97738209755199    2.29508279112992   -1.82770763319311
C         0.75145016429467    2.29546372458168   -2.58650922503414
C        -0.24086681080722    3.01313992526431   -1.83133112871211
C         0.36986906955886    3.45348530906708   -0.60111318981756
C         1.74477601936721    3.01454119542998   -0.60305143440100
C        -1.56338247955389    2.58766361101598   -1.83718945105576
C        -1.94008574674498    1.41989111361276   -2.59711773192844
C        -2.93099976307215    0.69882232388957   -1.84118210675594
C        -3.15997874319580    1.41834607638989   -0.61206732121955
C        -2.32334852704638    2.58305497656925   -0.61449861215558
C        -2.92948862291830   -0.69086280560106   -1.84412195219657
C        -1.93986287025019   -1.41259941315127   -2.60777078062239
C        -1.56158474055187   -2.58271136116432   -1.85394998319090
C        -2.31498483966148   -2.57675671369046   -0.62777034024466
C        -3.15493077003214   -1.41069050404498   -0.62213889193496
C        -0.98223170783966   -0.71593933246208   -3.33010618160080
C        -0.98203598441970    0.72709936803087   -3.32548619034092
C         0.38788012343062    1.17069079771040   -3.31913804540561
C         1.23512554927596    0.00705323577652   -3.32024451815806
C         0.38892123380405   -1.16077521419179   -3.32590815409657
Cl       -1.72991028304404    0.41508205662539    5.33872307653268
Cl       -4.12210750255662   -0.09967026411052    3.77862527384264
Cl       -0.36040384118593   -2.17912175443928    5.15656026452351
63
 energy: -142.116407874748 gnorm: 0.001083623450 xtb: 6.4.1 (a3dbbd7)
C        -1.32125024489386    0.01503064074687    3.63007877588842
C        -0.39241626934050   -1.27254880542276    3.57404059809705
C         0.99034008767223   -0.72820257375689    3.28395153450707
C         0.97170439241515    0.68884004416563    3.23765809316722
C        -0.37898304475971    1.12804644530213    3.24100580750003
C         2.33051671650862   -2.58259363600673    0.57448593462817
C         3.17596355370887   -1.41205140072497    0.57252963062534
C         2.93362210158083   -0.69013242834549    1.79538564361741
C         1.94031735015765   -1.40771249232890    2.55073263858848
C         1.58552310701872   -2.59132409999699    1.79523498214941
C         3.19266912584974    1.42241884059507    0.57447024838014
C         2.34126468175692    2.58761906848483    0.57594614072033
C         1.57823265016136    2.57199738123929    1.79691260284828
C         1.94988124413454    1.40598214892939    2.53968672312427
C         2.95016200214994    0.69782085669862    1.79655862367032
C        -0.36242991099831    3.43877572497615    0.57759330680635
C        -1.73406234758726    2.99586391055779    0.57577450960374
C        -1.97752293918767    2.27338149192263    1.79297195492307
C        -0.73232308816115    2.25497492814898    2.54964924162423
C         0.25042847851141    2.98297883560310    1.79746596668847
C        -3.36457326364900    0.72385570498161    0.57692483430664
C        -3.35259220202270   -0.71616101662559    0.57234790291595
C        -2.75879057962529   -1.15465322237321    1.78430856906367
C        -2.62349564788426   -0.00740000246200    2.75390774785354
C        -2.78640686817535    1.16850714335050    1.80482025273746
C        -1.71917594606818   -2.99320777960415    0.55287053491830
C        -0.35765495213986   -3.43802425009388    0.55617687120564
C         0.24339656296391   -2.97946056938584    1.79125503551772
C        -0.73351980483381   -2.27981979623192    2.53772255012848
C        -1.93157126334885   -2.25600666393628    1.77858489980591
C        -0.23918942085188   -3.01029193653306   -1.84934388448862
C         0.75325024807100   -2.28542626724237   -2.59958090517870
C         1.97939309005539   -2.28649550994336   -1.83528780473855
C         1.74631096230499   -3.01111541637292   -0.61815771392567
C         0.37311215833820   -3.45306111117609   -0.62110479658133
C         2.79617801240995   -1.16143474519428   -1.83487784021902
C         2.41517027163363    0.00477758308652   -2.58758236880368
C         2.79475185822847    1.17085894837687   -1.82881204681720
C         3.41035665575579    0.72598279699173   -0.60612672811235
C         3.40619003903857   -0.71776530366082   -0.60582947304154
C         1.97734450315410    2.29499612424953   -1.82769756543454
C         0.75140299640289    2.29540516807090   -2.58645103202584
C        -0.24093009513982    3.01299482298767   -1.83121201890732
C         0.36976875268957    3.45327177552272   -0.60097481661899
C         1.74465879288055    3.01432897900956   -0.60305261411155
C        -1.56332105581818    2.58748416591578   -1.83698961834930
C        -1.93999110309690    1.41978549622168   -2.59706651175051
C        -2.93082774961482    0.69876000984404   -1.84116912049970
C        -3.15987765628073    1.41821672378279   -0.61192765129471
C        -2.32330161009413    2.58271268032824   -0.61423037558419
C        -2.92925311002804   -0.69085174159809   -1.84408978207008
C        -1.93975574868918   -1.41242276780909   -2.60768678198461
C        -1.56143779129110   -2.58263410438517   -1.85400902368710
C        -2.31484784227220   -2.57672307343764   -0.62779880513292
C        -3.15477659892739   -1.41092967146408   -0.62198800624292
C        -0.98213891486811   -0.71583716910885   -3.33016068287246
C        -0.98195676118609    0.72705242870283   -3.32551026087533
C         0.38797791822574    1.17073866999383   -3.31918289120387
C         1.23520751753451    0.00713532999140   -3.32031916757660
C         0.38903585240064   -1.16069710055471   -3.32600653889825
Cl       -1.72959825533949    0.41652866774453    5.33979562688060
Cl       -4.12392989653046   -0.09676341126150    3.77614712102205
Cl       -0.35700598833893   -2.18021627364013    5.15617065147862
63
 energy: -142.116406750681 gnorm: 0.001301814491 xtb: 6.4.1 (a3dbbd7)
C        -1.32180853564388    0.01463358120067    3.63056682408079
C        -0.39254298313519   -1.27219847289145    3.57249716766591
C         0.98979083761530   -0.72750607277740    3.28255650489947
C         0.97098056227266    0.68937690216946    3.23762258825405
C        -0.37915999642358    1.12889317225691    3.24286106852629
C         2.33031390465684   -2.58230507836598    0.57424403805422
C         3.17572235792998   -1.41202894410528    0.57233015321359
C         2.93355610118841   -0.69008193084809    1.79504184738653
C         1.93992542187526   -1.40773181544398    2.55061240535312
C         1.58515013128990   -2.59086683889308    1.79524817938088
C         3.19235868731190    1.42220471310202    0.57433369359611
C         2.34104450350963    2.58743553770363    0.57567227783661
C         1.57806913599776    2.57161755110996    1.79669578541399
C         1.94980978640982    1.40615142134749    2.53983859338088
C         2.94957384100578    0.69765256194056    1.79626416867433
C        -0.36243060199203    3.43855888752765    0.57762379019126
C        -1.73404521179396    2.99622775385384    0.57579405566221
C        -1.97783391528555    2.27429757236575    1.79363783547616
C        -0.73259759510548    2.25499175905629    2.54988954131667
C         0.25038507036105    2.98264592279516    1.79765375247265
C        -3.36371786398701    0.72314966037434    0.57692518075256
C        -3.35253778891564   -0.71678735207183    0.57264721343840
C        -2.75926398568491   -1.15538860921117    1.78491146114480
C        -2.62234894658888   -0.00738906910764    2.75352539784265
C        -2.78444097118013    1.16786292245811    1.80328834167242
C        -1.71935651636989   -2.99338982730701    0.55284899378904
C        -0.35758014905373   -3.43818255416850    0.55616271407545
C         0.24317601079570   -2.97964041102985    1.79105043389000
C        -0.73376805855147   -2.28040765928279    2.53822575240711
C        -1.93190587025886   -2.25658111223264    1.77844473461873
C        -0.23905180208550   -3.01002146468913   -1.84944701010306
C         0.75342578713969   -2.28517471786978   -2.59962954531060
C         1.97950261392832   -2.28628513482646   -1.83536593456981
C         1.74623286379169   -3.01101122043033   -0.61819663559194
C         0.37301101244019   -3.45267854160591   -0.62117224597855
C         2.79631507286717   -1.16140963488200   -1.83507167573763
C         2.41531034912732    0.00481622343568   -2.58780061509284
C         2.79480456443397    1.17081739803826   -1.82899611276228
C         3.41040440304819    0.72586893113617   -0.60627931504311
C         3.40636857814948   -0.71765913841885   -0.60600675856779
C         1.97733537120173    2.29485486551917   -1.82782304889284
C         0.75135626931434    2.29529001860213   -2.58647774867542
C        -0.24099526992453    3.01279856520578   -1.83114577291151
C         0.36969311633416    3.45302766281391   -0.60090344652167
C         1.74456160075679    3.01403116075701   -0.60321262104151
C        -1.56318366789247    2.58723252895488   -1.83676016984297
C        -1.93985205519403    1.41961945949588   -2.59704798204846
C        -2.93057986656118    0.69868992042277   -1.84123115347862
C        -3.15973526745391    1.41814788512946   -0.61180471333795
C        -2.32320331265869    2.58224660063411   -0.61386859540408
C        -2.92890499580257   -0.69081302270399   -1.84403496579847
C        -1.93963811451361   -1.41213371639547   -2.60749708382549
C        -1.56123548210951   -2.58254431738230   -1.85409271796932
C        -2.31470556901804   -2.57674013725971   -0.62785901228402
C        -3.15461542897804   -1.41138093343343   -0.62171771779965
C        -0.98203257368171   -0.71570295714558   -3.33026109193815
C        -0.98185336510229    0.72692648899425   -3.32559134524191
C         0.38814654167458    1.17077984729783   -3.31933298239961
C         1.23532826577008    0.00721151553816   -3.32048291575028
C         0.38919584107313   -1.16062978510827   -3.32616881274166
Cl       -1.73339255563618    0.41021704174986    5.34023779139145
Cl       -4.12208916723676   -0.09078188922447    3.77729181054273