63
 energy: -142.116410477077 gnorm: 0.000193410797 xtb: 6.4.1 (a3dbbd7)
C        -1.32145145273205    0.01486811853618    3.63045048906024
C        -0.39239793982229   -1.27229591209033    3.57315468610050
C         0.99015184741616   -0.72787781696340    3.28344653626029
C         0.97149970056743    0.68910626420760    3.23778529047713
C        -0.37912581817565    1.12847041104307    3.24187793179155
C         2.33047335547579   -2.58248971850225    0.57439709367399
C         3.17595582718405   -1.41202755547012    0.57249981038891
C         2.93368700137047   -0.69007778543810    1.79529534705906
C         1.94022795636841   -1.40772042995977    2.55075468107454
C         1.58534233469096   -2.59106401779264    1.79516018876606
C         3.19256286510173    1.42237397349213    0.57442308328588
C         2.34121321495376    2.58761201305789    0.57583566385494
C         1.57819824848306    2.57194656111193    1.79683214521868
C         1.94977254814255    1.40605805775165    2.53966981565618
C         2.94992652857278    0.69778857832797    1.79647965410138
C        -0.36245485453048    3.43869521843066    0.57756802593940
C        -1.73407421006350    2.99603531076263    0.57574738279375
C        -1.97773580291917    2.27384965786565    1.79325713457345
C        -0.73236067674590    2.25494346235770    2.54968693411512
C         0.25039815881454    2.98283848010586    1.79750655136060
C        -3.36425045944983    0.72354287675690    0.57689135981921
C        -3.35268407204248   -0.71647605882280    0.57247673476572
C        -2.75920776540608   -1.15498512896364    1.78476135062429
C        -2.62317415064387   -0.00736451433483    2.75379937158726
C        -2.78554262268782    1.16822171994311    1.80409788021281
C        -1.71923196117645   -2.99326081288934    0.55285056858743
C        -0.35763545078626   -3.43800537249427    0.55618196977140
C         0.24334856940484   -2.97951997048399    1.79122567464486
C        -0.73364848632967   -2.27992160130524    2.53790375722443
C        -1.93171564581824   -2.25615521397682    1.77851092325569
C        -0.23912510067479   -3.01023556515309   -1.84936008874944
C         0.75333198877657   -2.28537819664989   -2.59959966305892
C         1.97945905544176   -2.28645826599526   -1.83532943997551
C         1.74631995211077   -3.01110674477134   -0.61815896952086
C         0.37309245004807   -3.45297842117159   -0.62108494835618
C         2.79623258261763   -1.16144093413957   -1.83494195057646
C         2.41521928341757    0.00479549337717   -2.58765377870554
C         2.79479849929159    1.17086982383961   -1.82889276006608
C         3.41039813723409    0.72596171325411   -0.60616893672635
C         3.40626058610734   -0.71773029728863   -0.60586644437005
C         1.97734889973378    2.29497579642767   -1.82778021425721
C         0.75141335521257    2.29538936002583   -2.58652623872407
C        -0.24096290169186    3.01296582670289   -1.83124213874143
C         0.36970914386895    3.45320874318942   -0.60097486611593
C         1.74462768376995    3.01423380719114   -0.60312376286502
C        -1.56326988757297    2.58739510938824   -1.83697786819462
C        -1.93997070169155    1.41974148119248   -2.59715028673557
C        -2.93079134035723    0.69873108139216   -1.84125451270764
C        -3.15975755919553    1.41816531232521   -0.61193504676643
C        -2.32324528619568    2.58251507331354   -0.61413078117830
C        -2.92915408452116   -0.69084517032985   -1.84401246415197
C        -1.93971738033146   -1.41234284236431   -2.60760431324819
C        -1.56135629002378   -2.58261590393379   -1.85404750697914
C        -2.31478807157534   -2.57677050922259   -0.62784234709676
C        -3.15470593427839   -1.41109828120312   -0.62186457991292
C        -0.98212230578303   -0.71581519963209   -3.33020009091065
C        -0.98194321584674    0.72700394241050   -3.32557767369823
C         0.38804179056162    1.17076956287505   -3.31927821133775
C         1.23524733482143    0.00714679464498   -3.32038719560488
C         0.38908695320159   -1.16070684908766   -3.32605302628693
Cl       -1.73074582430848    0.41347410078075    5.33999089862642
Cl       -4.12330924062632   -0.09389481566142    3.77660231614302
Cl       -0.35646564608702   -2.17987462414445    5.15683758276972
