63
 energy: -142.063087782489 gnorm: 0.137196962369 xtb: 6.4.1 (a3dbbd7)
C        -1.32333194775417    0.00617886347970    3.59125188963251
C        -0.38909456310608   -1.27772716531095    3.58793274117145
C         0.98734837171535   -0.72675165446744    3.28582848483634
C         0.97037352147027    0.69420630050098    3.25749094477592
C        -0.37633960723915    1.14742685553706    3.29074190055216
C         2.33092254703306   -2.58746567485154    0.56610397604514
C         3.16875994483946   -1.41579758165486    0.56774606192583
C         2.91978889080344   -0.69314490348597    1.79074016083681
C         1.93018806170321   -1.40549148670748    2.54814074589443
C         1.57476788296703   -2.59634073810083    1.79100274817011
C         3.18328087896891    1.41909085132624    0.57258499213333
C         2.33432229320876    2.58580968143883    0.57559918777772
C         1.57332139543398    2.57095369604789    1.79851755002390
C         1.94352282881158    1.40414426944103    2.54285112768194
C         2.93804115459266    0.69543633516321    1.79366637265872
C        -0.36752716666001    3.44413435035873    0.58029879258012
C        -1.74013210357057    3.00741588983283    0.58054459941955
C        -1.97818665379860    2.28654468588757    1.80361199533287
C        -0.73393250395930    2.25581684802015    2.55761528373596
C         0.24647420110131    2.98080949443068    1.80023381740862
C        -3.39591089216029    0.72883802558845    0.57533866561121
C        -3.37932885665645   -0.70504006359254    0.57786353554246
C        -2.74934612856665   -1.12865052488571    1.82052481704193
C        -2.40026274086307   -0.01382700939334    2.55826017594831
C        -2.77435746218519    1.16021035149421    1.80187148511327
C        -1.70577977915925   -3.00504292266898    0.57191390059864
C        -0.34657433486683   -3.46193150719564    0.56452064530943
C         0.25810980605866   -3.00738238851431    1.79111395103090
C        -0.74203335365356   -2.29289841924391    2.55243835495534
C        -1.91196172287597   -2.27950749485726    1.81757326885181
C        -0.23558165862281   -3.01371296632646   -1.83961821271520
C         0.75175047781152   -2.28700579367404   -2.59867644532734
C         1.98089777627659   -2.28868303835222   -1.84308617931945
C         1.74918768154887   -3.01946296828987   -0.62050040464920
C         0.38088379041600   -3.46658963937948   -0.62079308111870
C         2.79204993046375   -1.16413556659148   -1.83875967224219
C         2.41002754086118    0.00666527739579   -2.59106683151125
C         2.78807241943814    1.16926264052202   -1.83130610074559
C         3.40298548527550    0.72369088805355   -0.60835037131266
C         3.40110069057525   -0.71955382898331   -0.60923004493565
C         1.96912615256614    2.29475463280888   -1.82840259178522
C         0.74474441569639    2.29528025280401   -2.58515694980539
C        -0.24988429155059    3.01642431380723   -1.82795956514323
C         0.36353023978106    3.45499162487799   -0.59844520421847
C         1.73735095077191    3.01278425815446   -0.60243935985793
C        -1.56944867307335    2.59059487249377   -1.83048045584010
C        -1.94787757007795    1.42311330884846   -2.58910001301826
C        -2.94122296022124    0.70465889669871   -1.83002690890673
C        -3.17947337159538    1.42642572884929   -0.60816005298080
C        -2.33307692209202    2.59081264516620   -0.60600270171083
C        -2.93172079240255   -0.68656028280689   -1.82266620418654
C        -1.94059925011627   -1.40887980593779   -2.58138532694875
C        -1.55636984787224   -2.57670213587000   -1.82754179967090
C        -2.29848528094837   -2.57416283302738   -0.59738768824741
C        -3.15456863482430   -1.39758782868201   -0.59434922362650
C        -0.98936986995949   -0.71482485845558   -3.31408037280858
C        -0.99159024528376    0.72723605185279   -3.31429029098428
C         0.38014149579772    1.17201579903766   -3.31523274930469
C         1.22728121177112    0.00778684511203   -3.31823795360647
C         0.38205649969615   -1.16057927312445   -3.31917058806611
Cl       -2.09995733548554    0.29360223981566    5.20530702406437
Cl       -0.35034641589922   -2.11046483688082    5.19906768498811
Cl       -1.49119142976623   -1.07557153857558   -5.01529668912333
63
 energy: -142.086961923112 gnorm: 0.058994990342 xtb: 6.4.1 (a3dbbd7)
C        -1.32302403961071    0.00644698954450    3.59239214577727
C        -0.38873801448205   -1.27752781026639    3.58908122894050
C         0.98730923889857   -0.72664568650754    3.28579538640285
C         0.97028614532797    0.69413252910891    3.25762175795099
C        -0.37625727046090    1.14733697335459    3.29068642265707
C         2.33144299509955   -2.58617371729525    0.56723691978259
C         3.17008010803262   -1.41451296277116    0.56918314515638
C         2.92084563460369   -0.69283731269689    1.79140921939673
C         1.92982631347176   -1.40587689277822    2.54786448753708
C         1.57580429525440   -2.59674802674197    1.79223878958541
C         3.18512625774614    1.42029626895199    0.57496541039818
C         2.33604647618307    2.58718685947012    0.57798001192745
C         1.57414885524765    2.57156020170031    1.79992306268314
C         1.94414438136381    1.40458804498032    2.54369022665308
C         2.93886795161297    0.69603128667061    1.79507374687132
C        -0.36589654270108    3.44500071448776    0.58173901095391
C        -1.73874105266119    3.00751173482715    0.58168316717831
C        -1.97825818309853    2.28764398113610    1.80485833048939
C        -0.73439994360653    2.25558120756935    2.55733807526627
C         0.24709414483632    2.98171568311305    1.80090836093353
C        -3.39780260090028    0.72866361853988    0.57979263172232
C        -3.38314246699049   -0.70638322951001    0.58567644736226
C        -2.75125843288561   -1.13017376879816    1.82693477907579
C        -2.40064144444711   -0.01383029090883    2.56060249195767
C        -2.77532705675925    1.16018524020322    1.80285557138582
C        -1.70820244205914   -3.00827346098245    0.57972654174016
C        -0.34729565844863   -3.46368918173379    0.56896652998253
C         0.25780739696961   -3.00829883033294    1.79209417919861
C        -0.74212947228256   -2.29321132731138    2.55474939826217
C        -1.91398229621257   -2.28086446584272    1.82397479132072
C        -0.23553233293983   -3.01367956440377   -1.83368679940302
C         0.75685945022312   -2.27878462729642   -2.58707601916436
C         1.98793032884295   -2.28835073165757   -1.84036363114404
C         1.75038066314435   -3.01752889769337   -0.61930666412115
C         0.38042391787297   -3.46502271888425   -0.61987911545994
C         2.80014643335555   -1.16231595956517   -1.83710355820119
C         2.41827097266943    0.00760789781044   -2.58635296280661
C         2.79274494952722    1.17229410445690   -1.82834245404529
C         3.40689732763262    0.72581196095600   -0.60578236610878
C         3.40517503300783   -0.71763587614878   -0.60719384248911
C         1.97345405194413    2.29825536297827   -1.82543590165253
C         0.74818831333567    2.30281636618566   -2.58042466425644
C        -0.24566095728747    3.02355980160066   -1.82628895183774
C         0.36661243662230    3.45827735222712   -0.59640435070520
C         1.74057866748053    3.01584384093205   -0.59986689614272
C        -1.56696621408954    2.59717169114729   -1.82774248775639
C        -1.93845078788109    1.42539832880508   -2.57751166217441
C        -2.94115855344840    0.70467666437776   -1.82409001043090
C        -3.17812050884762    1.42550332759177   -0.60724902563659
C        -2.33086183653705    2.59134610479075   -0.60481391571745
C        -2.92739224426724   -0.69075050816398   -1.80969931120509
C        -1.96072926439563   -1.42354590810568   -2.57266766808777
C        -1.55900020407990   -2.57133687965292   -1.81455323572449
C        -2.30459150520439   -2.57817720780205   -0.58529301841581
C        -3.16025250355115   -1.40221368243794   -0.58225739973856
C        -1.01761131867469   -0.73511303511044   -3.41560042487259
C        -0.98513266956970    0.73897016436271   -3.30313649627990
C         0.38115957669171    1.17379806796991   -3.30292470945546
C         1.22932262779157    0.00816288135524   -3.30593536257615
C         0.39523875740616   -1.15808503422555   -3.30803974233301
Cl       -2.10045649943771    0.29426427860042    5.20558963734783
Cl       -0.34991852705284   -2.11115697125981    5.19937934850597
Cl       -1.52973668673683   -1.10325491796253   -5.15589175852915
63
 energy: -142.092929083626 gnorm: 0.013560018550 xtb: 6.4.1 (a3dbbd7)
C        -1.32206768872225    0.00709005911584    3.59556003308789
C        -0.38782617833275   -1.27683343650504    3.59225665685277
C         0.98806148726190   -0.72586862472463    3.28899134181915
C         0.97106120007580    0.69467836774229    3.26062119793611
C        -0.37528149584350    1.14778247697123    3.29385526607294
C         2.33134063616272   -2.58427523012245    0.56958740629452
C         3.17139621470117   -1.41295201540155    0.57217582748075
C         2.92151887081671   -0.69183771864838    1.79383686232548
C         1.92974849454356   -1.40537436401281    2.55026330594277
C         1.57653243177272   -2.59566471069277    1.79524687381223
C         3.18746383771737    1.42195017326666    0.57917610814954
C         2.33835242612812    2.58888836139389    0.58219178654551
C         1.57563127987721    2.57233864309129    1.80342017944802
C         1.94531164349778    1.40542274103578    2.54709690605314
C         2.94006621207604    0.69718968309464    1.79857276475396
C        -0.36400239913554    3.44576421784036    0.58473342800890
C        -1.73696248871575    3.00681806390349    0.58403561710364
C        -1.97700186583808    2.28798044616313    1.80786783443998
C        -0.73392945671375    2.25532973401695    2.55972948783531
C         0.24825930604938    2.98203346027194    1.80333596843447
C        -3.39798347835487    0.72892275155664    0.58421983538088
C        -3.38231884227323   -0.70606189353164    0.59034993999286
C        -2.75290516527436   -1.13104391268212    1.83340844819485
C        -2.40047291973892   -0.01394029248856    2.56463540074750
C        -2.77477418190925    1.16004483439968    1.80480333610165
C        -1.70762635455856   -3.00759724056091    0.58440109371724
C        -0.34708401955408   -3.46395080663495    0.57338465315761
C         0.25786021165513   -3.00772817996525    1.79403778456811
C        -0.74216132884048   -2.29299730732594    2.55876900418843
C        -1.91529437049381   -2.28216684877200    1.83043440026082
C        -0.23558613344189   -3.01507073317482   -1.83302499555819
C         0.75529585964185   -2.27198241603142   -2.58736663228916
C         1.98375012584562   -2.28176699652517   -1.83632573189375
C         1.74906051357582   -3.01339233849344   -0.61696390087115
C         0.37845863527383   -3.46085783743338   -0.61981785921634
C         2.80064194338745   -1.15850141301602   -1.83307082161976
C         2.41788095809328    0.00768122180228   -2.58109677537787
C         2.79403050369957    1.17340717444202   -1.82447033554888
C         3.40953761607201    0.72784697629649   -0.60198592955091
C         3.40860487589943   -0.71590704458836   -0.60402383381125
C         1.97491512397180    2.29912167201719   -1.82156156348765
C         0.74814845038136    2.30240441292177   -2.57516692384487
C        -0.24187248206499    3.02284122866119   -1.82226450946228
C         0.36931770855784    3.46100081000073   -0.59322861111358
C         1.74333491489460    3.01771664451169   -0.59606820567876
C        -1.56198204761795    2.59115108502335   -1.82373287019728
C        -1.93245771189164    1.42181124632988   -2.57782165163625
C        -2.94249498725029    0.70504942070637   -1.82341264342079
C        -3.17476254381132    1.42235129851117   -0.60719786474114
C        -2.32732234364373    2.58880415271721   -0.60248493119248
C        -2.91635482759615   -0.69169282584913   -1.80760695914320
C        -1.96105180207778   -1.42379366191020   -2.56651655709345
C        -1.55649842534351   -2.56055143829641   -1.81243600085318
C        -2.30209980365846   -2.57507561704631   -0.58013286588759
C        -3.15653675977913   -1.40082501984946   -0.57709976741886
C        -1.04042098073845   -0.75147397805850   -3.50722675987749
C        -0.98547197703553    0.74152276740654   -3.30746376148898
C         0.37504755184031    1.16933207176242   -3.29358578221020
C         1.22321644931701    0.00368943044505   -3.29659835273105
C         0.39755470175063   -1.15917840506772   -3.31237635457658
Cl       -2.09946492575091    0.29361814486015    5.20855782355898
Cl       -0.35029983906802   -2.11003312211970    5.20239187527929
Cl       -1.56348618888059   -1.12754829779232   -5.25872184782091
63
 energy: -142.093239827885 gnorm: 0.008173860655 xtb: 6.4.1 (a3dbbd7)
C        -1.32200588877439    0.00741515059781    3.59764353431308
C        -0.38749882456694   -1.27687741126077    3.59432691928399
C         0.98839441710427   -0.72561707061460    3.29099440238684
C         0.97145899406342    0.69495800345464    3.26265572209828
C        -0.37493269063760    1.14800845254438    3.29584794277850
C         2.33078794073705   -2.58297024732098    0.57051326814406
C         3.17151539874299   -1.41203243837693    0.57379127399454
C         2.92202713733177   -0.69127196338275    1.79561139144573
C         1.92990571518232   -1.40497388637477    2.55185219434500
C         1.57682723988474   -2.59498054722676    1.79670518699906
C         3.18865391690883    1.42271771135465    0.58139748309874
C         2.33945455296109    2.58977698522121    0.58441338762963
C         1.57651948158999    2.57298298342795    1.80563431667941
C         1.94590983074197    1.40585035074574    2.54929648510952
C         2.94095799663327    0.69782819809996    1.80078782841972
C        -0.36308836149002    3.44558971293543    0.58634602863253
C        -1.73589065210849    3.00588581719550    0.58495687616517
C        -1.97626016030053    2.28804552340432    1.80932550455647
C        -0.73349378101274    2.25534751339006    2.56131398631228
C         0.24895958880753    2.98233601748938    1.80510786707148
C        -3.39748908114804    0.72922378399449    0.58542760214685
C        -3.38091326162447   -0.70561632122126    0.59096623889298
C        -2.75311588036875   -1.13102191975937    1.83522022024514
C        -2.40029094220759   -0.01384969567803    2.56626741198280
C        -2.77414375923801    1.16014497385500    1.80559127944405
C        -1.70676585757197   -3.00639815848637    0.58502075079043
C        -0.34663742601077   -3.46357365855751    0.57459330679102
C         0.25815535260816   -3.00716011259037    1.79482572215850
C        -0.74201007494409   -2.29284342911837    2.56038774484677
C        -1.91533352523475   -2.28238238543683    1.83224540608435
C        -0.23529922595971   -3.01706177207483   -1.83424584889783
C         0.75352890244197   -2.27171713539193   -2.59161290952214
C         1.97972816551197   -2.27797034756005   -1.83526223346640
C         1.74739475757187   -3.01055559150847   -0.61610062971078
C         0.37763191078331   -3.45948912854096   -0.61989859554650
C         2.79879683532463   -1.15683519558259   -1.83124699038850
C         2.41493906114581    0.00790087729333   -2.57902837517077
C         2.79301480061605    1.17307255044477   -1.82227136682624
C         3.41009917593022    0.72848013285696   -0.60004924514403
C         3.40910337625169   -0.71523617328475   -0.60238377130932
C         1.97428802823673    2.29825220413665   -1.81936374770367
C         0.74745554831835    2.29953089979516   -2.57310588971810
C        -0.24085211417720    3.02056642876758   -1.82045045254398
C         0.37011190549131    3.46126293366164   -0.59158965093976
C         1.74411372792491    3.01805080116835   -0.59413211174165
C        -1.55960597699496    2.58615069373146   -1.82269154736475
C        -1.93275985131940    1.42006020829486   -2.58207247915444
C        -2.94430555975779    0.70593639603374   -1.82462587794241
C        -3.17371705679206    1.42114283644464   -0.60728603875889
C        -2.32513604831413    2.58634167133131   -0.60163576173267
C        -2.91268418476506   -0.69109735065041   -1.81042213720379
C        -1.95690457868102   -1.42077442980053   -2.56737593589451
C        -1.55480739675227   -2.55723330082696   -1.81524391811165
C        -2.29888857376368   -2.57208834785514   -0.58013172027160
C        -3.15270274034653   -1.39869186611868   -0.57710059052678
C        -1.04480380935447   -0.75460431455414   -3.53018094724624
C        -0.98853580633213    0.74023201776699   -3.31691619709813
C         0.37190821085657    1.16701273143955   -3.29299828829116
C         1.22004510228408    0.00141485211831   -3.29601107933960
C         0.39536177431694   -1.16166423296751   -3.32183149656136
Cl       -2.10014289311706    0.29625233062114    5.20992096064743
Cl       -0.34806798646481   -2.11153230756691    5.20371612248782
Cl       -1.57242070558383   -1.13401095896949   -5.27434168392307
63
 energy: -142.093333639939 gnorm: 0.004814853943 xtb: 6.4.1 (a3dbbd7)
C        -1.32170481452792    0.00738898509083    3.59747829234090
C        -0.38743908467954   -1.27657722134070    3.59414308255294
C         0.98869253313286   -0.72543372139338    3.29146250816821
C         0.97176349907623    0.69517948587597    3.26291494276233
C        -0.37466637853412    1.14823546757522    3.29630872744597
C         2.33063464424231   -2.58251339513989    0.57079054343348
C         3.17161052267030   -1.41164097462458    0.57443566346446
C         2.92251436405785   -0.69104025260547    1.79630115371643
C         1.93018896015458   -1.40486565665464    2.55240232798115
C         1.57704361395259   -2.59479249544690    1.79723100649421
C         3.18949620424302    1.42318193913722    0.58214776438519
C         2.34015523147925    2.59043485762112    0.58516317060891
C         1.57705887995240    2.57351802985126    1.80635457527381
C         1.94634276613794    1.40616615248082    2.54986410220326
C         2.94163303991284    0.69817703045645    1.80150939747038
C        -0.36268680321491    3.44556187984603    0.58698501254446
C        -1.73550536351922    3.00560033802857    0.58522836650754
C        -1.97602030585390    2.28820212519432    1.80985088704311
C        -0.73330469663058    2.25558694474936    2.56186102009653
C         0.24933042651236    2.98273144938282    1.80579346304506
C        -3.39764349163484    0.72966861986306    0.58585119727674
C        -3.38051369801820   -0.70529798001894    0.59081714752225
C        -2.75324607932900   -1.13097243654221    1.83541804375492
C        -2.40052428176133   -0.01385951095695    2.56657992891560
C        -2.77411669660818    1.16037179738190    1.80571438642009
C        -1.70634257819280   -3.00611633758300    0.58487409960745
C        -0.34625847390095   -3.46385667763659    0.57501893400262
C         0.25838035298590   -3.00720553433751    1.79494982175862
C        -0.74208770362228   -2.29304205251937    2.56067525369297
C        -1.91533599526739   -2.28253335178890    1.83244756076931
C        -0.23471588749838   -3.01908582160644   -1.83478157945528
C         0.75264136833934   -2.27181097862885   -2.59368290293374
C         1.97758599717027   -2.27586445820020   -1.83483605895196
C         1.74645437197394   -3.00904424996552   -0.61574018298239
C         0.37749266199418   -3.45954787595131   -0.61996055128631
C         2.79793555001877   -1.15620383370202   -1.83039313485867
C         2.41298736554038    0.00809662231679   -2.57767394191732
C         2.79227504064585    1.17277128055983   -1.82110472886618
C         3.41061599150378    0.72865034382412   -0.59929430652124
C         3.40956747777848   -0.71502922031946   -0.60161354043448
C         1.97377679542667    2.29763821064342   -1.81819939687928
C         0.74704493855249    2.29760752361331   -2.57175894047457
C        -0.24051448591708    3.01954990050075   -1.81960538961960
C         0.37045243007885    3.46163819197116   -0.59082351367738
C         1.74443551140652    3.01848984463767   -0.59337876349149
C        -1.55826011671288    2.58346237287938   -1.82228290026133
C        -1.93312647135213    1.41924973451233   -2.58414875094696
C        -2.94605403896711    0.70711434623737   -1.82515803858629
C        -3.17381651549323    1.42103030772664   -0.60735454704684
C        -2.32399041160936    2.58498233698384   -0.60128931174804
C        -2.91048171861901   -0.69023077300210   -1.81236717410430
C        -1.95282522074275   -1.41780869106895   -2.56720247619350
C        -1.55330876522870   -2.55540005500683   -1.81718436674750
C        -2.29663020614046   -2.57002583725464   -0.58039321762037
C        -3.15003452510368   -1.39717600577780   -0.57736328306772
C        -1.04646327418149   -0.75578829005616   -3.54020346793361
C        -0.99057232844579    0.73909446859275   -3.32218660469008
C         0.37013083146969    1.16571738728981   -3.29219751833690
C         1.21826938943488    0.00011730054253   -3.29520951101498
C         0.39364233276677   -1.16323692890469   -3.32710170295190
Cl       -2.09625294229144    0.28940333931223    5.21253119154831
Cl       -0.35343163338600   -2.10582356152857    5.20628830700596
Cl       -1.57673393503811   -1.13715439015839   -5.27380522828146
63
 energy: -142.093343453878 gnorm: 0.003537038677 xtb: 6.4.1 (a3dbbd7)
C        -1.32287668057226    0.00763267275500    3.59888265521774
C        -0.38756404383049   -1.27777597585907    3.59554638282208
C         0.98814646843607   -0.72595230248638    3.29146135003443
C         0.97114612413962    0.69472976458015    3.26317927541823
C        -0.37532799151523    1.14787357658455    3.29629773830312
C         2.33071518331987   -2.58261814580100    0.57071997085074
C         3.17160659261526   -1.41155555488392    0.57475255351755
C         2.92249318656314   -0.69114995941770    1.79661329224454
C         1.92985109608739   -1.40502420022062    2.55229631265202
C         1.57718352143862   -2.59498075765375    1.79719393712215
C         3.18976326098394    1.42326185673735    0.58275369010283
C         2.34031335521972    2.59066251372868    0.58576892239409
C         1.57695514601905    2.57345178820046    1.80682563357235
C         1.94585073932332    1.40580830024360    2.55024111309325
C         2.94154022268702    0.69809913757850    1.80198189757635
C        -0.36260872533433    3.44552958144190    0.58729988179447
C        -1.73558315823470    3.00570739736699    0.58515821517622
C        -1.97616181681471    2.28839406297712    1.80981446205661
C        -0.73356218962396    2.25531353997805    2.56175138257381
C         0.24921803195234    2.98274258729934    1.80610256720320
C        -3.39799635470600    0.73011222594114    0.58595397341877
C        -3.38041575904280   -0.70508217542480    0.59074278277568
C        -2.75324056398670   -1.13087101365206    1.83552824522228
C        -2.40046408871497   -0.01367833392485    2.56649700102983
C        -2.77412972524945    1.16054816791084    1.80532700013510
C        -1.70611083469264   -3.00609171057597    0.58479849509769
C        -0.34594573583725   -3.46432918864863    0.57511779161013
C         0.25854363994351   -3.00726641874194    1.79455829166398
C        -0.74189536108204   -2.29303103429597    2.56058253786715
C        -1.91524286419604   -2.28256195796529    1.83255672737295
C        -0.23404529277787   -3.02093573432828   -1.83492533845914
C         0.75223282427340   -2.27179152154188   -2.59452174895429
C         1.97642575589643   -2.27455524332337   -1.83466518929926
C         1.74597463338827   -3.00835429517074   -0.61568748884421
C         0.37764498156162   -3.46021119056955   -0.62009067848404
C         2.79767688228679   -1.15599834853195   -1.82985930919485
C         2.41174660277268    0.00832630669347   -2.57652259060636
C         2.79176656272863    1.17254255349356   -1.82014201625948
C         3.41095795325164    0.72859052291883   -0.59867174807058
C         3.41005067181056   -0.71503009197545   -0.60106618527231
C         1.97340472890296    2.29722160315964   -1.81723744617738
C         0.74688415714505    2.29635146381924   -2.57061194081997
C        -0.24039790731697    3.01923849864420   -1.81907415130493
C         0.37059993437699    3.46209537570208   -0.59027612976827
C         1.74448376972056    3.01883192259989   -0.59275591392052
C        -1.55737125660048    2.58195466162202   -1.82211950392437
C        -1.93323525897550    1.41885685118139   -2.58498814309191
C        -2.94760716659648    0.70832099587153   -1.82529171399917
C        -3.17440030240326    1.42138046482195   -0.60748129121491
C        -2.32348374569188    2.58431401119006   -0.60124088052440
C        -2.90867831597374   -0.68933372981918   -1.81340758826083
C        -1.94879934712126   -1.41488343215414   -2.56594713753377
C        -1.55190211565894   -2.55395834436718   -1.81822495372110
C        -2.29492094001376   -2.56841255720082   -0.58034825978165
C        -3.14797001943568   -1.39604612664881   -0.57731775403623
C        -1.04748644656881   -0.75651881073838   -3.54598038779445
C        -0.99184345450198    0.73818675752326   -3.32490391410560
C         0.36903772268081    1.16493670790756   -3.29096347562669
C         1.21719401806357   -0.00068744042249   -3.29397512615150
C         0.39238184638633   -1.16415863383634   -3.32981952042293
Cl       -2.10485422792878    0.30598209181711    5.20779753185829
Cl       -0.34035586222881   -2.11913123530338    5.20146568227046
Cl       -1.57976789015887   -1.13938245184761   -5.26635292049153
63
 energy: -142.093389682284 gnorm: 0.001900382328 xtb: 6.4.1 (a3dbbd7)
C        -1.32228497357934    0.00737112253196    3.59740041254095
C        -0.38763060893993   -1.27713023791621    3.59407916067967
C         0.98833605932987   -0.72574972186616    3.29093585937261
C         0.97135752392086    0.69488525331025    3.26246450487293
C        -0.37507778843223    1.14799205391376    3.29577215793881
C         2.33085497959702   -2.58287557669514    0.57051010946944
C         3.17161956087143   -1.41170744357583    0.57429637129051
C         2.92245663564005   -0.69121054590428    1.79610517617055
C         1.92998079546083   -1.40507446719098    2.55198099097294
C         1.57709592648841   -2.59507139799905    1.79688633700975
C         3.18956583853720    1.42315668086049    0.58207597821073
C         2.34015177918930    2.59050814270674    0.58509165900839
C         1.57687985496731    2.57340413678634    1.80614846128175
C         1.94598990183263    1.40591019017627    2.54958001327267
C         2.94147155127180    0.69804335293358    1.80130409633840
C        -0.36275001824887    3.44558698596309    0.58684603894383
C        -1.73578442886504    3.00591842131722    0.58495123810866
C        -1.97627289918594    2.28833297117451    1.80950600876125
C        -0.73357018348508    2.25544993121197    2.56143698166521
C         0.24914800374097    2.98272406269955    1.80559589963447
C        -3.39818217759820    0.73008403294066    0.58567803364412
C        -3.38091576258709   -0.70517388548157    0.59051592539945
C        -2.75328920459193   -1.13094640646737    1.83493008492920
C        -2.40062078117930   -0.01386265464823    2.56599629237617
C        -2.77439627953851    1.16050480690748    1.80518665524966
C        -1.70635273836412   -3.00653895289268    0.58456897147345
C        -0.34603254721649   -3.46449793097181    0.57483853700377
C         0.25841948000097   -3.00750351722066    1.79441517699416
C        -0.74212154336341   -2.29313175305067    2.56009455925604
C        -1.91532681050816   -2.28257630123147    1.83195521348640
C        -0.23407294558424   -3.02034533070620   -1.83466572143882
C         0.75274584500274   -2.27163297398107   -2.59346227643039
C         1.97745305750790   -2.27541873570121   -1.83494057269501
C         1.74647553577792   -3.00905983997320   -0.61591942973725
C         0.37788937142720   -3.46049266434949   -0.62016532254420
C         2.79823601473218   -1.15633619983709   -1.83037734378069
C         2.41263347448015    0.00828495499350   -2.57719251940657
C         2.79213418125123    1.17269388397595   -1.82085565485117
C         3.41089960310410    0.72851013347742   -0.59927820736658
C         3.41002520398067   -0.71512100739972   -0.60155678019664
C         1.97365991872331    2.29752648164159   -1.81794977268706
C         0.74711585517138    2.29721105841491   -2.57127854050473
C        -0.24054853239370    3.01987620747888   -1.81958743398814
C         0.37050477098528    3.46210064627456   -0.59076417339985
C         1.74438813238531    3.01880187869049   -0.59336096573368
C        -1.55787752487480    2.58319933491541   -1.82238664033206
C        -1.93292423953507    1.41929361832122   -2.58392503900198
C        -2.94705216777883    0.70811296435605   -1.82503026077555
C        -3.17459230748255    1.42169922370343   -0.60755012657916
C        -2.32399968914578    2.58500789062102   -0.60146578757092
C        -2.90927330196375   -0.68947424249467   -1.81258853127884
C        -1.94962018750844   -1.41548103649985   -2.56536341541871
C        -1.55221753215574   -2.55448296984493   -1.81740887516513
C        -2.29578582727035   -2.56919599869553   -0.58035919826796
C        -3.14898842759170   -1.39662840845282   -0.57732776301767
C        -1.04700769784061   -0.75617857066249   -3.54233579301631
C        -0.99093100901602    0.73863190235431   -3.32239469465241
C         0.36978018745258    1.16550008090735   -3.29107731961629
C         1.21795729911591   -0.00015277275187   -3.29408933272294
C         0.39309092018494   -1.16343427485371   -3.32731045058965
Cl       -2.09944279782697    0.29485934443101    5.21028377895453
Cl       -0.34924440983150   -2.11052534703100    5.20404336925712