 Entering Gaussian System, Link 0=g16
 Input=2_addons_C84_11_Cl22_rank_9.gjf
 Output=2_addons_C84_11_Cl22_rank_9.log
 Initial command:
 /home/mkliu/g16/l1.exe "/data/scratch/Gau-161511.inp" -scrdir="/data/scratch/"
 Entering Link 1 = /home/mkliu/g16/l1.exe PID=    161512.
  
 Copyright (c) 1988,1990,1992,1993,1995,1998,2003,2009,2016,
            Gaussian, Inc.  All Rights Reserved.
  
 This is part of the Gaussian(R) 16 program.  It is based on
 the Gaussian(R) 09 system (copyright 2009, Gaussian, Inc.),
 the Gaussian(R) 03 system (copyright 2003, Gaussian, Inc.),
 the Gaussian(R) 98 system (copyright 1998, Gaussian, Inc.),
 the Gaussian(R) 94 system (copyright 1995, Gaussian, Inc.),
 the Gaussian 92(TM) system (copyright 1992, Gaussian, Inc.),
 the Gaussian 90(TM) system (copyright 1990, Gaussian, Inc.),
 the Gaussian 88(TM) system (copyright 1988, Gaussian, Inc.),
 the Gaussian 86(TM) system (copyright 1986, Carnegie Mellon
 University), and the Gaussian 82(TM) system (copyright 1983,
 Carnegie Mellon University). Gaussian is a federally registered
 trademark of Gaussian, Inc.
  
 This software contains proprietary and confidential information,
 including trade secrets, belonging to Gaussian, Inc.
  
 This software is provided under written license and may be
 used, copied, transmitted, or stored only in accord with that
 written license.
  
 The following legend is applicable only to US Government
 contracts under FAR:
  
                    RESTRICTED RIGHTS LEGEND
  
 Use, reproduction and disclosure by the US Government is
 subject to restrictions as set forth in subparagraphs (a)
 and (c) of the Commercial Computer Software - Restricted
 Rights clause in FAR 52.227-19.
  
 Gaussian, Inc.
 340 Quinnipiac St., Bldg. 40, Wallingford CT 06492
  
  
 ---------------------------------------------------------------
 Warning -- This program may not be used in any manner that
 competes with the business of Gaussian, Inc. or will provide
 assistance to any competitor of Gaussian, Inc.  The licensee
 of this program is prohibited from giving any competitor of
 Gaussian, Inc. access to this program.  By using this program,
 the user acknowledges that Gaussian, Inc. is engaged in the
 business of creating and licensing software in the field of
 computational chemistry and represents and warrants to the
 licensee that it is not a competitor of Gaussian, Inc. and that
 it will not use this program in any manner prohibited above.
 ---------------------------------------------------------------
  

 Cite this work as:
 Gaussian 16, Revision A.03,
 M. J. Frisch, G. W. Trucks, H. B. Schlegel, G. E. Scuseria, 
 M. A. Robb, J. R. Cheeseman, G. Scalmani, V. Barone, 
 G. A. Petersson, H. Nakatsuji, X. Li, M. Caricato, A. V. Marenich, 
 J. Bloino, B. G. Janesko, R. Gomperts, B. Mennucci, H. P. Hratchian, 
 J. V. Ortiz, A. F. Izmaylov, J. L. Sonnenberg, D. Williams-Young, 
 F. Ding, F. Lipparini, F. Egidi, J. Goings, B. Peng, A. Petrone, 
 T. Henderson, D. Ranasinghe, V. G. Zakrzewski, J. Gao, N. Rega, 
 G. Zheng, W. Liang, M. Hada, M. Ehara, K. Toyota, R. Fukuda, 
 J. Hasegawa, M. Ishida, T. Nakajima, Y. Honda, O. Kitao, H. Nakai, 
 T. Vreven, K. Throssell, J. A. Montgomery, Jr., J. E. Peralta, 
 F. Ogliaro, M. J. Bearpark, J. J. Heyd, E. N. Brothers, K. N. Kudin, 
 V. N. Staroverov, T. A. Keith, R. Kobayashi, J. Normand, 
 K. Raghavachari, A. P. Rendell, J. C. Burant, S. S. Iyengar, 
 J. Tomasi, M. Cossi, J. M. Millam, M. Klene, C. Adamo, R. Cammi, 
 J. W. Ochterski, R. L. Martin, K. Morokuma, O. Farkas, 
 J. B. Foresman, and D. J. Fox, Gaussian, Inc., Wallingford CT, 2016.
 
 ******************************************
 Gaussian 16:  ES64L-G16RevA.03 25-Dec-2016
                30-Jun-2022 
 ******************************************
 %mem=10GB
 %chk=2_addons_C84_11_Cl22_rank_9.chk
 %nprocshared=24
 Will use up to   24 processors via shared memory.
 ------------------------------------------------
 #P opt b3lyp/6-31G(d, p) empiricaldispersion=GD3
 ------------------------------------------------
 1/18=20,19=15,26=3,38=1/1,3;
 2/9=110,12=2,17=6,18=5,40=1/2;
 3/5=1,6=6,7=101,11=2,25=1,30=1,71=1,74=-5,124=31/1,2,3;
 4//1;
 5/5=2,38=5/2;
 6/7=2,8=2,9=2,10=2,28=1/1;
 7//1,2,3,16;
 1/18=20,19=15,26=3/3(2);
 2/9=110/2;
 99//99;
 2/9=110/2;
 3/5=1,6=6,7=101,11=2,25=1,30=1,71=1,74=-5,124=31/1,2,3;
 4/5=5,16=3,69=1/1;
 5/5=2,38=5/2;
 7//1,2,3,16;
 1/18=20,19=15,26=3/3(-5);
 2/9=110/2;
 6/7=2,8=2,9=2,10=2,19=2,28=1/1;
 99/9=1/99;
 Leave Link    1 at Thu Jun 30 08:37:58 2022, MaxMem=  1342177280 cpu:               0.6 elap:               0.1
 (Enter /home/mkliu/g16/l101.exe)
 -----
 force
 -----
 Symbolic Z-matrix:
 Charge =  0 Multiplicity = 1
 C                     8.4905    18.891    10.74891 
 C                     12.56741   19.9961   8.88339 
 C                     8.26854   26.88728   10.53067 
 C                     12.27046   25.58627   8.96067 
 C                     8.01513   19.11501   9.4421 
 C                     12.06406   19.49917   10.20162 
 C                     7.9629    26.85812   9.14475 
 C                     11.84378   26.15613   10.19992 
 C                     8.97624   19.2162   8.36515 
 C                     12.33029   20.14027   11.37148 
 C                     12.11212   25.48776   11.37019 
 C                     8.95187   26.66996   8.15249 
 C                     10.34572   19.07946   8.68306 
 C                     10.27487   26.72036   8.62543 
 C                     10.80402   18.85263   10.01693 
 C                     10.58661   26.82309   10.00499 
 C                     9.87946   18.77453   11.03981 
 C                     9.59098   26.79892   11.00766 
 C                     10.15285   19.45247   12.27236 
 C                     9.85589   26.06711   12.23329 
 C                     8.93776   20.01907   12.76204 
 C                     8.77728   25.43229   12.89181 
 C                     7.89622   19.55011   11.88441 
 C                     7.44284   25.51289   12.36114 
 C                     6.74437   20.27433   11.73416 
 C                     7.18815   26.22396   11.22174 
 C                     6.12307   20.36171   10.45254 
 C                     6.23716   25.73098   10.25967 
 C                     6.74365   19.78922   9.3187 
 C                     6.67429   26.23394   9.00344 
 C                     6.4151    20.38396   8.09619 
 C                     6.36649   25.56323   7.84995 
 C                     7.33336   20.37428   6.99259 
 C                     7.32579   25.47471   6.78021 
 C                     8.66021   19.92619   7.15199 
 C                     8.65254   25.90962   6.95092 
 C                     9.69887   20.60187   6.40672 
 C                     9.70525   25.16169   6.29292 
 C                     11.05946   20.57605   6.90247 
 C                     12.74068   22.16788   7.75682 
 C                     12.73097   23.6018   7.74839 
 C                     11.04631   25.17667   6.84924 
 C                     11.35901   19.77301   7.98807 
 C                     12.94187   21.45927   8.95793 
 C                     12.90544   24.32222   8.93564 
 C                     11.31899   25.96746   7.97504 
 C                     13.17136   22.14692   10.13725 
 C                     13.15109   23.59534   10.1595 
 C                     13.15786   21.39138   11.45556 
 C                     12.84099   24.25712   11.35835 
 C                     12.41739   22.15427   12.5207 
 C                     12.36113   23.51107   12.49389 
 C                     11.33946   20.1453   12.40643 
 C                     11.10627   25.44217   12.40618 
 C                     11.32796   21.41437   13.05488 
 C                     11.23941   24.1947   13.06892 
 C                     8.88842   21.30302   13.33506 
 C                     8.90071   24.1579   13.49282 
 C                     7.64664   22.04117   13.20422 
 C                     7.66094   23.44028   13.30633 
 C                     6.58808   21.51908   12.42454 
 C                     6.76774   24.26511   12.57654 
 C                     5.7703    22.34174   11.60534 
 C                     5.87964   23.74096   11.60586 
 C                     5.47644   21.6255   10.39071 
 C                     5.63135   24.46662   10.37771 
 C                     5.26563   22.29763   9.1767 
 C                     5.3107    23.74701   9.15932 
 C                     5.60942   21.56059   8.01739 
 C                     5.6023    24.35614   7.9237 
 C                     5.94349   22.22075   6.7955 
 C                     5.93957   23.59736   6.75125 
 C                     6.99559   21.47477   6.15447 
 C                     6.99338   24.29315   6.05152 
 C                     7.99607   22.13757   5.4696 
 C                     7.9973    23.5839   5.42479 
 C                     9.3364    21.68334   5.57839 
 C                     9.34335   24.04067   5.52101 
 C                     11.90826   21.70761   6.7127 
 C                     11.88428   24.04833   6.7001 
 C                     10.16995   22.85796   5.47815 
 C                     11.41673   22.86786   6.03782 
 C                     10.13283   22.02586   13.49737 
 C                     10.12386   23.46677   13.54895 
 Cl                    14.00266   19.05835   8.28534 
 Cl                    14.88049   21.0524   11.93383 
 
 ITRead=  0  0  0  0  0  0  0  0  0  0  0  0  0  0  0  0  0  0  0  0
 ITRead=  0  0  0  0  0  0  0  0  0  0  0  0  0  0  0  0  0  0  0  0
 ITRead=  0  0  0  0  0  0  0  0  0  0  0  0  0  0  0  0  0  0  0  0
 ITRead=  0  0  0  0  0  0  0  0  0  0  0  0  0  0  0  0  0  0  0  0
 ITRead=  0  0  0  0  0  0
 MicOpt= -1 -1 -1 -1 -1 -1 -1 -1 -1 -1 -1 -1 -1 -1 -1 -1 -1 -1 -1 -1
 MicOpt= -1 -1 -1 -1 -1 -1 -1 -1 -1 -1 -1 -1 -1 -1 -1 -1 -1 -1 -1 -1
 MicOpt= -1 -1 -1 -1 -1 -1 -1 -1 -1 -1 -1 -1 -1 -1 -1 -1 -1 -1 -1 -1
 MicOpt= -1 -1 -1 -1 -1 -1 -1 -1 -1 -1 -1 -1 -1 -1 -1 -1 -1 -1 -1 -1
 MicOpt= -1 -1 -1 -1 -1 -1
 NAtoms=     86 NQM=       86 NQMF=       0 NMMI=      0 NMMIF=      0
                NMic=       0 NMicF=      0.
                    Isotopes and Nuclear Properties:
 (Nuclear quadrupole moments (NQMom) in fm**2, nuclear magnetic moments (NMagM)
  in nuclear magnetons)

  Atom         1           2           3           4           5           6           7           8           9          10
 IAtWgt=          12          12          12          12          12          12          12          12          12          12
 AtmWgt=  12.0000000  12.0000000  12.0000000  12.0000000  12.0000000  12.0000000  12.0000000  12.0000000  12.0000000  12.0000000
 NucSpn=           0           0           0           0           0           0           0           0           0           0
 AtZEff=  -0.0000000  -0.0000000  -0.0000000  -0.0000000  -0.0000000  -0.0000000  -0.0000000  -0.0000000  -0.0000000  -0.0000000
 NQMom=    0.0000000   0.0000000   0.0000000   0.0000000   0.0000000   0.0000000   0.0000000   0.0000000   0.0000000   0.0000000
 NMagM=    0.0000000   0.0000000   0.0000000   0.0000000   0.0000000   0.0000000   0.0000000   0.0000000   0.0000000   0.0000000
 AtZNuc=   6.0000000   6.0000000   6.0000000   6.0000000   6.0000000   6.0000000   6.0000000   6.0000000   6.0000000   6.0000000

  Atom        11          12          13          14          15          16          17          18          19          20
 IAtWgt=          12          12          12          12          12          12          12          12          12          12
 AtmWgt=  12.0000000  12.0000000  12.0000000  12.0000000  12.0000000  12.0000000  12.0000000  12.0000000  12.0000000  12.0000000
 NucSpn=           0           0           0           0           0           0           0           0           0           0
 AtZEff=  -0.0000000  -0.0000000  -0.0000000  -0.0000000  -0.0000000  -0.0000000  -0.0000000  -0.0000000  -0.0000000  -0.0000000
 NQMom=    0.0000000   0.0000000   0.0000000   0.0000000   0.0000000   0.0000000   0.0000000   0.0000000   0.0000000   0.0000000
 NMagM=    0.0000000   0.0000000   0.0000000   0.0000000   0.0000000   0.0000000   0.0000000   0.0000000   0.0000000   0.0000000
 AtZNuc=   6.0000000   6.0000000   6.0000000   6.0000000   6.0000000   6.0000000   6.0000000   6.0000000   6.0000000   6.0000000

  Atom        21          22          23          24          25          26          27          28          29          30
 IAtWgt=          12          12          12          12          12          12          12          12          12          12
 AtmWgt=  12.0000000  12.0000000  12.0000000  12.0000000  12.0000000  12.0000000  12.0000000  12.0000000  12.0000000  12.0000000
 NucSpn=           0           0           0           0           0           0           0           0           0           0
 AtZEff=  -0.0000000  -0.0000000  -0.0000000  -0.0000000  -0.0000000  -0.0000000  -0.0000000  -0.0000000  -0.0000000  -0.0000000
 NQMom=    0.0000000   0.0000000   0.0000000   0.0000000   0.0000000   0.0000000   0.0000000   0.0000000   0.0000000   0.0000000
 NMagM=    0.0000000   0.0000000   0.0000000   0.0000000   0.0000000   0.0000000   0.0000000   0.0000000   0.0000000   0.0000000
 AtZNuc=   6.0000000   6.0000000   6.0000000   6.0000000   6.0000000   6.0000000   6.0000000   6.0000000   6.0000000   6.0000000

  Atom        31          32          33          34          35          36          37          38          39          40
 IAtWgt=          12          12          12          12          12          12          12          12          12          12
 AtmWgt=  12.0000000  12.0000000  12.0000000  12.0000000  12.0000000  12.0000000  12.0000000  12.0000000  12.0000000  12.0000000
 NucSpn=           0           0           0           0           0           0           0           0           0           0
 AtZEff=  -0.0000000  -0.0000000  -0.0000000  -0.0000000  -0.0000000  -0.0000000  -0.0000000  -0.0000000  -0.0000000  -0.0000000
 NQMom=    0.0000000   0.0000000   0.0000000   0.0000000   0.0000000   0.0000000   0.0000000   0.0000000   0.0000000   0.0000000
 NMagM=    0.0000000   0.0000000   0.0000000   0.0000000   0.0000000   0.0000000   0.0000000   0.0000000   0.0000000   0.0000000
 AtZNuc=   6.0000000   6.0000000   6.0000000   6.0000000   6.0000000   6.0000000   6.0000000   6.0000000   6.0000000   6.0000000

  Atom        41          42          43          44          45          46          47          48          49          50
 IAtWgt=          12          12          12          12          12          12          12          12          12          12
 AtmWgt=  12.0000000  12.0000000  12.0000000  12.0000000  12.0000000  12.0000000  12.0000000  12.0000000  12.0000000  12.0000000
 NucSpn=           0           0           0           0           0           0           0           0           0           0
 AtZEff=  -0.0000000  -0.0000000  -0.0000000  -0.0000000  -0.0000000  -0.0000000  -0.0000000  -0.0000000  -0.0000000  -0.0000000
 NQMom=    0.0000000   0.0000000   0.0000000   0.0000000   0.0000000   0.0000000   0.0000000   0.0000000   0.0000000   0.0000000
 NMagM=    0.0000000   0.0000000   0.0000000   0.0000000   0.0000000   0.0000000   0.0000000   0.0000000   0.0000000   0.0000000
 AtZNuc=   6.0000000   6.0000000   6.0000000   6.0000000   6.0000000   6.0000000   6.0000000   6.0000000   6.0000000   6.0000000

  Atom        51          52          53          54          55          56          57          58          59          60
 IAtWgt=          12          12          12          12          12          12          12          12          12          12
 AtmWgt=  12.0000000  12.0000000  12.0000000  12.0000000  12.0000000  12.0000000  12.0000000  12.0000000  12.0000000  12.0000000
 NucSpn=           0           0           0           0           0           0           0           0           0           0
 AtZEff=  -0.0000000  -0.0000000  -0.0000000  -0.0000000  -0.0000000  -0.0000000  -0.0000000  -0.0000000  -0.0000000  -0.0000000
 NQMom=    0.0000000   0.0000000   0.0000000   0.0000000   0.0000000   0.0000000   0.0000000   0.0000000   0.0000000   0.0000000
 NMagM=    0.0000000   0.0000000   0.0000000   0.0000000   0.0000000   0.0000000   0.0000000   0.0000000   0.0000000   0.0000000
 AtZNuc=   6.0000000   6.0000000   6.0000000   6.0000000   6.0000000   6.0000000   6.0000000   6.0000000   6.0000000   6.0000000

  Atom        61          62          63          64          65          66          67          68          69          70
 IAtWgt=          12          12          12          12          12          12          12          12          12          12
 AtmWgt=  12.0000000  12.0000000  12.0000000  12.0000000  12.0000000  12.0000000  12.0000000  12.0000000  12.0000000  12.0000000
 NucSpn=           0           0           0           0           0           0           0           0           0           0
 AtZEff=  -0.0000000  -0.0000000  -0.0000000  -0.0000000  -0.0000000  -0.0000000  -0.0000000  -0.0000000  -0.0000000  -0.0000000
 NQMom=    0.0000000   0.0000000   0.0000000   0.0000000   0.0000000   0.0000000   0.0000000   0.0000000   0.0000000   0.0000000
 NMagM=    0.0000000   0.0000000   0.0000000   0.0000000   0.0000000   0.0000000   0.0000000   0.0000000   0.0000000   0.0000000
 AtZNuc=   6.0000000   6.0000000   6.0000000   6.0000000   6.0000000   6.0000000   6.0000000   6.0000000   6.0000000   6.0000000

  Atom        71          72          73          74          75          76          77          78          79          80
 IAtWgt=          12          12          12          12          12          12          12          12          12          12
 AtmWgt=  12.0000000  12.0000000  12.0000000  12.0000000  12.0000000  12.0000000  12.0000000  12.0000000  12.0000000  12.0000000
 NucSpn=           0           0           0           0           0           0           0           0           0           0
 AtZEff=  -0.0000000  -0.0000000  -0.0000000  -0.0000000  -0.0000000  -0.0000000  -0.0000000  -0.0000000  -0.0000000  -0.0000000
 NQMom=    0.0000000   0.0000000   0.0000000   0.0000000   0.0000000   0.0000000   0.0000000   0.0000000   0.0000000   0.0000000
 NMagM=    0.0000000   0.0000000   0.0000000   0.0000000   0.0000000   0.0000000   0.0000000   0.0000000   0.0000000   0.0000000
 AtZNuc=   6.0000000   6.0000000   6.0000000   6.0000000   6.0000000   6.0000000   6.0000000   6.0000000   6.0000000   6.0000000

  Atom        81          82          83          84          85          86
 IAtWgt=          12          12          12          12          35          35
 AtmWgt=  12.0000000  12.0000000  12.0000000  12.0000000  34.9688527  34.9688527
 NucSpn=           0           0           0           0           3           3
 AtZEff=  -0.0000000  -0.0000000  -0.0000000  -0.0000000  -0.0000000  -0.0000000
 NQMom=    0.0000000   0.0000000   0.0000000   0.0000000  -8.1650000  -8.1650000
 NMagM=    0.0000000   0.0000000   0.0000000   0.0000000   0.8218740   0.8218740
 AtZNuc=   6.0000000   6.0000000   6.0000000   6.0000000  17.0000000  17.0000000
 Leave Link  101 at Thu Jun 30 08:37:59 2022, MaxMem=  1342177280 cpu:               6.5 elap:               0.3
 (Enter /home/mkliu/g16/l103.exe)

 GradGradGradGradGradGradGradGradGradGradGradGradGradGradGradGradGradGrad
 Berny optimization.
 Initialization pass.
                           ----------------------------
                           !    Initial Parameters    !
                           ! (Angstroms and Degrees)  !
 --------------------------                            --------------------------
 ! Name  Definition              Value          Derivative Info.                !
 --------------------------------------------------------------------------------
 ! R1    R(1,5)                  1.4085         estimate D2E/DX2                !
 ! R2    R(1,17)                 1.4239         estimate D2E/DX2                !
 ! R3    R(1,23)                 1.4412         estimate D2E/DX2                !
 ! R4    R(2,6)                  1.496          estimate D2E/DX2                !
 ! R5    R(2,43)                 1.5204         estimate D2E/DX2                !
 ! R6    R(2,44)                 1.5122         estimate D2E/DX2                !
 ! R7    R(2,85)                 1.8158         estimate D2E/DX2                !
 ! R8    R(3,7)                  1.4195         estimate D2E/DX2                !
 ! R9    R(3,18)                 1.4086         estimate D2E/DX2                !
 ! R10   R(3,26)                 1.4439         estimate D2E/DX2                !
 ! R11   R(4,8)                  1.4292         estimate D2E/DX2                !
 ! R12   R(4,45)                 1.4148         estimate D2E/DX2                !
 ! R13   R(4,46)                 1.422          estimate D2E/DX2                !
 ! R14   R(5,9)                  1.447          estimate D2E/DX2                !
 ! R15   R(5,29)                 1.4445         estimate D2E/DX2                !
 ! R16   R(6,10)                 1.3603         estimate D2E/DX2                !
 ! R17   R(6,15)                 1.4282         estimate D2E/DX2                !
 ! R18   R(7,12)                 1.4135         estimate D2E/DX2                !
 ! R19   R(7,30)                 1.4388         estimate D2E/DX2                !
 ! R20   R(8,11)                 1.3741         estimate D2E/DX2                !
 ! R21   R(8,16)                 1.4364         estimate D2E/DX2                !
 ! R22   R(9,13)                 1.4125         estimate D2E/DX2                !
 ! R23   R(9,35)                 1.4407         estimate D2E/DX2                !
 ! R24   R(10,49)                1.5024         estimate D2E/DX2                !
 ! R25   R(10,53)                1.4328         estimate D2E/DX2                !
 ! R26   R(11,50)                1.4303         estimate D2E/DX2                !
 ! R27   R(11,54)                1.4447         estimate D2E/DX2                !
 ! R28   R(12,14)                1.4059         estimate D2E/DX2                !
 ! R29   R(12,36)                1.4531         estimate D2E/DX2                !
 ! R30   R(13,15)                1.4285         estimate D2E/DX2                !
 ! R31   R(13,43)                1.4109         estimate D2E/DX2                !
 ! R32   R(14,16)                1.4181         estimate D2E/DX2                !
 ! R33   R(14,46)                1.4422         estimate D2E/DX2                !
 ! R34   R(15,17)                1.381          estimate D2E/DX2                !
 ! R35   R(16,18)                1.4132         estimate D2E/DX2                !
 ! R36   R(17,19)                1.433          estimate D2E/DX2                !
 ! R37   R(18,20)                1.4519         estimate D2E/DX2                !
 ! R38   R(19,21)                1.4273         estimate D2E/DX2                !
 ! R39   R(19,53)                1.3806         estimate D2E/DX2                !
 ! R40   R(20,22)                1.4142         estimate D2E/DX2                !
 ! R41   R(20,54)                1.4085         estimate D2E/DX2                !
 ! R42   R(21,23)                1.4405         estimate D2E/DX2                !
 ! R43   R(21,57)                1.4069         estimate D2E/DX2                !
 ! R44   R(22,24)                1.4383         estimate D2E/DX2                !
 ! R45   R(22,58)                1.4144         estimate D2E/DX2                !
 ! R46   R(23,25)                1.3689         estimate D2E/DX2                !
 ! R47   R(24,26)                1.367          estimate D2E/DX2                !
 ! R48   R(24,62)                1.435          estimate D2E/DX2                !
 ! R49   R(25,27)                1.427          estimate D2E/DX2                !
 ! R50   R(25,61)                1.4319         estimate D2E/DX2                !
 ! R51   R(26,28)                1.4398         estimate D2E/DX2                !
 ! R52   R(27,29)                1.4137         estimate D2E/DX2                !
 ! R53   R(27,65)                1.421          estimate D2E/DX2                !
 ! R54   R(28,30)                1.422          estimate D2E/DX2                !
 ! R55   R(28,66)                1.407          estimate D2E/DX2                !
 ! R56   R(29,31)                1.3986         estimate D2E/DX2                !
 ! R57   R(30,32)                1.3693         estimate D2E/DX2                !
 ! R58   R(31,33)                1.4357         estimate D2E/DX2                !
 ! R59   R(31,69)                1.4282         estimate D2E/DX2                !
 ! R60   R(32,34)                1.4396         estimate D2E/DX2                !
 ! R61   R(32,70)                1.4306         estimate D2E/DX2                !
 ! R62   R(33,35)                1.4095         estimate D2E/DX2                !
 ! R63   R(33,73)                1.4239         estimate D2E/DX2                !
 ! R64   R(34,36)                1.4066         estimate D2E/DX2                !
 ! R65   R(34,74)                1.4274         estimate D2E/DX2                !
 ! R66   R(35,37)                1.446          estimate D2E/DX2                !
 ! R67   R(36,38)                1.4493         estimate D2E/DX2                !
 ! R68   R(37,39)                1.4483         estimate D2E/DX2                !
 ! R69   R(37,77)                1.4096         estimate D2E/DX2                !
 ! R70   R(38,42)                1.452          estimate D2E/DX2                !
 ! R71   R(38,78)                1.4084         estimate D2E/DX2                !
 ! R72   R(39,43)                1.3832         estimate D2E/DX2                !
 ! R73   R(39,79)                1.4272         estimate D2E/DX2                !
 ! R74   R(40,41)                1.434          estimate D2E/DX2                !
 ! R75   R(40,44)                1.409          estimate D2E/DX2                !
 ! R76   R(40,79)                1.4124         estimate D2E/DX2                !
 ! R77   R(41,45)                1.3996         estimate D2E/DX2                !
 ! R78   R(41,80)                1.4196         estimate D2E/DX2                !
 ! R79   R(42,46)                1.4025         estimate D2E/DX2                !
 ! R80   R(42,80)                1.4134         estimate D2E/DX2                !
 ! R81   R(44,47)                1.3843         estimate D2E/DX2                !
 ! R82   R(45,48)                1.4445         estimate D2E/DX2                !
 ! R83   R(47,48)                1.4487         estimate D2E/DX2                !
 ! R84   R(47,49)                1.5195         estimate D2E/DX2                !
 ! R85   R(48,50)                1.404          estimate D2E/DX2                !
 ! R86   R(49,51)                1.5049         estimate D2E/DX2                !
 ! R87   R(49,86)                1.8196         estimate D2E/DX2                !
 ! R88   R(50,52)                1.4409         estimate D2E/DX2                !
 ! R89   R(51,52)                1.3582         estimate D2E/DX2                !
 ! R90   R(51,55)                1.4211         estimate D2E/DX2                !
 ! R91   R(52,56)                1.434          estimate D2E/DX2                !
 ! R92   R(53,55)                1.4252         estimate D2E/DX2                !
 ! R93   R(54,56)                1.4189         estimate D2E/DX2                !
 ! R94   R(55,83)                1.4135         estimate D2E/DX2                !
 ! R95   R(56,84)                1.4159         estimate D2E/DX2                !
 ! R96   R(57,59)                1.4505         estimate D2E/DX2                !
 ! R97   R(57,83)                1.4482         estimate D2E/DX2                !
 ! R98   R(58,60)                1.4446         estimate D2E/DX2                !
 ! R99   R(58,84)                1.406          estimate D2E/DX2                !
 ! R100  R(59,60)                1.4029         estimate D2E/DX2                !
 ! R101  R(59,61)                1.4146         estimate D2E/DX2                !
 ! R102  R(60,62)                1.418          estimate D2E/DX2                !
 ! R103  R(61,63)                1.4201         estimate D2E/DX2                !
 ! R104  R(62,64)                1.4162         estimate D2E/DX2                !
 ! R105  R(63,64)                1.4035         estimate D2E/DX2                !
 ! R106  R(63,65)                1.4404         estimate D2E/DX2                !
 ! R107  R(64,66)                1.448          estimate D2E/DX2                !
 ! R108  R(65,67)                1.4036         estimate D2E/DX2                !
 ! R109  R(66,68)                1.4509         estimate D2E/DX2                !
 ! R110  R(67,68)                1.4502         estimate D2E/DX2                !
 ! R111  R(67,69)                1.4161         estimate D2E/DX2                !
 ! R112  R(68,70)                1.4081         estimate D2E/DX2                !
 ! R113  R(69,71)                1.4284         estimate D2E/DX2                !
 ! R114  R(70,72)                1.4367         estimate D2E/DX2                !
 ! R115  R(71,72)                1.3773         estimate D2E/DX2                !
 ! R116  R(71,73)                1.4403         estimate D2E/DX2                !
 ! R117  R(72,74)                1.4437         estimate D2E/DX2                !
 ! R118  R(73,75)                1.3818         estimate D2E/DX2                !
 ! R119  R(74,76)                1.3797         estimate D2E/DX2                !
 ! R120  R(75,76)                1.447          estimate D2E/DX2                !
 ! R121  R(75,77)                1.4194         estimate D2E/DX2                !
 ! R122  R(76,78)                1.4247         estimate D2E/DX2                !
 ! R123  R(77,81)                1.4438         estimate D2E/DX2                !
 ! R124  R(78,81)                1.4436         estimate D2E/DX2                !
 ! R125  R(79,82)                1.4294         estimate D2E/DX2                !
 ! R126  R(80,82)                1.432          estimate D2E/DX2                !
 ! R127  R(81,82)                1.3667         estimate D2E/DX2                !
 ! R128  R(83,84)                1.4419         estimate D2E/DX2                !
 ! A1    A(5,1,17)             122.1268         estimate D2E/DX2                !
 ! A2    A(5,1,23)             121.2719         estimate D2E/DX2                !
 ! A3    A(17,1,23)            106.1818         estimate D2E/DX2                !
 ! A4    A(6,2,43)             101.6967         estimate D2E/DX2                !
 ! A5    A(6,2,44)             111.1798         estimate D2E/DX2                !
 ! A6    A(6,2,85)             112.6211         estimate D2E/DX2                !
 ! A7    A(43,2,44)            111.581          estimate D2E/DX2                !
 ! A8    A(43,2,85)            111.0081         estimate D2E/DX2                !
 ! A9    A(44,2,85)            108.6761         estimate D2E/DX2                !
 ! A10   A(7,3,18)             122.1039         estimate D2E/DX2                !
 ! A11   A(7,3,26)             107.2618         estimate D2E/DX2                !
 ! A12   A(18,3,26)            120.77           estimate D2E/DX2                !
 ! A13   A(8,4,45)             120.3702         estimate D2E/DX2                !
 ! A14   A(8,4,46)             107.1199         estimate D2E/DX2                !
 ! A15   A(45,4,46)            121.8399         estimate D2E/DX2                !
 ! A16   A(1,5,9)              118.5202         estimate D2E/DX2                !
 ! A17   A(1,5,29)             116.781          estimate D2E/DX2                !
 ! A18   A(9,5,29)             119.2389         estimate D2E/DX2                !
 ! A19   A(2,6,10)             122.3706         estimate D2E/DX2                !
 ! A20   A(2,6,15)             109.4674         estimate D2E/DX2                !
 ! A21   A(10,6,15)            119.8162         estimate D2E/DX2                !
 ! A22   A(3,7,12)             122.5107         estimate D2E/DX2                !
 ! A23   A(3,7,30)             107.3159         estimate D2E/DX2                !
 ! A24   A(12,7,30)            119.9956         estimate D2E/DX2                !
 ! A25   A(4,8,11)             119.0929         estimate D2E/DX2                !
 ! A26   A(4,8,16)             109.1937         estimate D2E/DX2                !
 ! A27   A(11,8,16)            120.8184         estimate D2E/DX2                !
 ! A28   A(5,9,13)             118.0147         estimate D2E/DX2                !
 ! A29   A(5,9,35)             121.0287         estimate D2E/DX2                !
 ! A30   A(13,9,35)            116.7363         estimate D2E/DX2                !
 ! A31   A(6,10,49)            123.2566         estimate D2E/DX2                !
 ! A32   A(6,10,53)            119.1769         estimate D2E/DX2                !
 ! A33   A(49,10,53)           109.7292         estimate D2E/DX2                !
 ! A34   A(8,11,50)            120.7265         estimate D2E/DX2                !
 ! A35   A(8,11,54)            119.3479         estimate D2E/DX2                !
 ! A36   A(50,11,54)           109.4861         estimate D2E/DX2                !
 ! A37   A(7,12,14)            114.6754         estimate D2E/DX2                !
 ! A38   A(7,12,36)            120.3973         estimate D2E/DX2                !
 ! A39   A(14,12,36)           119.3919         estimate D2E/DX2                !
 ! A40   A(9,13,15)            122.4496         estimate D2E/DX2                !
 ! A41   A(9,13,43)            122.5361         estimate D2E/DX2                !
 ! A42   A(15,13,43)           107.9135         estimate D2E/DX2                !
 ! A43   A(12,14,16)           122.4615         estimate D2E/DX2                !
 ! A44   A(12,14,46)           120.7209         estimate D2E/DX2                !
 ! A45   A(16,14,46)           108.5044         estimate D2E/DX2                !
 ! A46   A(6,15,13)            109.3844         estimate D2E/DX2                !
 ! A47   A(6,15,17)            121.3636         estimate D2E/DX2                !
 ! A48   A(13,15,17)           119.0646         estimate D2E/DX2                !
 ! A49   A(8,16,14)            106.9048         estimate D2E/DX2                !
 ! A50   A(8,16,18)            120.8218         estimate D2E/DX2                !
 ! A51   A(14,16,18)           122.2835         estimate D2E/DX2                !
 ! A52   A(1,17,15)            119.8091         estimate D2E/DX2                !
 ! A53   A(1,17,19)            108.8524         estimate D2E/DX2                !
 ! A54   A(15,17,19)           118.8543         estimate D2E/DX2                !
 ! A55   A(3,18,16)            114.8404         estimate D2E/DX2                !
 ! A56   A(3,18,20)            119.2603         estimate D2E/DX2                !
 ! A57   A(16,18,20)           118.6207         estimate D2E/DX2                !
 ! A58   A(17,19,21)           108.6915         estimate D2E/DX2                !
 ! A59   A(17,19,53)           119.0069         estimate D2E/DX2                !
 ! A60   A(21,19,53)           119.9444         estimate D2E/DX2                !
 ! A61   A(18,20,22)           118.6972         estimate D2E/DX2                !
 ! A62   A(18,20,54)           119.2909         estimate D2E/DX2                !
 ! A63   A(22,20,54)           114.8815         estimate D2E/DX2                !
 ! A64   A(19,21,23)           106.098          estimate D2E/DX2                !
 ! A65   A(19,21,57)           122.132          estimate D2E/DX2                !
 ! A66   A(23,21,57)           121.3261         estimate D2E/DX2                !
 ! A67   A(20,22,24)           120.7063         estimate D2E/DX2                !
 ! A68   A(20,22,58)           122.3948         estimate D2E/DX2                !
 ! A69   A(24,22,58)           106.7519         estimate D2E/DX2                !
 ! A70   A(1,23,21)            109.3158         estimate D2E/DX2                !
 ! A71   A(1,23,25)            120.1632         estimate D2E/DX2                !
 ! A72   A(21,23,25)           120.2024         estimate D2E/DX2                !
 ! A73   A(22,24,26)           120.6317         estimate D2E/DX2                !
 ! A74   A(22,24,62)           109.4128         estimate D2E/DX2                !
 ! A75   A(26,24,62)           119.3251         estimate D2E/DX2                !
 ! A76   A(23,25,27)           119.8249         estimate D2E/DX2                !
 ! A77   A(23,25,61)           119.9217         estimate D2E/DX2                !
 ! A78   A(27,25,61)           109.4067         estimate D2E/DX2                !
 ! A79   A(3,26,24)            119.8992         estimate D2E/DX2                !
 ! A80   A(3,26,28)            109.3728         estimate D2E/DX2                !
 ! A81   A(24,26,28)           120.1262         estimate D2E/DX2                !
 ! A82   A(25,27,29)           120.2938         estimate D2E/DX2                !
 ! A83   A(25,27,65)           106.9585         estimate D2E/DX2                !
 ! A84   A(29,27,65)           121.6713         estimate D2E/DX2                !
 ! A85   A(26,28,30)           105.4354         estimate D2E/DX2                !
 ! A86   A(26,28,66)           122.4138         estimate D2E/DX2                !
 ! A87   A(30,28,66)           121.6225         estimate D2E/DX2                !
 ! A88   A(5,29,27)            120.4589         estimate D2E/DX2                !
 ! A89   A(5,29,31)            118.6804         estimate D2E/DX2                !
 ! A90   A(27,29,31)           115.1969         estimate D2E/DX2                !
 ! A91   A(7,30,28)            109.9983         estimate D2E/DX2                !
 ! A92   A(7,30,32)            119.7711         estimate D2E/DX2                !
 ! A93   A(28,30,32)           120.1202         estimate D2E/DX2                !
 ! A94   A(29,31,33)           121.2503         estimate D2E/DX2                !
 ! A95   A(29,31,69)           122.0771         estimate D2E/DX2                !
 ! A96   A(33,31,69)           108.9018         estimate D2E/DX2                !
 ! A97   A(30,32,34)           120.4165         estimate D2E/DX2                !
 ! A98   A(30,32,70)           119.3364         estimate D2E/DX2                !
 ! A99   A(34,32,70)           110.0224         estimate D2E/DX2                !
 ! A100  A(31,33,35)           121.1508         estimate D2E/DX2                !
 ! A101  A(31,33,73)           107.1887         estimate D2E/DX2                !
 ! A102  A(35,33,73)           122.3812         estimate D2E/DX2                !
 ! A103  A(32,34,36)           121.2875         estimate D2E/DX2                !
 ! A104  A(32,34,74)           105.9656         estimate D2E/DX2                !
 ! A105  A(36,34,74)           122.5159         estimate D2E/DX2                !
 ! A106  A(9,35,33)            117.2825         estimate D2E/DX2                !
 ! A107  A(9,35,37)            120.4455         estimate D2E/DX2                !
 ! A108  A(33,35,37)           117.992          estimate D2E/DX2                !
 ! A109  A(12,36,34)           117.1579         estimate D2E/DX2                !
 ! A110  A(12,36,38)           119.7237         estimate D2E/DX2                !
 ! A111  A(34,36,38)           118.0633         estimate D2E/DX2                !
 ! A112  A(35,37,39)           119.3436         estimate D2E/DX2                !
 ! A113  A(35,37,77)           118.4682         estimate D2E/DX2                !
 ! A114  A(39,37,77)           117.1533         estimate D2E/DX2                !
 ! A115  A(36,38,42)           119.4451         estimate D2E/DX2                !
 ! A116  A(36,38,78)           118.2261         estimate D2E/DX2                !
 ! A117  A(42,38,78)           117.1006         estimate D2E/DX2                !
 ! A118  A(37,39,43)           118.8462         estimate D2E/DX2                !
 ! A119  A(37,39,79)           119.9377         estimate D2E/DX2                !
 ! A120  A(43,39,79)           115.8409         estimate D2E/DX2                !
 ! A121  A(41,40,44)           120.5887         estimate D2E/DX2                !
 ! A122  A(41,40,79)           108.5134         estimate D2E/DX2                !
 ! A123  A(44,40,79)           123.3969         estimate D2E/DX2                !
 ! A124  A(40,41,45)           120.5882         estimate D2E/DX2                !
 ! A125  A(40,41,80)           108.8392         estimate D2E/DX2                !
 ! A126  A(45,41,80)           122.6051         estimate D2E/DX2                !
 ! A127  A(38,42,46)           119.5343         estimate D2E/DX2                !
 ! A128  A(38,42,80)           119.9296         estimate D2E/DX2                !
 ! A129  A(46,42,80)           114.8066         estimate D2E/DX2                !
 ! A130  A(2,43,13)            110.6621         estimate D2E/DX2                !
 ! A131  A(2,43,39)            123.3073         estimate D2E/DX2                !
 ! A132  A(13,43,39)           121.0948         estimate D2E/DX2                !
 ! A133  A(2,44,40)            114.1573         estimate D2E/DX2                !
 ! A134  A(2,44,47)            124.3119         estimate D2E/DX2                !
 ! A135  A(40,44,47)           120.0048         estimate D2E/DX2                !
 ! A136  A(4,45,41)            114.7671         estimate D2E/DX2                !
 ! A137  A(4,45,48)            120.7255         estimate D2E/DX2                !
 ! A138  A(41,45,48)           118.7431         estimate D2E/DX2                !
 ! A139  A(4,46,14)            108.1664         estimate D2E/DX2                !
 ! A140  A(4,46,42)            122.3653         estimate D2E/DX2                !
 ! A141  A(14,46,42)           121.0348         estimate D2E/DX2                !
 ! A142  A(44,47,48)           120.4908         estimate D2E/DX2                !
 ! A143  A(44,47,49)           119.3823         estimate D2E/DX2                !
 ! A144  A(48,47,49)           118.9256         estimate D2E/DX2                !
 ! A145  A(45,48,47)           119.5033         estimate D2E/DX2                !
 ! A146  A(45,48,50)           116.6606         estimate D2E/DX2                !
 ! A147  A(47,48,50)           119.1719         estimate D2E/DX2                !
 ! A148  A(10,49,47)           111.7403         estimate D2E/DX2                !
 ! A149  A(10,49,51)           100.9948         estimate D2E/DX2                !
 ! A150  A(10,49,86)           112.3981         estimate D2E/DX2                !
 ! A151  A(47,49,51)           111.4908         estimate D2E/DX2                !
 ! A152  A(47,49,86)           108.1952         estimate D2E/DX2                !
 ! A153  A(51,49,86)           111.9752         estimate D2E/DX2                !
 ! A154  A(11,50,48)           121.6776         estimate D2E/DX2                !
 ! A155  A(11,50,52)           105.6191         estimate D2E/DX2                !
 ! A156  A(48,50,52)           120.159          estimate D2E/DX2                !
 ! A157  A(49,51,52)           120.8509         estimate D2E/DX2                !
 ! A158  A(49,51,55)           112.29           estimate D2E/DX2                !
 ! A159  A(52,51,55)           119.7195         estimate D2E/DX2                !
 ! A160  A(50,52,51)           121.2628         estimate D2E/DX2                !
 ! A161  A(50,52,56)           109.2498         estimate D2E/DX2                !
 ! A162  A(51,52,56)           120.0478         estimate D2E/DX2                !
 ! A163  A(10,53,19)           121.4976         estimate D2E/DX2                !
 ! A164  A(10,53,55)           109.716          estimate D2E/DX2                !
 ! A165  A(19,53,55)           118.9548         estimate D2E/DX2                !
 ! A166  A(11,54,20)           121.068          estimate D2E/DX2                !
 ! A167  A(11,54,56)           107.2997         estimate D2E/DX2                !
 ! A168  A(20,54,56)           122.055          estimate D2E/DX2                !
 ! A169  A(51,55,53)           106.6425         estimate D2E/DX2                !
 ! A170  A(51,55,83)           122.7232         estimate D2E/DX2                !
 ! A171  A(53,55,83)           122.3075         estimate D2E/DX2                !
 ! A172  A(52,56,54)           107.7733         estimate D2E/DX2                !
 ! A173  A(52,56,84)           120.4756         estimate D2E/DX2                !
 ! A174  A(54,56,84)           122.4417         estimate D2E/DX2                !
 ! A175  A(21,57,59)           117.2391         estimate D2E/DX2                !
 ! A176  A(21,57,83)           118.1001         estimate D2E/DX2                !
 ! A177  A(59,57,83)           119.4538         estimate D2E/DX2                !
 ! A178  A(22,58,60)           108.5326         estimate D2E/DX2                !
 ! A179  A(22,58,84)           122.3967         estimate D2E/DX2                !
 ! A180  A(60,58,84)           120.5015         estimate D2E/DX2                !
 ! A181  A(57,59,60)           119.4866         estimate D2E/DX2                !
 ! A182  A(57,59,61)           120.1676         estimate D2E/DX2                !
 ! A183  A(60,59,61)           114.5714         estimate D2E/DX2                !
 ! A184  A(58,60,59)           120.9021         estimate D2E/DX2                !
 ! A185  A(58,60,62)           108.5462         estimate D2E/DX2                !
 ! A186  A(59,60,62)           122.4276         estimate D2E/DX2                !
 ! A187  A(25,61,59)           120.3245         estimate D2E/DX2                !
 ! A188  A(25,61,63)           106.7564         estimate D2E/DX2                !
 ! A189  A(59,61,63)           122.3494         estimate D2E/DX2                !
 ! A190  A(24,62,60)           106.6615         estimate D2E/DX2                !
 ! A191  A(24,62,64)           120.9291         estimate D2E/DX2                !
 ! A192  A(60,62,64)           122.1723         estimate D2E/DX2                !
 ! A193  A(61,63,64)           122.1723         estimate D2E/DX2                !
 ! A194  A(61,63,65)           108.4142         estimate D2E/DX2                !
 ! A195  A(64,63,65)           120.7943         estimate D2E/DX2                !
 ! A196  A(62,64,63)           114.714          estimate D2E/DX2                !
 ! A197  A(62,64,66)           120.2252         estimate D2E/DX2                !
 ! A198  A(63,64,66)           119.0753         estimate D2E/DX2                !
 ! A199  A(27,65,63)           108.2235         estimate D2E/DX2                !
 ! A200  A(27,65,67)           122.1332         estimate D2E/DX2                !
 ! A201  A(63,65,67)           121.4598         estimate D2E/DX2                !
 ! A202  A(28,66,64)           116.596          estimate D2E/DX2                !
 ! A203  A(28,66,68)           118.0604         estimate D2E/DX2                !
 ! A204  A(64,66,68)           120.1062         estimate D2E/DX2                !
 ! A205  A(65,67,68)           118.967          estimate D2E/DX2                !
 ! A206  A(65,67,69)           114.9851         estimate D2E/DX2                !
 ! A207  A(68,67,69)           120.1868         estimate D2E/DX2                !
 ! A208  A(66,68,67)           119.5051         estimate D2E/DX2                !
 ! A209  A(66,68,70)           118.461          estimate D2E/DX2                !
 ! A210  A(67,68,70)           116.6982         estimate D2E/DX2                !
 ! A211  A(31,69,67)           121.3702         estimate D2E/DX2                !
 ! A212  A(31,69,71)           107.2182         estimate D2E/DX2                !
 ! A213  A(67,69,71)           121.0987         estimate D2E/DX2                !
 ! A214  A(32,70,68)           121.3899         estimate D2E/DX2                !
 ! A215  A(32,70,72)           106.1506         estimate D2E/DX2                !
 ! A216  A(68,70,72)           122.4283         estimate D2E/DX2                !
 ! A217  A(69,71,72)           119.2575         estimate D2E/DX2                !
 ! A218  A(69,71,73)           108.1917         estimate D2E/DX2                !
 ! A219  A(72,71,73)           120.3616         estimate D2E/DX2                !
 ! A220  A(70,72,71)           120.1528         estimate D2E/DX2                !
 ! A221  A(70,72,74)           108.2009         estimate D2E/DX2                !
 ! A222  A(71,72,74)           119.6825         estimate D2E/DX2                !
 ! A223  A(33,73,71)           108.1556         estimate D2E/DX2                !
 ! A224  A(33,73,75)           119.3862         estimate D2E/DX2                !
 ! A225  A(71,73,75)           120.0716         estimate D2E/DX2                !
 ! A226  A(34,74,72)           108.7534         estimate D2E/DX2                !
 ! A227  A(34,74,76)           119.2059         estimate D2E/DX2                !
 ! A228  A(72,74,76)           120.2341         estimate D2E/DX2                !
 ! A229  A(73,75,76)           119.6964         estimate D2E/DX2                !
 ! A230  A(73,75,77)           119.4878         estimate D2E/DX2                !
 ! A231  A(76,75,77)           108.7499         estimate D2E/DX2                !
 ! A232  A(74,76,75)           119.9412         estimate D2E/DX2                !
 ! A233  A(74,76,78)           119.4699         estimate D2E/DX2                !
 ! A234  A(75,76,78)           108.6124         estimate D2E/DX2                !
 ! A235  A(37,77,75)           122.2332         estimate D2E/DX2                !
 ! A236  A(37,77,81)           121.0981         estimate D2E/DX2                !
 ! A237  A(75,77,81)           106.2303         estimate D2E/DX2                !
 ! A238  A(38,78,76)           122.3432         estimate D2E/DX2                !
 ! A239  A(38,78,81)           121.4172         estimate D2E/DX2                !
 ! A240  A(76,78,81)           106.0412         estimate D2E/DX2                !
 ! A241  A(39,79,40)           120.7026         estimate D2E/DX2                !
 ! A242  A(39,79,82)           120.1202         estimate D2E/DX2                !
 ! A243  A(40,79,82)           106.6887         estimate D2E/DX2                !
 ! A244  A(41,80,42)           121.7903         estimate D2E/DX2                !
 ! A245  A(41,80,82)           106.0787         estimate D2E/DX2                !
 ! A246  A(42,80,82)           120.8856         estimate D2E/DX2                !
 ! A247  A(77,81,78)           109.5052         estimate D2E/DX2                !
 ! A248  A(77,81,82)           120.2742         estimate D2E/DX2                !
 ! A249  A(78,81,82)           120.2842         estimate D2E/DX2                !
 ! A250  A(79,82,80)           109.7844         estimate D2E/DX2                !
 ! A251  A(79,82,81)           120.0777         estimate D2E/DX2                !
 ! A252  A(80,82,81)           119.5517         estimate D2E/DX2                !
 ! A253  A(55,83,57)           118.3917         estimate D2E/DX2                !
 ! A254  A(55,83,84)           116.6654         estimate D2E/DX2                !
 ! A255  A(57,83,84)           119.8311         estimate D2E/DX2                !
 ! A256  A(56,84,58)           114.7808         estimate D2E/DX2                !
 ! A257  A(56,84,83)           119.7845         estimate D2E/DX2                !
 ! A258  A(58,84,83)           119.6842         estimate D2E/DX2                !
 ! D1    D(17,1,5,9)             0.5871         estimate D2E/DX2                !
 ! D2    D(17,1,5,29)         -153.1766         estimate D2E/DX2                !
 ! D3    D(23,1,5,9)           140.618          estimate D2E/DX2                !
 ! D4    D(23,1,5,29)          -13.1457         estimate D2E/DX2                !
 ! D5    D(5,1,17,15)           -1.4132         estimate D2E/DX2                !
 ! D6    D(5,1,17,19)          140.1526         estimate D2E/DX2                !
 ! D7    D(23,1,17,15)        -146.5447         estimate D2E/DX2                !
 ! D8    D(23,1,17,19)          -4.9788         estimate D2E/DX2                !
 ! D9    D(5,1,23,21)         -136.5756         estimate D2E/DX2                !
 ! D10   D(5,1,23,25)            8.5333         estimate D2E/DX2                !
 ! D11   D(17,1,23,21)           8.9213         estimate D2E/DX2                !
 ! D12   D(17,1,23,25)         154.0302         estimate D2E/DX2                !
 ! D13   D(43,2,6,10)         -138.8308         estimate D2E/DX2                !
 ! D14   D(43,2,6,15)            9.2146         estimate D2E/DX2                !
 ! D15   D(44,2,6,10)          -19.9463         estimate D2E/DX2                !
 ! D16   D(44,2,6,15)          128.099          estimate D2E/DX2                !
 ! D17   D(85,2,6,10)          102.2954         estimate D2E/DX2                !
 ! D18   D(85,2,6,15)         -109.6593         estimate D2E/DX2                !
 ! D19   D(6,2,43,13)           -6.429          estimate D2E/DX2                !
 ! D20   D(6,2,43,39)          148.8332         estimate D2E/DX2                !
 ! D21   D(44,2,43,13)        -125.0271         estimate D2E/DX2                !
 ! D22   D(44,2,43,39)          30.2351         estimate D2E/DX2                !
 ! D23   D(85,2,43,13)         113.5885         estimate D2E/DX2                !
 ! D24   D(85,2,43,39)         -91.1493         estimate D2E/DX2                !
 ! D25   D(6,2,44,40)         -148.1015         estimate D2E/DX2                !
 ! D26   D(6,2,44,47)           17.7426         estimate D2E/DX2                !
 ! D27   D(43,2,44,40)         -35.3292         estimate D2E/DX2                !
 ! D28   D(43,2,44,47)         130.5149         estimate D2E/DX2                !
 ! D29   D(85,2,44,40)          87.3991         estimate D2E/DX2                !
 ! D30   D(85,2,44,47)        -106.7569         estimate D2E/DX2                !
 ! D31   D(18,3,7,12)            3.3357         estimate D2E/DX2                !
 ! D32   D(18,3,7,30)          148.3887         estimate D2E/DX2                !
 ! D33   D(26,3,7,12)         -142.4951         estimate D2E/DX2                !
 ! D34   D(26,3,7,30)            2.5578         estimate D2E/DX2                !
 ! D35   D(7,3,18,16)            6.4045         estimate D2E/DX2                !
 ! D36   D(7,3,18,20)         -143.4097         estimate D2E/DX2                !
 ! D37   D(26,3,18,16)         147.78           estimate D2E/DX2                !
 ! D38   D(26,3,18,20)          -2.0342         estimate D2E/DX2                !
 ! D39   D(7,3,26,24)          147.1248         estimate D2E/DX2                !
 ! D40   D(7,3,26,28)            2.4484         estimate D2E/DX2                !
 ! D41   D(18,3,26,24)           0.7462         estimate D2E/DX2                !
 ! D42   D(18,3,26,28)        -143.9302         estimate D2E/DX2                !
 ! D43   D(45,4,8,11)            2.8846         estimate D2E/DX2                !
 ! D44   D(45,4,8,16)         -141.6532         estimate D2E/DX2                !
 ! D45   D(46,4,8,11)          147.9997         estimate D2E/DX2                !
 ! D46   D(46,4,8,16)            3.4619         estimate D2E/DX2                !
 ! D47   D(8,4,45,41)          152.0036         estimate D2E/DX2                !
 ! D48   D(8,4,45,48)           -0.907          estimate D2E/DX2                !
 ! D49   D(46,4,45,41)          12.0498         estimate D2E/DX2                !
 ! D50   D(46,4,45,48)        -140.8608         estimate D2E/DX2                !
 ! D51   D(8,4,46,14)           -2.6309         estimate D2E/DX2                !
 ! D52   D(8,4,46,42)         -150.8817         estimate D2E/DX2                !
 ! D53   D(45,4,46,14)         141.8587         estimate D2E/DX2                !
 ! D54   D(45,4,46,42)          -6.3922         estimate D2E/DX2                !
 ! D55   D(1,5,9,13)             0.2239         estimate D2E/DX2                !
 ! D56   D(1,5,9,35)          -155.9441         estimate D2E/DX2                !
 ! D57   D(29,5,9,13)          153.3339         estimate D2E/DX2                !
 ! D58   D(29,5,9,35)           -2.8341         estimate D2E/DX2                !
 ! D59   D(1,5,29,27)            9.0356         estimate D2E/DX2                !
 ! D60   D(1,5,29,31)          161.2458         estimate D2E/DX2                !
 ! D61   D(9,5,29,27)         -144.532          estimate D2E/DX2                !
 ! D62   D(9,5,29,31)            7.6782         estimate D2E/DX2                !
 ! D63   D(2,6,10,49)           -0.5491         estimate D2E/DX2                !
 ! D64   D(2,6,10,53)          145.3976         estimate D2E/DX2                !
 ! D65   D(15,6,10,49)        -145.4408         estimate D2E/DX2                !
 ! D66   D(15,6,10,53)           0.5059         estimate D2E/DX2                !
 ! D67   D(2,6,15,13)           -9.101          estimate D2E/DX2                !
 ! D68   D(2,6,15,17)         -153.9439         estimate D2E/DX2                !
 ! D69   D(10,6,15,13)         139.8879         estimate D2E/DX2                !
 ! D70   D(10,6,15,17)          -4.9551         estimate D2E/DX2                !
 ! D71   D(3,7,12,14)           -9.3241         estimate D2E/DX2                !
 ! D72   D(3,7,12,36)          144.2731         estimate D2E/DX2                !
 ! D73   D(30,7,12,14)        -150.1685         estimate D2E/DX2                !
 ! D74   D(30,7,12,36)           3.4287         estimate D2E/DX2                !
 ! D75   D(3,7,30,28)           -6.783          estimate D2E/DX2                !
 ! D76   D(3,7,30,32)         -152.2095         estimate D2E/DX2                !
 ! D77   D(12,7,30,28)         139.3161         estimate D2E/DX2                !
 ! D78   D(12,7,30,32)          -6.1103         estimate D2E/DX2                !
 ! D79   D(4,8,11,50)            1.7517         estimate D2E/DX2                !
 ! D80   D(4,8,11,54)         -139.4536         estimate D2E/DX2                !
 ! D81   D(16,8,11,50)         142.1085         estimate D2E/DX2                !
 ! D82   D(16,8,11,54)           0.9032         estimate D2E/DX2                !
 ! D83   D(4,8,16,14)           -2.9386         estimate D2E/DX2                !
 ! D84   D(4,8,16,18)          143.3007         estimate D2E/DX2                !
 ! D85   D(11,8,16,14)        -146.7586         estimate D2E/DX2                !
 ! D86   D(11,8,16,18)          -0.5193         estimate D2E/DX2                !
 ! D87   D(5,9,13,15)           -0.2386         estimate D2E/DX2                !
 ! D88   D(5,9,13,43)         -147.1661         estimate D2E/DX2                !
 ! D89   D(35,9,13,15)         156.9507         estimate D2E/DX2                !
 ! D90   D(35,9,13,43)          10.0232         estimate D2E/DX2                !
 ! D91   D(5,9,35,33)           -7.4595         estimate D2E/DX2                !
 ! D92   D(5,9,35,37)          148.846          estimate D2E/DX2                !
 ! D93   D(13,9,35,33)        -163.918          estimate D2E/DX2                !
 ! D94   D(13,9,35,37)          -7.6125         estimate D2E/DX2                !
 ! D95   D(6,10,49,47)          23.3447         estimate D2E/DX2                !
 ! D96   D(6,10,49,51)         141.9814         estimate D2E/DX2                !
 ! D97   D(6,10,49,86)         -98.5216         estimate D2E/DX2                !
 ! D98   D(53,10,49,47)       -125.363          estimate D2E/DX2                !
 ! D99   D(53,10,49,51)         -6.7263         estimate D2E/DX2                !
 ! D100  D(53,10,49,86)        112.7707         estimate D2E/DX2                !
 ! D101  D(6,10,53,19)           3.6723         estimate D2E/DX2                !
 ! D102  D(6,10,53,55)        -141.6858         estimate D2E/DX2                !
 ! D103  D(49,10,53,19)        153.8404         estimate D2E/DX2                !
 ! D104  D(49,10,53,55)          8.4824         estimate D2E/DX2                !
 ! D105  D(8,11,50,48)          -8.709          estimate D2E/DX2                !
 ! D106  D(8,11,50,52)        -150.4761         estimate D2E/DX2                !
 ! D107  D(54,11,50,48)        135.8894         estimate D2E/DX2                !
 ! D108  D(54,11,50,52)         -5.8777         estimate D2E/DX2                !
 ! D109  D(8,11,54,20)           0.2218         estimate D2E/DX2                !
 ! D110  D(8,11,54,56)         147.0066         estimate D2E/DX2                !
 ! D111  D(50,11,54,20)       -144.9373         estimate D2E/DX2                !
 ! D112  D(50,11,54,56)          1.8475         estimate D2E/DX2                !
 ! D113  D(7,12,14,16)           5.7672         estimate D2E/DX2                !
 ! D114  D(7,12,14,46)         150.4111         estimate D2E/DX2                !
 ! D115  D(36,12,14,16)       -148.1152         estimate D2E/DX2                !
 ! D116  D(36,12,14,46)         -3.4713         estimate D2E/DX2                !
 ! D117  D(7,12,36,34)           4.9941         estimate D2E/DX2                !
 ! D118  D(7,12,36,38)        -149.3936         estimate D2E/DX2                !
 ! D119  D(14,12,36,34)        157.3635         estimate D2E/DX2                !
 ! D120  D(14,12,36,38)          2.9758         estimate D2E/DX2                !
 ! D121  D(9,13,15,6)         -146.338          estimate D2E/DX2                !
 ! D122  D(9,13,15,17)          -0.5681         estimate D2E/DX2                !
 ! D123  D(43,13,15,6)           4.7483         estimate D2E/DX2                !
 ! D124  D(43,13,15,17)        150.5181         estimate D2E/DX2                !
 ! D125  D(9,13,43,2)          152.4099         estimate D2E/DX2                !
 ! D126  D(9,13,43,39)          -3.485          estimate D2E/DX2                !
 ! D127  D(15,13,43,2)           1.3541         estimate D2E/DX2                !
 ! D128  D(15,13,43,39)       -154.5408         estimate D2E/DX2                !
 ! D129  D(12,14,16,8)         149.633          estimate D2E/DX2                !
 ! D130  D(12,14,16,18)          4.0007         estimate D2E/DX2                !
 ! D131  D(46,14,16,8)           1.2724         estimate D2E/DX2                !
 ! D132  D(46,14,16,18)       -144.3599         estimate D2E/DX2                !
 ! D133  D(12,14,46,4)        -148.1649         estimate D2E/DX2                !
 ! D134  D(12,14,46,42)          0.5895         estimate D2E/DX2                !
 ! D135  D(16,14,46,4)           0.847          estimate D2E/DX2                !
 ! D136  D(16,14,46,42)        149.6013         estimate D2E/DX2                !
 ! D137  D(6,15,17,1)          142.944          estimate D2E/DX2                !
 ! D138  D(6,15,17,19)           5.1388         estimate D2E/DX2                !
 ! D139  D(13,15,17,1)           1.3649         estimate D2E/DX2                !
 ! D140  D(13,15,17,19)       -136.4403         estimate D2E/DX2                !
 ! D141  D(8,16,18,3)         -150.9857         estimate D2E/DX2                !
 ! D142  D(8,16,18,20)          -0.9666         estimate D2E/DX2                !
 ! D143  D(14,16,18,3)          -9.9574         estimate D2E/DX2                !
 ! D144  D(14,16,18,20)        140.0617         estimate D2E/DX2                !
 ! D145  D(1,17,19,21)          -0.7501         estimate D2E/DX2                !
 ! D146  D(1,17,19,53)        -142.9466         estimate D2E/DX2                !
 ! D147  D(15,17,19,21)        141.2384         estimate D2E/DX2                !
 ! D148  D(15,17,19,53)         -0.9582         estimate D2E/DX2                !
 ! D149  D(3,18,20,22)           1.7379         estimate D2E/DX2                !
 ! D150  D(3,18,20,54)         150.726          estimate D2E/DX2                !
 ! D151  D(16,18,20,22)       -146.9432         estimate D2E/DX2                !
 ! D152  D(16,18,20,54)          2.0449         estimate D2E/DX2                !
 ! D153  D(17,19,21,23)          6.162          estimate D2E/DX2                !
 ! D154  D(17,19,21,57)       -138.9495         estimate D2E/DX2                !
 ! D155  D(53,19,21,23)        147.9444         estimate D2E/DX2                !
 ! D156  D(53,19,21,57)          2.8329         estimate D2E/DX2                !
 ! D157  D(17,19,53,10)         -3.4363         estimate D2E/DX2                !
 ! D158  D(17,19,53,55)        138.8609         estimate D2E/DX2                !
 ! D159  D(21,19,53,10)       -141.3635         estimate D2E/DX2                !
 ! D160  D(21,19,53,55)          0.9337         estimate D2E/DX2                !
 ! D161  D(18,20,22,24)         -0.1972         estimate D2E/DX2                !
 ! D162  D(18,20,22,58)        140.5029         estimate D2E/DX2                !
 ! D163  D(54,20,22,24)       -150.5064         estimate D2E/DX2                !
 ! D164  D(54,20,22,58)         -9.8062         estimate D2E/DX2                !
 ! D165  D(18,20,54,11)         -1.7019         estimate D2E/DX2                !
 ! D166  D(18,20,54,56)       -143.5982         estimate D2E/DX2                !
 ! D167  D(22,20,54,11)        148.419          estimate D2E/DX2                !
 ! D168  D(22,20,54,56)          6.5226         estimate D2E/DX2                !
 ! D169  D(19,21,23,1)          -9.3645         estimate D2E/DX2                !
 ! D170  D(19,21,23,25)       -154.4575         estimate D2E/DX2                !
 ! D171  D(57,21,23,1)         136.0923         estimate D2E/DX2                !
 ! D172  D(57,21,23,25)         -9.0007         estimate D2E/DX2                !
 ! D173  D(19,21,57,59)        150.6728         estimate D2E/DX2                !
 ! D174  D(19,21,57,83)         -3.7268         estimate D2E/DX2                !
 ! D175  D(23,21,57,59)         10.7139         estimate D2E/DX2                !
 ! D176  D(23,21,57,83)       -143.6857         estimate D2E/DX2                !
 ! D177  D(20,22,24,26)         -1.1102         estimate D2E/DX2                !
 ! D178  D(20,22,24,62)        143.1988         estimate D2E/DX2                !
 ! D179  D(58,22,24,26)       -147.1572         estimate D2E/DX2                !
 ! D180  D(58,22,24,62)         -2.8482         estimate D2E/DX2                !
 ! D181  D(20,22,58,60)       -143.9336         estimate D2E/DX2                !
 ! D182  D(20,22,58,84)          3.9222         estimate D2E/DX2                !
 ! D183  D(24,22,58,60)          1.4059         estimate D2E/DX2                !
 ! D184  D(24,22,58,84)        149.2618         estimate D2E/DX2                !
 ! D185  D(1,23,25,27)           0.7852         estimate D2E/DX2                !
 ! D186  D(1,23,25,61)        -139.7343         estimate D2E/DX2                !
 ! D187  D(21,23,25,27)        142.1318         estimate D2E/DX2                !
 ! D188  D(21,23,25,61)          1.6123         estimate D2E/DX2                !
 ! D189  D(22,24,26,3)           0.841          estimate D2E/DX2                !
 ! D190  D(22,24,26,28)        141.7434         estimate D2E/DX2                !
 ! D191  D(62,24,26,3)        -140.0261         estimate D2E/DX2                !
 ! D192  D(62,24,26,28)          0.8763         estimate D2E/DX2                !
 ! D193  D(22,24,62,60)          3.1729         estimate D2E/DX2                !
 ! D194  D(22,24,62,64)       -142.6454         estimate D2E/DX2                !
 ! D195  D(26,24,62,60)        148.0181         estimate D2E/DX2                !
 ! D196  D(26,24,62,64)          2.1998         estimate D2E/DX2                !
 ! D197  D(23,25,27,29)         -4.7756         estimate D2E/DX2                !
 ! D198  D(23,25,27,65)       -149.2514         estimate D2E/DX2                !
 ! D199  D(61,25,27,29)        139.4736         estimate D2E/DX2                !
 ! D200  D(61,25,27,65)         -5.0022         estimate D2E/DX2                !
 ! D201  D(23,25,61,59)          3.4555         estimate D2E/DX2                !
 ! D202  D(23,25,61,63)        148.8921         estimate D2E/DX2                !
 ! D203  D(27,25,61,59)       -140.7536         estimate D2E/DX2                !
 ! D204  D(27,25,61,63)          4.683          estimate D2E/DX2                !
 ! D205  D(3,26,28,30)          -6.4516         estimate D2E/DX2                !
 ! D206  D(3,26,28,66)         138.5977         estimate D2E/DX2                !
 ! D207  D(24,26,28,30)       -151.0349         estimate D2E/DX2                !
 ! D208  D(24,26,28,66)         -5.9856         estimate D2E/DX2                !
 ! D209  D(25,27,29,5)          -0.2775         estimate D2E/DX2                !
 ! D210  D(25,27,29,31)       -153.403          estimate D2E/DX2                !
 ! D211  D(65,27,29,5)         138.9516         estimate D2E/DX2                !
 ! D212  D(65,27,29,31)        -14.1738         estimate D2E/DX2                !
 ! D213  D(25,27,65,63)          3.3566         estimate D2E/DX2                !
 ! D214  D(25,27,65,67)        152.1884         estimate D2E/DX2                !
 ! D215  D(29,27,65,63)       -140.5221         estimate D2E/DX2                !
 ! D216  D(29,27,65,67)          8.3097         estimate D2E/DX2                !
 ! D217  D(26,28,30,7)           8.1059         estimate D2E/DX2                !
 ! D218  D(26,28,30,32)        153.3934         estimate D2E/DX2                !
 ! D219  D(66,28,30,7)        -137.287          estimate D2E/DX2                !
 ! D220  D(66,28,30,32)          8.0005         estimate D2E/DX2                !
 ! D221  D(26,28,66,64)          7.5019         estimate D2E/DX2                !
 ! D222  D(26,28,66,68)       -146.9971         estimate D2E/DX2                !
 ! D223  D(30,28,66,64)        147.0735         estimate D2E/DX2                !
 ! D224  D(30,28,66,68)         -7.4254         estimate D2E/DX2                !
 ! D225  D(5,29,31,33)          -2.2323         estimate D2E/DX2                !
 ! D226  D(5,29,31,69)        -148.0769         estimate D2E/DX2                !
 ! D227  D(27,29,31,33)        151.399          estimate D2E/DX2                !
 ! D228  D(27,29,31,69)          5.5543         estimate D2E/DX2                !
 ! D229  D(7,30,32,34)           0.2279         estimate D2E/DX2                !
 ! D230  D(7,30,32,70)         141.9844         estimate D2E/DX2                !
 ! D231  D(28,30,32,34)       -141.7119         estimate D2E/DX2                !
 ! D232  D(28,30,32,70)          0.0446         estimate D2E/DX2                !
 ! D233  D(29,31,33,35)         -8.5434         estimate D2E/DX2                !
 ! D234  D(29,31,33,73)       -155.8969         estimate D2E/DX2                !
 ! D235  D(69,31,33,35)        141.2684         estimate D2E/DX2                !
 ! D236  D(69,31,33,73)         -6.0851         estimate D2E/DX2                !
 ! D237  D(29,31,69,67)          9.4438         estimate D2E/DX2                !
 ! D238  D(29,31,69,71)        154.7563         estimate D2E/DX2                !
 ! D239  D(33,31,69,67)       -140.0696         estimate D2E/DX2                !
 ! D240  D(33,31,69,71)          5.243          estimate D2E/DX2                !
 ! D241  D(30,32,34,36)          8.6262         estimate D2E/DX2                !
 ! D242  D(30,32,34,74)        154.5311         estimate D2E/DX2                !
 ! D243  D(70,32,34,36)       -136.3206         estimate D2E/DX2                !
 ! D244  D(70,32,34,74)          9.5843         estimate D2E/DX2                !
 ! D245  D(30,32,70,68)         -8.5326         estimate D2E/DX2                !
 ! D246  D(30,32,70,72)       -154.7025         estimate D2E/DX2                !
 ! D247  D(34,32,70,68)        136.846          estimate D2E/DX2                !
 ! D248  D(34,32,70,72)         -9.3239         estimate D2E/DX2                !
 ! D249  D(31,33,35,9)          13.1155         estimate D2E/DX2                !
 ! D250  D(31,33,35,37)       -143.7839         estimate D2E/DX2                !
 ! D251  D(73,33,35,9)         155.5077         estimate D2E/DX2                !
 ! D252  D(73,33,35,37)         -1.3917         estimate D2E/DX2                !
 ! D253  D(31,33,73,71)          4.5397         estimate D2E/DX2                !
 ! D254  D(31,33,73,75)        146.7139         estimate D2E/DX2                !
 ! D255  D(35,33,73,71)       -142.3211         estimate D2E/DX2                !
 ! D256  D(35,33,73,75)         -0.1468         estimate D2E/DX2                !
 ! D257  D(32,34,36,12)        -10.9895         estimate D2E/DX2                !
 ! D258  D(32,34,36,38)        143.8332         estimate D2E/DX2                !
 ! D259  D(74,34,36,12)       -151.2622         estimate D2E/DX2                !
 ! D260  D(74,34,36,38)          3.5605         estimate D2E/DX2                !
 ! D261  D(32,34,74,72)         -6.0245         estimate D2E/DX2                !
 ! D262  D(32,34,74,76)       -149.0601         estimate D2E/DX2                !
 ! D263  D(36,34,74,72)        139.3576         estimate D2E/DX2                !
 ! D264  D(36,34,74,76)         -3.678          estimate D2E/DX2                !
 ! D265  D(9,35,37,39)          -0.947          estimate D2E/DX2                !
 ! D266  D(9,35,37,77)        -155.1565         estimate D2E/DX2                !
 ! D267  D(33,35,37,39)        155.1948         estimate D2E/DX2                !
 ! D268  D(33,35,37,77)          0.9853         estimate D2E/DX2                !
 ! D269  D(12,36,38,42)          0.339          estimate D2E/DX2                !
 ! D270  D(12,36,38,78)        154.0726         estimate D2E/DX2                !
 ! D271  D(34,36,38,42)       -153.8205         estimate D2E/DX2                !
 ! D272  D(34,36,38,78)         -0.0868         estimate D2E/DX2                !
 ! D273  D(35,37,39,43)          7.6713         estimate D2E/DX2                !
 ! D274  D(35,37,39,79)       -145.385          estimate D2E/DX2                !
 ! D275  D(77,37,39,43)        162.2135         estimate D2E/DX2                !
 ! D276  D(77,37,39,79)          9.1572         estimate D2E/DX2                !
 ! D277  D(35,37,77,75)          0.9194         estimate D2E/DX2                !
 ! D278  D(35,37,77,81)        140.9349         estimate D2E/DX2                !
 ! D279  D(39,37,77,75)       -153.8518         estimate D2E/DX2                !
 ! D280  D(39,37,77,81)        -13.8363         estimate D2E/DX2                !
 ! D281  D(36,38,42,46)         -3.1976         estimate D2E/DX2                !
 ! D282  D(36,38,42,80)        148.7596         estimate D2E/DX2                !
 ! D283  D(78,38,42,46)       -157.2206         estimate D2E/DX2                !
 ! D284  D(78,38,42,80)         -5.2634         estimate D2E/DX2                !
 ! D285  D(36,38,78,76)         -3.2987         estimate D2E/DX2                !
 ! D286  D(36,38,78,81)       -143.6565         estimate D2E/DX2                !
 ! D287  D(42,38,78,76)        151.049          estimate D2E/DX2                !
 ! D288  D(42,38,78,81)         10.6912         estimate D2E/DX2                !
 ! D289  D(37,39,43,2)        -158.4081         estimate D2E/DX2                !
 ! D290  D(37,39,43,13)         -5.618          estimate D2E/DX2                !
 ! D291  D(79,39,43,2)          -4.2749         estimate D2E/DX2                !
 ! D292  D(79,39,43,13)        148.5152         estimate D2E/DX2                !
 ! D293  D(37,39,79,40)        137.1282         estimate D2E/DX2                !
 ! D294  D(37,39,79,82)          0.1892         estimate D2E/DX2                !
 ! D295  D(43,39,79,40)        -16.7049         estimate D2E/DX2                !
 ! D296  D(43,39,79,82)       -153.6439         estimate D2E/DX2                !
 ! D297  D(44,40,41,45)         -0.7576         estimate D2E/DX2                !
 ! D298  D(44,40,41,80)       -150.4201         estimate D2E/DX2                !
 ! D299  D(79,40,41,45)        149.9643         estimate D2E/DX2                !
 ! D300  D(79,40,41,80)          0.3018         estimate D2E/DX2                !
 ! D301  D(41,40,44,2)         164.6248         estimate D2E/DX2                !
 ! D302  D(41,40,44,47)         -1.8858         estimate D2E/DX2                !
 ! D303  D(79,40,44,2)          18.3671         estimate D2E/DX2                !
 ! D304  D(79,40,44,47)       -148.1435         estimate D2E/DX2                !
 ! D305  D(41,40,79,39)       -140.3146         estimate D2E/DX2                !
 ! D306  D(41,40,79,82)          1.6205         estimate D2E/DX2                !
 ! D307  D(44,40,79,39)          9.4033         estimate D2E/DX2                !
 ! D308  D(44,40,79,82)        151.3383         estimate D2E/DX2                !
 ! D309  D(40,41,45,4)        -150.9259         estimate D2E/DX2                !
 ! D310  D(40,41,45,48)          2.5568         estimate D2E/DX2                !
 ! D311  D(80,41,45,4)          -5.4994         estimate D2E/DX2                !
 ! D312  D(80,41,45,48)        147.9833         estimate D2E/DX2                !
 ! D313  D(40,41,80,42)        141.7318         estimate D2E/DX2                !
 ! D314  D(40,41,80,82)         -2.0871         estimate D2E/DX2                !
 ! D315  D(45,41,80,42)         -7.1939         estimate D2E/DX2                !
 ! D316  D(45,41,80,82)       -151.0128         estimate D2E/DX2                !
 ! D317  D(38,42,46,4)         147.0858         estimate D2E/DX2                !
 ! D318  D(38,42,46,14)          2.7828         estimate D2E/DX2                !
 ! D319  D(80,42,46,4)          -6.2443         estimate D2E/DX2                !
 ! D320  D(80,42,46,14)       -150.5473         estimate D2E/DX2                !
 ! D321  D(38,42,80,41)       -140.4193         estimate D2E/DX2                !
 ! D322  D(38,42,80,82)         -1.7937         estimate D2E/DX2                !
 ! D323  D(46,42,80,41)         12.7971         estimate D2E/DX2                !
 ! D324  D(46,42,80,82)        151.4227         estimate D2E/DX2                !
 ! D325  D(2,44,47,48)        -162.4595         estimate D2E/DX2                !
 ! D326  D(2,44,47,49)           4.8845         estimate D2E/DX2                !
 ! D327  D(40,44,47,48)          2.6082         estimate D2E/DX2                !
 ! D328  D(40,44,47,49)        169.9522         estimate D2E/DX2                !
 ! D329  D(4,45,48,47)         150.0412         estimate D2E/DX2                !
 ! D330  D(4,45,48,50)          -5.5733         estimate D2E/DX2                !
 ! D331  D(41,45,48,47)         -1.8205         estimate D2E/DX2                !
 ! D332  D(41,45,48,50)       -157.435          estimate D2E/DX2                !
 ! D333  D(44,47,48,45)         -0.7678         estimate D2E/DX2                !
 ! D334  D(44,47,48,50)        154.2348         estimate D2E/DX2                !
 ! D335  D(49,47,48,45)       -168.1689         estimate D2E/DX2                !
 ! D336  D(49,47,48,50)        -13.1663         estimate D2E/DX2                !
 ! D337  D(44,47,49,10)        -24.8612         estimate D2E/DX2                !
 ! D338  D(44,47,49,51)       -137.0505         estimate D2E/DX2                !
 ! D339  D(44,47,49,86)         99.3939         estimate D2E/DX2                !
 ! D340  D(48,47,49,10)        142.6818         estimate D2E/DX2                !
 ! D341  D(48,47,49,51)         30.4925         estimate D2E/DX2                !
 ! D342  D(48,47,49,86)        -93.0631         estimate D2E/DX2                !
 ! D343  D(45,48,50,11)         10.3214         estimate D2E/DX2                !
 ! D344  D(45,48,50,52)        146.7453         estimate D2E/DX2                !
 ! D345  D(47,48,50,11)       -145.3774         estimate D2E/DX2                !
 ! D346  D(47,48,50,52)         -8.9535         estimate D2E/DX2                !
 ! D347  D(10,49,51,52)       -147.4211         estimate D2E/DX2                !
 ! D348  D(10,49,51,55)          2.9166         estimate D2E/DX2                !
[...]
 Alpha virt. eigenvalues --    1.13091   1.13540   1.13766   1.14019   1.14149
 Alpha virt. eigenvalues --    1.14486   1.14758   1.15045   1.15230   1.15384
 Alpha virt. eigenvalues --    1.15734   1.15929   1.16332   1.16452   1.16752
 Alpha virt. eigenvalues --    1.17042   1.17193   1.17424   1.17577   1.17729
 Alpha virt. eigenvalues --    1.18267   1.18578   1.18980   1.19251   1.19475
 Alpha virt. eigenvalues --    1.19562   1.19782   1.19966   1.20420   1.20932
 Alpha virt. eigenvalues --    1.21163   1.21544   1.21747   1.22050   1.22783
 Alpha virt. eigenvalues --    1.22938   1.23054   1.23219   1.23803   1.24060
 Alpha virt. eigenvalues --    1.24314   1.24532   1.25187   1.25342   1.25504
 Alpha virt. eigenvalues --    1.25959   1.26084   1.26261   1.26823   1.26893
 Alpha virt. eigenvalues --    1.27332   1.27468   1.28109   1.28138   1.28271
 Alpha virt. eigenvalues --    1.28874   1.28994   1.29344   1.29845   1.30132
 Alpha virt. eigenvalues --    1.30246   1.30563   1.30968   1.31536   1.31593
 Alpha virt. eigenvalues --    1.31870   1.32001   1.32432   1.32867   1.33518
 Alpha virt. eigenvalues --    1.33819   1.33871   1.34456   1.34537   1.35066
 Alpha virt. eigenvalues --    1.35271   1.35705   1.36187   1.36692   1.36830
 Alpha virt. eigenvalues --    1.37738   1.38453   1.38728   1.39193   1.39968
 Alpha virt. eigenvalues --    1.40327   1.40922   1.41345   1.41704   1.41982
 Alpha virt. eigenvalues --    1.42844   1.43857   1.44215   1.44767   1.45272
 Alpha virt. eigenvalues --    1.45460   1.45953   1.46492   1.47003   1.47497
 Alpha virt. eigenvalues --    1.48464   1.48634   1.49220   1.49513   1.50694
 Alpha virt. eigenvalues --    1.50941   1.51169   1.51861   1.52502   1.53225
 Alpha virt. eigenvalues --    1.53475   1.53723   1.54506   1.54798   1.55349
 Alpha virt. eigenvalues --    1.55766   1.56031   1.56430   1.56975   1.57289
 Alpha virt. eigenvalues --    1.57511   1.57741   1.58018   1.58363   1.59469
 Alpha virt. eigenvalues --    1.59835   1.60568   1.61026   1.61450   1.61815
 Alpha virt. eigenvalues --    1.62698   1.63252   1.63921   1.64266   1.64549
 Alpha virt. eigenvalues --    1.64759   1.65363   1.65423   1.65519   1.65797
 Alpha virt. eigenvalues --    1.66206   1.66592   1.66672   1.66841   1.67206
 Alpha virt. eigenvalues --    1.67667   1.67724   1.67862   1.68394   1.68769
 Alpha virt. eigenvalues --    1.68991   1.69306   1.69667   1.69747   1.69964
 Alpha virt. eigenvalues --    1.70412   1.70502   1.70639   1.71093   1.71242
 Alpha virt. eigenvalues --    1.71246   1.71750   1.72072   1.72171   1.72239
 Alpha virt. eigenvalues --    1.72721   1.72821   1.72927   1.72983   1.73336
 Alpha virt. eigenvalues --    1.73806   1.73941   1.74040   1.74424   1.74637
 Alpha virt. eigenvalues --    1.75182   1.75286   1.75696   1.75941   1.76125
 Alpha virt. eigenvalues --    1.76276   1.76559   1.76846   1.76953   1.77057
 Alpha virt. eigenvalues --    1.77503   1.77703   1.77806   1.78018   1.78268
 Alpha virt. eigenvalues --    1.78657   1.78948   1.79063   1.79399   1.79505
 Alpha virt. eigenvalues --    1.79849   1.80202   1.80911   1.81304   1.81754
 Alpha virt. eigenvalues --    1.82129   1.83190   1.83528   1.83781   1.85001
 Alpha virt. eigenvalues --    1.85078   1.85597   1.85665   1.86021   1.86644
 Alpha virt. eigenvalues --    1.86707   1.87788   1.88375   1.88837   1.89757
 Alpha virt. eigenvalues --    1.90108   1.90353   1.91549   1.91582   1.91834
 Alpha virt. eigenvalues --    1.92200   1.92524   1.93219   1.93634   1.94171
 Alpha virt. eigenvalues --    1.94526   1.94643   1.95133   1.95628   1.95737
 Alpha virt. eigenvalues --    1.96094   1.96327   1.96513   1.96696   1.96876
 Alpha virt. eigenvalues --    1.97235   1.97853   1.98171   1.98418   1.98533
 Alpha virt. eigenvalues --    1.98598   1.98662   1.99142   1.99521   1.99591
 Alpha virt. eigenvalues --    1.99778   2.00005   2.00157   2.00338   2.00500
 Alpha virt. eigenvalues --    2.00793   2.00885   2.01046   2.01237   2.01405
 Alpha virt. eigenvalues --    2.01707   2.01780   2.01978   2.02323   2.02598
 Alpha virt. eigenvalues --    2.02612   2.03013   2.03265   2.03518   2.03822
 Alpha virt. eigenvalues --    2.03846   2.04181   2.04275   2.04393   2.05173
 Alpha virt. eigenvalues --    2.05297   2.05428   2.05818   2.06190   2.06447
 Alpha virt. eigenvalues --    2.06993   2.07329   2.07712   2.08203   2.08560
 Alpha virt. eigenvalues --    2.09664   2.10187   2.10196   2.10860   2.11232
 Alpha virt. eigenvalues --    2.11895   2.12376   2.12776   2.12951   2.13582
 Alpha virt. eigenvalues --    2.13755   2.14075   2.14412   2.14640   2.15491
 Alpha virt. eigenvalues --    2.15906   2.16511   2.16965   2.17679   2.18026
 Alpha virt. eigenvalues --    2.18511   2.19156   2.20043   2.20371   2.21025
 Alpha virt. eigenvalues --    2.21377   2.21684   2.21828   2.22040   2.22703
 Alpha virt. eigenvalues --    2.22748   2.23163   2.23701   2.24298   2.24639
 Alpha virt. eigenvalues --    2.24809   2.25031   2.25268   2.25409   2.25965
 Alpha virt. eigenvalues --    2.26145   2.27366   2.27691   2.28304   2.28669
 Alpha virt. eigenvalues --    2.28909   2.29156   2.29275   2.29400   2.29751
 Alpha virt. eigenvalues --    2.30267   2.30580   2.31103   2.31573   2.31841
 Alpha virt. eigenvalues --    2.32094   2.32425   2.33254   2.33479   2.34513
 Alpha virt. eigenvalues --    2.34680   2.35671   2.35738   2.36652   2.38288
 Alpha virt. eigenvalues --    2.38727   2.39141   2.39327   2.39640   2.40335
 Alpha virt. eigenvalues --    2.40714   2.41165   2.41703   2.42282   2.43130
 Alpha virt. eigenvalues --    2.43683   2.43805   2.44461   2.44908   2.45055
 Alpha virt. eigenvalues --    2.45595   2.46233   2.46379   2.47011   2.47414
 Alpha virt. eigenvalues --    2.48103   2.48652   2.50125   2.50601   2.50796
 Alpha virt. eigenvalues --    2.51413   2.51666   2.51967   2.52348   2.52522
 Alpha virt. eigenvalues --    2.53008   2.54080   2.54764   2.54880   2.55388
 Alpha virt. eigenvalues --    2.55466   2.55951   2.56304   2.56464   2.56933
 Alpha virt. eigenvalues --    2.57146   2.57520   2.57584   2.57747   2.58105
 Alpha virt. eigenvalues --    2.58624   2.58688   2.58931   2.59066   2.59416
 Alpha virt. eigenvalues --    2.59750   2.59925   2.60256   2.60481   2.60921
 Alpha virt. eigenvalues --    2.61317   2.61525   2.62176   2.62469   2.62893
 Alpha virt. eigenvalues --    2.63137   2.63274   2.63632   2.63903   2.64126
 Alpha virt. eigenvalues --    2.64459   2.65341   2.65627   2.65883   2.66334
 Alpha virt. eigenvalues --    2.66442   2.66767   2.67038   2.67124   2.67487
 Alpha virt. eigenvalues --    2.67830   2.68221   2.68280   2.69010   2.69148
 Alpha virt. eigenvalues --    2.69947   2.70196   2.70467   2.70911   2.71547
 Alpha virt. eigenvalues --    2.71939   2.72562   2.73012   2.73359   2.74253
 Alpha virt. eigenvalues --    2.74686   2.74953   2.75610   2.76275   2.76954
 Alpha virt. eigenvalues --    2.77534   2.77978   2.78192   2.78643   2.79035
 Alpha virt. eigenvalues --    2.79512   2.79827   2.80297   2.80663   2.81397
 Alpha virt. eigenvalues --    2.81873   2.81892   2.82229   2.82797   2.82944
 Alpha virt. eigenvalues --    2.83080   2.83541   2.83780   2.84319   2.85017
 Alpha virt. eigenvalues --    2.85276   2.86155   2.86437   2.87055   2.87403
 Alpha virt. eigenvalues --    2.88034   2.88399   2.89109   2.89273   2.89796
 Alpha virt. eigenvalues --    2.90235   2.90730   2.90973   2.91271   2.91653
 Alpha virt. eigenvalues --    2.92115   2.92411   2.92541   2.92826   2.93280
 Alpha virt. eigenvalues --    2.93653   2.94633   2.95134   2.95669   2.95897
 Alpha virt. eigenvalues --    2.96708   2.97582   2.98112   2.98889   2.99051
 Alpha virt. eigenvalues --    2.99411   3.00841   3.01420   3.02283   3.03537
 Alpha virt. eigenvalues --    3.04033   3.06156   3.06801   3.08030   3.09246
 Alpha virt. eigenvalues --    3.11056   3.13159   3.14701   3.15301   3.16117
 Alpha virt. eigenvalues --    3.18103   3.18574   3.19760   3.22439   3.22932
 Alpha virt. eigenvalues --    3.25902   3.26790   3.28646   3.29706   3.31023
 Alpha virt. eigenvalues --    3.31714   3.34482   3.35717   3.36062   3.37220
 Alpha virt. eigenvalues --    3.38952   3.39669   3.42735   3.43367   3.45206
 Alpha virt. eigenvalues --    3.46797   3.48229   3.50422   3.53388   3.54473
 Alpha virt. eigenvalues --    3.57061   3.57561   3.61518   4.01350   4.01663
 Alpha virt. eigenvalues --    4.01800   4.01976   4.03351   4.03960   4.04094
 Alpha virt. eigenvalues --    4.04820   4.05612   4.06410   4.06737   4.07079
 Alpha virt. eigenvalues --    4.07273   4.07669   4.07977   4.08481   4.10035
 Alpha virt. eigenvalues --    4.10906   4.11348   4.11620   4.11770   4.12755
 Alpha virt. eigenvalues --    4.13619   4.14866   4.15990   4.17316   4.17644
 Alpha virt. eigenvalues --    4.19416   4.20320   4.20769   4.21349   4.21765
 Alpha virt. eigenvalues --    4.21974   4.22367   4.22995   4.24684   4.26918
 Alpha virt. eigenvalues --    4.28044   4.28682   4.29221   4.29519   4.30551
 Alpha virt. eigenvalues --    4.31333   4.32242   4.32727   4.35422   4.37813
 Alpha virt. eigenvalues --    4.39736   4.40396   4.41709   4.42833   4.44411
 Alpha virt. eigenvalues --    4.44649   4.49121   4.49198   4.49551   4.52422
 Alpha virt. eigenvalues --    4.52768   4.56424   4.56625   4.57260   4.58264
 Alpha virt. eigenvalues --    4.59933   4.63800   4.65718   4.66908   4.67813
 Alpha virt. eigenvalues --    4.68143   4.68868   4.74903   4.78818   4.81084
 Alpha virt. eigenvalues --    4.84193   4.84948   4.87113   4.90304   4.93139
 Alpha virt. eigenvalues --    4.95739   4.95958   5.07913   5.08894   5.13149
 Alpha virt. eigenvalues --    5.15104   5.17989   5.23145   5.26408
          Condensed to atoms (all electrons):
 Mulliken charges:
               1
     1  C   -0.022451
     2  C   -0.356410
     3  C   -0.026080
     4  C   -0.023582
     5  C    0.049591
     6  C    0.089894
     7  C   -0.018864
     8  C   -0.018050
     9  C    0.028188
    10  C    0.095181
    11  C    0.002199
    12  C    0.052632
    13  C    0.013439
    14  C   -0.028801
    15  C    0.017912
    16  C   -0.022710
    17  C   -0.014933
    18  C    0.055914
    19  C   -0.016390
    20  C    0.057002
    21  C   -0.022079
    22  C   -0.022870
    23  C   -0.000313
    24  C   -0.018160
    25  C   -0.023941
    26  C   -0.002679
    27  C   -0.021724
    28  C   -0.021169
    29  C    0.050500
    30  C   -0.015578
    31  C   -0.031324
    32  C   -0.011343
    33  C   -0.023999
    34  C   -0.022097
    35  C    0.039205
    36  C    0.045735
    37  C    0.042891
    38  C    0.043460
    39  C    0.067960
    40  C    0.009829
    41  C   -0.033760
    42  C    0.057044
    43  C    0.041611
    44  C    0.128599
    45  C    0.052490
    46  C   -0.032860
    47  C    0.098190
    48  C    0.078831
    49  C   -0.351750
    50  C   -0.043982
    51  C    0.071869
    52  C    0.001376
    53  C    0.019550
    54  C   -0.024525
    55  C    0.007188
    56  C   -0.014078
    57  C    0.047091
    58  C   -0.030014
    59  C    0.054567
    60  C   -0.028844
    61  C   -0.022840
    62  C   -0.021084
    63  C   -0.031088
    64  C    0.051727
    65  C   -0.028453
    66  C    0.046641
    67  C    0.051408
    68  C    0.045296
    69  C   -0.022806
    70  C   -0.024157
    71  C   -0.010468
    72  C    0.005022
    73  C   -0.012719
    74  C   -0.008186
    75  C    0.001760
    76  C   -0.001438
    77  C   -0.025958
    78  C   -0.021553
    79  C   -0.035878
    80  C   -0.024674
    81  C    0.005799
    82  C   -0.021415
    83  C    0.035483
    84  C    0.050264
    85  Cl  -0.022549
    86  Cl  -0.032712
 Sum of Mulliken charges =  -0.00000
 Mulliken charges with hydrogens summed into heavy atoms:
               1
     1  C   -0.022451
     2  C   -0.356410
     3  C   -0.026080
     4  C   -0.023582
     5  C    0.049591
     6  C    0.089894
     7  C   -0.018864
     8  C   -0.018050
     9  C    0.028188
    10  C    0.095181
    11  C    0.002199
    12  C    0.052632
    13  C    0.013439
    14  C   -0.028801
    15  C    0.017912
    16  C   -0.022710
    17  C   -0.014933
    18  C    0.055914
    19  C   -0.016390
    20  C    0.057002
    21  C   -0.022079
    22  C   -0.022870
    23  C   -0.000313
    24  C   -0.018160
    25  C   -0.023941
    26  C   -0.002679
    27  C   -0.021724
    28  C   -0.021169
    29  C    0.050500
    30  C   -0.015578
    31  C   -0.031324
    32  C   -0.011343
    33  C   -0.023999
    34  C   -0.022097
    35  C    0.039205
    36  C    0.045735
    37  C    0.042891
    38  C    0.043460
    39  C    0.067960
    40  C    0.009829
    41  C   -0.033760
    42  C    0.057044
    43  C    0.041611
    44  C    0.128599
    45  C    0.052490
    46  C   -0.032860
    47  C    0.098190
    48  C    0.078831
    49  C   -0.351750
    50  C   -0.043982
    51  C    0.071869
    52  C    0.001376
    53  C    0.019550
    54  C   -0.024525
    55  C    0.007188
    56  C   -0.014078
    57  C    0.047091
    58  C   -0.030014
    59  C    0.054567
    60  C   -0.028844
    61  C   -0.022840
    62  C   -0.021084
    63  C   -0.031088
    64  C    0.051727
    65  C   -0.028453
    66  C    0.046641
    67  C    0.051408
    68  C    0.045296
    69  C   -0.022806
    70  C   -0.024157
    71  C   -0.010468
    72  C    0.005022
    73  C   -0.012719
    74  C   -0.008186
    75  C    0.001760
    76  C   -0.001438
    77  C   -0.025958
    78  C   -0.021553
    79  C   -0.035878
    80  C   -0.024674
    81  C    0.005799
    82  C   -0.021415
    83  C    0.035483
    84  C    0.050264
    85  Cl  -0.022549
    86  Cl  -0.032712
 Electronic spatial extent (au):  <R**2>=          37580.3212
 Charge=             -0.0000 electrons
 Dipole moment (field-independent basis, Debye):
    X=             -4.0234    Y=              0.0585    Z=              1.0645  Tot=              4.1622
 Quadrupole moment (field-independent basis, Debye-Ang):
   XX=           -500.4261   YY=           -478.0065   ZZ=           -477.3706
   XY=              4.5000   XZ=              6.7912   YZ=              0.3134
 Traceless Quadrupole moment (field-independent basis, Debye-Ang):
   XX=            -15.1584   YY=              7.2612   ZZ=              7.8971
   XY=              4.5000   XZ=              6.7912   YZ=              0.3134
 Octapole moment (field-independent basis, Debye-Ang**2):
  XXX=            -83.4773  YYY=             -9.7214  ZZZ=             -1.3131  XYY=              2.5930
  XXY=              6.6119  XXZ=             17.3239  XZZ=             30.8307  YZZ=             -6.4538
  YYZ=             -1.0930  XYZ=             -2.9648
 Hexadecapole moment (field-independent basis, Debye-Ang**3):
 XXXX=         -23208.8204 YYYY=         -17061.8240 ZZZZ=         -15983.2014 XXXY=             -2.3287
 XXXZ=             54.5743 YYYX=             17.3251 YYYZ=              5.1336 ZZZX=             -4.4079
 ZZZY=             -0.0054 XXYY=          -6693.4383 XXZZ=          -6393.4038 YYZZ=          -5494.0501
 XXYZ=             12.6157 YYXZ=             16.2145 ZZXY=             -3.9860
 N-N= 1.559443492470D+04 E-N=-4.078218935142D+04  KE= 4.088609359916D+03
 No NMR shielding tensors so no spin-rotation constants.
 Leave Link  601 at Thu Jun 30 09:40:49 2022, MaxMem=  1342177280 cpu:              22.2 elap:               1.1
 (Enter /home/mkliu/g16/l9999.exe)
 1\1\GINC-NODE05\FOpt\RB3LYP\6-31G(d,p)\C84Cl2\MKLIU\30-Jun-2022\0\\#P 
 opt b3lyp/6-31G(d, p) empiricaldispersion=GD3\\force\\0,1\C,8.48256376
 65,18.864040445,10.758613889\C,12.5822866527,19.9808766247,8.883570164
 9\C,8.2591355245,26.9169943317,10.5404977946\C,12.2966565529,25.618269
 691,8.948837871\C,8.0013123669,19.0881171787,9.4429493845\C,12.0733253
 024,19.4761418754,10.2088077054\C,7.9483583453,26.8862108879,9.1484430
 899\C,11.8655925942,26.1816997632,10.1973640664\C,8.9731819236,19.1851
 775817,8.3542498017\C,12.3398891184,20.1184195843,11.3811424275\C,12.1
 315123154,25.5086009868,11.368911991\C,8.9498080368,26.7041548511,8.15
 27360085\C,10.3499946418,19.0528414407,8.6768358416\C,10.2836591087,26
 .7579259528,8.618030381\C,10.8046951701,18.8282524495,10.019954727\C,1
 0.600148801,26.8568784881,10.0044976922\C,9.8757532285,18.7483977043,1
 1.0477041246\C,9.5926642726,26.8243002026,11.0094413544\C,10.152310073
 8,19.4329180271,12.2919572829\C,9.8598140686,26.0822198255,12.24994673
 64\C,8.9315220426,19.9995423057,12.78375665\C,8.7701838723,25.45230981
 22,12.9195500751\C,7.8770805133,19.5333202473,11.8994502816\C,7.427466
 3786,25.5297115462,12.3817385988\C,6.7216271171,20.2535155699,11.75081
 50688\C,7.1746327133,26.2402875994,11.2392485189\C,6.0923974521,20.339
 7325295,10.4630501625\C,6.2171262015,25.7473593398,10.2673441293\C,6.7
 167371546,19.7687959414,9.3143659123\C,6.6521061735,26.2514034408,9.00
 28905476\C,6.3866740329,20.3586514477,8.0830432888\C,6.3423357785,25.5
 804543061,7.8472379115\C,7.3158258742,20.3551352039,6.9690187697\C,7.3
 098084223,25.4903166057,6.7662428921\C,8.6513056145,19.9024000388,7.13
 07139797\C,8.6443266968,25.9341091026,6.936943388\C,9.7038334038,20.58
 88211112,6.385046407\C,9.7104621513,25.1809274105,6.27226443\C,11.0781
 38169,20.5587060143,6.8878104691\C,12.7796331438,22.1687186215,7.72759
 24943\C,12.7699705909,23.6164672851,7.7198266663\C,11.0696785365,25.20
 09095607,6.8320869836\C,11.3684952638,19.7497328877,7.9712878317\C,12.
 9691957713,21.4550340451,8.941706556\C,12.9359188888,24.3441007517,8.9
 137983731\C,11.3399224647,26.0036033897,7.9567710561\C,13.1962882834,2
 2.1424991264,10.1285891066\C,13.1809732019,23.6121393417,10.1522875096
 \C,13.1711495236,21.3827461363,11.4582854268\C,12.8612477282,24.266560
 3371,11.3585178156\C,12.4338691223,22.1567413627,12.5348796964\C,12.38
 13132162,23.5137060006,12.5045086897\C,11.3430056815,20.1291000454,12.
 4250037553\C,11.1208639426,25.4618314369,12.4190473638\C,11.338499324,
 21.4079410763,13.0701172987\C,11.2561746674,24.2069511204,13.084343904
 3\C,8.881079424,21.2933158343,13.3600042283\C,8.8963476051,24.17278914
 45,13.5242100617\C,7.6248194301,22.0402922486,13.2295343322\C,7.644234
 951,23.4464017856,13.33835961\C,6.5597658616,21.5051597671,12.44669740
 37\C,6.7463215156,24.2757642612,12.6059689154\C,5.7357503136,22.332528
 2054,11.6261624162\C,5.8550271052,23.7380331682,11.6289934127\C,5.4412
 675285,21.6080083951,10.3992824081\C,5.6061699267,24.4746642997,10.388
 4593097\C,5.2352376045,22.2805800703,9.1756208557\C,5.2821096705,23.74
 65368415,9.1572232022\C,5.5790945564,21.5442295849,8.0024625433\C,5.57
 96154412,24.3629234046,7.91469481\C,5.9261458853,22.2149800828,6.78028
 62204\C,5.9249456499,23.5946989258,6.7381607148\C,6.9852492985,21.4621
 449678,6.1306669241\C,6.98662777,24.3020711695,6.03255036\C,7.99606965
 73,22.1306801743,5.451560623\C,7.9963398061,23.5924178187,5.4061505173
 \C,9.3387857839,21.6767507187,5.5498673845\C,9.3472079317,24.051916280
 1,5.4951262265\C,11.9357187349,21.706787333,6.6935685922\C,11.91304392
 93,24.0625124052,6.6709074322\C,10.1852863829,22.8616132362,5.46262245
 46\C,11.4375001833,22.8733823305,6.0110586895\C,10.1381566558,22.02474
 697,13.5216745121\C,10.1289564543,23.4814236707,13.572033004\Cl,14.044
 7952053,18.9947970538,8.2834874498\Cl,14.9301897047,21.0234553703,11.9
 772750149\\Version=ES64L-G16RevA.03\State=1-A\HF=-4121.4042124\RMSD=8.
 326e-09\RMSF=8.452e-05\Dipole=-1.5472645,0.5019482,-0.1886253\Quadrupo
 le=-10.4456271,3.3321384,7.1134888,6.7176245,-0.0403972,-1.2321686\PG=
 C01 [X(C84Cl2)]\\@


 TELEVISION IS CALLED A MEDIUM BECAUSE IT ISN'T
 RARE, AND IT ISN'T WELL DONE.
 Job cpu time:       1 days  1 hours  0 minutes  7.9 seconds.
 Elapsed time:       0 days  1 hours  2 minutes 35.9 seconds.
 File lengths (MBytes):  RWF=   1037 Int=      0 D2E=      0 Chk=    131 Scr=      1
 Normal termination of Gaussian 16 at Thu Jun 30 09:40:51 2022.
