 Entering Gaussian System, Link 0=g16
 Input=2_addons_C84_11_Cl22_rank_6.gjf
 Output=2_addons_C84_11_Cl22_rank_6.log
 Initial command:
 /home/mkliu/g16/l1.exe "/data/scratch/Gau-97102.inp" -scrdir="/data/scratch/"
 Entering Link 1 = /home/mkliu/g16/l1.exe PID=     97103.
  
 Copyright (c) 1988,1990,1992,1993,1995,1998,2003,2009,2016,
            Gaussian, Inc.  All Rights Reserved.
  
 This is part of the Gaussian(R) 16 program.  It is based on
 the Gaussian(R) 09 system (copyright 2009, Gaussian, Inc.),
 the Gaussian(R) 03 system (copyright 2003, Gaussian, Inc.),
 the Gaussian(R) 98 system (copyright 1998, Gaussian, Inc.),
 the Gaussian(R) 94 system (copyright 1995, Gaussian, Inc.),
 the Gaussian 92(TM) system (copyright 1992, Gaussian, Inc.),
 the Gaussian 90(TM) system (copyright 1990, Gaussian, Inc.),
 the Gaussian 88(TM) system (copyright 1988, Gaussian, Inc.),
 the Gaussian 86(TM) system (copyright 1986, Carnegie Mellon
 University), and the Gaussian 82(TM) system (copyright 1983,
 Carnegie Mellon University). Gaussian is a federally registered
 trademark of Gaussian, Inc.
  
 This software contains proprietary and confidential information,
 including trade secrets, belonging to Gaussian, Inc.
  
 This software is provided under written license and may be
 used, copied, transmitted, or stored only in accord with that
 written license.
  
 The following legend is applicable only to US Government
 contracts under FAR:
  
                    RESTRICTED RIGHTS LEGEND
  
 Use, reproduction and disclosure by the US Government is
 subject to restrictions as set forth in subparagraphs (a)
 and (c) of the Commercial Computer Software - Restricted
 Rights clause in FAR 52.227-19.
  
 Gaussian, Inc.
 340 Quinnipiac St., Bldg. 40, Wallingford CT 06492
  
  
 ---------------------------------------------------------------
 Warning -- This program may not be used in any manner that
 competes with the business of Gaussian, Inc. or will provide
 assistance to any competitor of Gaussian, Inc.  The licensee
 of this program is prohibited from giving any competitor of
 Gaussian, Inc. access to this program.  By using this program,
 the user acknowledges that Gaussian, Inc. is engaged in the
 business of creating and licensing software in the field of
 computational chemistry and represents and warrants to the
 licensee that it is not a competitor of Gaussian, Inc. and that
 it will not use this program in any manner prohibited above.
 ---------------------------------------------------------------
  

 Cite this work as:
 Gaussian 16, Revision A.03,
 M. J. Frisch, G. W. Trucks, H. B. Schlegel, G. E. Scuseria, 
 M. A. Robb, J. R. Cheeseman, G. Scalmani, V. Barone, 
 G. A. Petersson, H. Nakatsuji, X. Li, M. Caricato, A. V. Marenich, 
 J. Bloino, B. G. Janesko, R. Gomperts, B. Mennucci, H. P. Hratchian, 
 J. V. Ortiz, A. F. Izmaylov, J. L. Sonnenberg, D. Williams-Young, 
 F. Ding, F. Lipparini, F. Egidi, J. Goings, B. Peng, A. Petrone, 
 T. Henderson, D. Ranasinghe, V. G. Zakrzewski, J. Gao, N. Rega, 
 G. Zheng, W. Liang, M. Hada, M. Ehara, K. Toyota, R. Fukuda, 
 J. Hasegawa, M. Ishida, T. Nakajima, Y. Honda, O. Kitao, H. Nakai, 
 T. Vreven, K. Throssell, J. A. Montgomery, Jr., J. E. Peralta, 
 F. Ogliaro, M. J. Bearpark, J. J. Heyd, E. N. Brothers, K. N. Kudin, 
 V. N. Staroverov, T. A. Keith, R. Kobayashi, J. Normand, 
 K. Raghavachari, A. P. Rendell, J. C. Burant, S. S. Iyengar, 
 J. Tomasi, M. Cossi, J. M. Millam, M. Klene, C. Adamo, R. Cammi, 
 J. W. Ochterski, R. L. Martin, K. Morokuma, O. Farkas, 
 J. B. Foresman, and D. J. Fox, Gaussian, Inc., Wallingford CT, 2016.
 
 ******************************************
 Gaussian 16:  ES64L-G16RevA.03 25-Dec-2016
                26-Jun-2022 
 ******************************************
 %mem=10GB
 %chk=2_addons_C84_11_Cl22_rank_6.chk
 %nprocshared=24
 Will use up to   24 processors via shared memory.
 ------------------------------------------------
 #P opt b3lyp/6-31G(d, p) empiricaldispersion=GD3
 ------------------------------------------------
 1/18=20,19=15,26=3,38=1/1,3;
 2/9=110,12=2,17=6,18=5,40=1/2;
 3/5=1,6=6,7=101,11=2,25=1,30=1,71=1,74=-5,124=31/1,2,3;
 4//1;
 5/5=2,38=5/2;
 6/7=2,8=2,9=2,10=2,28=1/1;
 7//1,2,3,16;
 1/18=20,19=15,26=3/3(2);
 2/9=110/2;
 99//99;
 2/9=110/2;
 3/5=1,6=6,7=101,11=2,25=1,30=1,71=1,74=-5,124=31/1,2,3;
 4/5=5,16=3,69=1/1;
 5/5=2,38=5/2;
 7//1,2,3,16;
 1/18=20,19=15,26=3/3(-5);
 2/9=110/2;
 6/7=2,8=2,9=2,10=2,19=2,28=1/1;
 99/9=1/99;
 Leave Link    1 at Sun Jun 26 15:24:45 2022, MaxMem=  1342177280 cpu:               0.6 elap:               0.0
 (Enter /home/mkliu/g16/l101.exe)
 -----
 force
 -----
 Symbolic Z-matrix:
 Charge =  0 Multiplicity = 1
 C                     8.52003   18.9277   10.7441 
 C                     12.38121   20.15538   8.92408 
 C                     8.27159   26.88157   10.53044 
 C                     12.27858   25.57938   8.95586 
 C                     8.05198   19.13432   9.43071 
 C                     12.05113   19.51563   10.15892 
 C                     7.96785   26.85026   9.14448 
 C                     11.84914   26.15551   10.19902 
 C                     9.00691   19.20949   8.34332 
 C                     12.30871   20.16783   11.34912 
 C                     12.11771   25.5002   11.3673 
 C                     8.95695   26.66354   8.15273 
 C                     10.3605   19.03721   8.65145 
 C                     10.27981   26.71479   8.6276 
 C                     10.81655   18.81786   9.98934 
 C                     10.59119   26.82672   10.00448 
 C                     9.90403   18.77958   11.03118 
 C                     9.59684   26.80377   11.00696 
 C                     10.18867   19.4058   12.2814 
 C                     9.86216   26.07951   12.23572 
 C                     8.91904   19.8368   12.95636 
 C                     8.785     25.43635   12.88615 
 C                     7.90527   19.52679   11.88852 
 C                     7.44528   25.50288   12.36069 
 C                     6.76627   20.24487   11.74292 
 C                     7.19455   26.21348   11.21855 
 C                     6.19252   20.38343   10.45545 
 C                     6.24345   25.71891   10.25271 
 C                     6.79487   19.8127   9.31131 
 C                     6.67736   26.22659   9.0001 
 C                     6.44778   20.39362   8.08797 
 C                     6.372     25.56203   7.84115 
 C                     7.36258   20.38116   6.9766 
 C                     7.33263   25.47866   6.77033 
 C                     8.68309   19.93314   7.12558 
 C                     8.65988   25.90908   6.94713 
 C                     9.71922   20.6079   6.37059 
 C                     9.71464   25.16441   6.28829 
 C                     11.07549   20.59288   6.86993 
 C                     12.78299   22.16788   7.72447 
 C                     12.76565   23.60712   7.72856 
 C                     11.05382   25.17596   6.84806 
 C                     11.37994   19.78961   7.97516 
 C                     12.9848   21.43643   8.90449 
 C                     12.9363   24.32539   8.92354 
 C                     11.32626   25.96102   7.97733 
 C                     13.21848   22.15196   10.14574 
 C                     13.18794   23.60176   10.15002 
 C                     12.91465   21.46754   11.33884 
 C                     12.83779   24.25404   11.34961 
 C                     12.40092   22.15629   12.48466 
 C                     12.37118   23.53093   12.47782 
 C                     11.34902   20.11455   12.41878 
 C                     11.11712   25.46237   12.41279 
 C                     11.34459   21.40082   13.08534 
 C                     11.25796   24.21606   13.07454 
 C                     8.89491   21.32069   13.29187 
 C                     8.92015   24.1501   13.45746 
 C                     7.70622   22.02231   13.16508 
 C                     7.69091   23.42637   13.26527 
 C                     6.43861   21.42547   12.60009 
 C                     6.77794   24.25553   12.58024 
 C                     5.7569    22.33915   11.59847 
 C                     5.88178   23.71846   11.59885 
 C                     5.52576   21.64022   10.39237 
 C                     5.64407   24.45228   10.36824 
 C                     5.29436   22.30122   9.168 
 C                     5.32166   23.74246   9.14902 
 C                     5.64067   21.56498   8.01115 
 C                     5.60854   24.35735   7.90955 
 C                     5.96431   22.2239   6.78489 
 C                     5.95069   23.6011   6.73884 
 C                     7.01574   21.4819   6.13886 
 C                     7.00199   24.30048   6.03786 
 C                     8.00905   22.14859   5.44885 
 C                     8.00706   23.59246   5.40969 
 C                     9.35315   21.69493   5.54999 
 C                     9.35382   24.04961   5.50748 
 C                     11.9129   21.71623   6.69587 
 C                     11.89714   24.05101   6.69774 
 C                     10.1831   22.86969   5.45532 
 C                     11.42581   22.87881   6.02354 
 C                     10.14834   22.02369   13.46772 
 C                     10.14399   23.47055   13.52171 
 Cl                    5.31913   21.01931   13.96732 
 Cl                    8.62797   18.90983   14.4961 
 
 ITRead=  0  0  0  0  0  0  0  0  0  0  0  0  0  0  0  0  0  0  0  0
 ITRead=  0  0  0  0  0  0  0  0  0  0  0  0  0  0  0  0  0  0  0  0
 ITRead=  0  0  0  0  0  0  0  0  0  0  0  0  0  0  0  0  0  0  0  0
 ITRead=  0  0  0  0  0  0  0  0  0  0  0  0  0  0  0  0  0  0  0  0
 ITRead=  0  0  0  0  0  0
 MicOpt= -1 -1 -1 -1 -1 -1 -1 -1 -1 -1 -1 -1 -1 -1 -1 -1 -1 -1 -1 -1
 MicOpt= -1 -1 -1 -1 -1 -1 -1 -1 -1 -1 -1 -1 -1 -1 -1 -1 -1 -1 -1 -1
 MicOpt= -1 -1 -1 -1 -1 -1 -1 -1 -1 -1 -1 -1 -1 -1 -1 -1 -1 -1 -1 -1
 MicOpt= -1 -1 -1 -1 -1 -1 -1 -1 -1 -1 -1 -1 -1 -1 -1 -1 -1 -1 -1 -1
 MicOpt= -1 -1 -1 -1 -1 -1
 NAtoms=     86 NQM=       86 NQMF=       0 NMMI=      0 NMMIF=      0
                NMic=       0 NMicF=      0.
                    Isotopes and Nuclear Properties:
 (Nuclear quadrupole moments (NQMom) in fm**2, nuclear magnetic moments (NMagM)
  in nuclear magnetons)

  Atom         1           2           3           4           5           6           7           8           9          10
 IAtWgt=          12          12          12          12          12          12          12          12          12          12
 AtmWgt=  12.0000000  12.0000000  12.0000000  12.0000000  12.0000000  12.0000000  12.0000000  12.0000000  12.0000000  12.0000000
 NucSpn=           0           0           0           0           0           0           0           0           0           0
 AtZEff=  -0.0000000  -0.0000000  -0.0000000  -0.0000000  -0.0000000  -0.0000000  -0.0000000  -0.0000000  -0.0000000  -0.0000000
 NQMom=    0.0000000   0.0000000   0.0000000   0.0000000   0.0000000   0.0000000   0.0000000   0.0000000   0.0000000   0.0000000
 NMagM=    0.0000000   0.0000000   0.0000000   0.0000000   0.0000000   0.0000000   0.0000000   0.0000000   0.0000000   0.0000000
 AtZNuc=   6.0000000   6.0000000   6.0000000   6.0000000   6.0000000   6.0000000   6.0000000   6.0000000   6.0000000   6.0000000

  Atom        11          12          13          14          15          16          17          18          19          20
 IAtWgt=          12          12          12          12          12          12          12          12          12          12
 AtmWgt=  12.0000000  12.0000000  12.0000000  12.0000000  12.0000000  12.0000000  12.0000000  12.0000000  12.0000000  12.0000000
 NucSpn=           0           0           0           0           0           0           0           0           0           0
 AtZEff=  -0.0000000  -0.0000000  -0.0000000  -0.0000000  -0.0000000  -0.0000000  -0.0000000  -0.0000000  -0.0000000  -0.0000000
 NQMom=    0.0000000   0.0000000   0.0000000   0.0000000   0.0000000   0.0000000   0.0000000   0.0000000   0.0000000   0.0000000
 NMagM=    0.0000000   0.0000000   0.0000000   0.0000000   0.0000000   0.0000000   0.0000000   0.0000000   0.0000000   0.0000000
 AtZNuc=   6.0000000   6.0000000   6.0000000   6.0000000   6.0000000   6.0000000   6.0000000   6.0000000   6.0000000   6.0000000

  Atom        21          22          23          24          25          26          27          28          29          30
 IAtWgt=          12          12          12          12          12          12          12          12          12          12
 AtmWgt=  12.0000000  12.0000000  12.0000000  12.0000000  12.0000000  12.0000000  12.0000000  12.0000000  12.0000000  12.0000000
 NucSpn=           0           0           0           0           0           0           0           0           0           0
 AtZEff=  -0.0000000  -0.0000000  -0.0000000  -0.0000000  -0.0000000  -0.0000000  -0.0000000  -0.0000000  -0.0000000  -0.0000000
 NQMom=    0.0000000   0.0000000   0.0000000   0.0000000   0.0000000   0.0000000   0.0000000   0.0000000   0.0000000   0.0000000
 NMagM=    0.0000000   0.0000000   0.0000000   0.0000000   0.0000000   0.0000000   0.0000000   0.0000000   0.0000000   0.0000000
 AtZNuc=   6.0000000   6.0000000   6.0000000   6.0000000   6.0000000   6.0000000   6.0000000   6.0000000   6.0000000   6.0000000

  Atom        31          32          33          34          35          36          37          38          39          40
 IAtWgt=          12          12          12          12          12          12          12          12          12          12
 AtmWgt=  12.0000000  12.0000000  12.0000000  12.0000000  12.0000000  12.0000000  12.0000000  12.0000000  12.0000000  12.0000000
 NucSpn=           0           0           0           0           0           0           0           0           0           0
 AtZEff=  -0.0000000  -0.0000000  -0.0000000  -0.0000000  -0.0000000  -0.0000000  -0.0000000  -0.0000000  -0.0000000  -0.0000000
 NQMom=    0.0000000   0.0000000   0.0000000   0.0000000   0.0000000   0.0000000   0.0000000   0.0000000   0.0000000   0.0000000
 NMagM=    0.0000000   0.0000000   0.0000000   0.0000000   0.0000000   0.0000000   0.0000000   0.0000000   0.0000000   0.0000000
 AtZNuc=   6.0000000   6.0000000   6.0000000   6.0000000   6.0000000   6.0000000   6.0000000   6.0000000   6.0000000   6.0000000

  Atom        41          42          43          44          45          46          47          48          49          50
 IAtWgt=          12          12          12          12          12          12          12          12          12          12
 AtmWgt=  12.0000000  12.0000000  12.0000000  12.0000000  12.0000000  12.0000000  12.0000000  12.0000000  12.0000000  12.0000000
 NucSpn=           0           0           0           0           0           0           0           0           0           0
 AtZEff=  -0.0000000  -0.0000000  -0.0000000  -0.0000000  -0.0000000  -0.0000000  -0.0000000  -0.0000000  -0.0000000  -0.0000000
 NQMom=    0.0000000   0.0000000   0.0000000   0.0000000   0.0000000   0.0000000   0.0000000   0.0000000   0.0000000   0.0000000
 NMagM=    0.0000000   0.0000000   0.0000000   0.0000000   0.0000000   0.0000000   0.0000000   0.0000000   0.0000000   0.0000000
 AtZNuc=   6.0000000   6.0000000   6.0000000   6.0000000   6.0000000   6.0000000   6.0000000   6.0000000   6.0000000   6.0000000

  Atom        51          52          53          54          55          56          57          58          59          60
 IAtWgt=          12          12          12          12          12          12          12          12          12          12
 AtmWgt=  12.0000000  12.0000000  12.0000000  12.0000000  12.0000000  12.0000000  12.0000000  12.0000000  12.0000000  12.0000000
 NucSpn=           0           0           0           0           0           0           0           0           0           0
 AtZEff=  -0.0000000  -0.0000000  -0.0000000  -0.0000000  -0.0000000  -0.0000000  -0.0000000  -0.0000000  -0.0000000  -0.0000000
 NQMom=    0.0000000   0.0000000   0.0000000   0.0000000   0.0000000   0.0000000   0.0000000   0.0000000   0.0000000   0.0000000
 NMagM=    0.0000000   0.0000000   0.0000000   0.0000000   0.0000000   0.0000000   0.0000000   0.0000000   0.0000000   0.0000000
 AtZNuc=   6.0000000   6.0000000   6.0000000   6.0000000   6.0000000   6.0000000   6.0000000   6.0000000   6.0000000   6.0000000

  Atom        61          62          63          64          65          66          67          68          69          70
 IAtWgt=          12          12          12          12          12          12          12          12          12          12
 AtmWgt=  12.0000000  12.0000000  12.0000000  12.0000000  12.0000000  12.0000000  12.0000000  12.0000000  12.0000000  12.0000000
 NucSpn=           0           0           0           0           0           0           0           0           0           0
 AtZEff=  -0.0000000  -0.0000000  -0.0000000  -0.0000000  -0.0000000  -0.0000000  -0.0000000  -0.0000000  -0.0000000  -0.0000000
 NQMom=    0.0000000   0.0000000   0.0000000   0.0000000   0.0000000   0.0000000   0.0000000   0.0000000   0.0000000   0.0000000
 NMagM=    0.0000000   0.0000000   0.0000000   0.0000000   0.0000000   0.0000000   0.0000000   0.0000000   0.0000000   0.0000000
 AtZNuc=   6.0000000   6.0000000   6.0000000   6.0000000   6.0000000   6.0000000   6.0000000   6.0000000   6.0000000   6.0000000

  Atom        71          72          73          74          75          76          77          78          79          80
 IAtWgt=          12          12          12          12          12          12          12          12          12          12
 AtmWgt=  12.0000000  12.0000000  12.0000000  12.0000000  12.0000000  12.0000000  12.0000000  12.0000000  12.0000000  12.0000000
 NucSpn=           0           0           0           0           0           0           0           0           0           0
 AtZEff=  -0.0000000  -0.0000000  -0.0000000  -0.0000000  -0.0000000  -0.0000000  -0.0000000  -0.0000000  -0.0000000  -0.0000000
 NQMom=    0.0000000   0.0000000   0.0000000   0.0000000   0.0000000   0.0000000   0.0000000   0.0000000   0.0000000   0.0000000
 NMagM=    0.0000000   0.0000000   0.0000000   0.0000000   0.0000000   0.0000000   0.0000000   0.0000000   0.0000000   0.0000000
 AtZNuc=   6.0000000   6.0000000   6.0000000   6.0000000   6.0000000   6.0000000   6.0000000   6.0000000   6.0000000   6.0000000

  Atom        81          82          83          84          85          86
 IAtWgt=          12          12          12          12          35          35
 AtmWgt=  12.0000000  12.0000000  12.0000000  12.0000000  34.9688527  34.9688527
 NucSpn=           0           0           0           0           3           3
 AtZEff=  -0.0000000  -0.0000000  -0.0000000  -0.0000000  -0.0000000  -0.0000000
 NQMom=    0.0000000   0.0000000   0.0000000   0.0000000  -8.1650000  -8.1650000
 NMagM=    0.0000000   0.0000000   0.0000000   0.0000000   0.8218740   0.8218740
 AtZNuc=   6.0000000   6.0000000   6.0000000   6.0000000  17.0000000  17.0000000
 Leave Link  101 at Sun Jun 26 15:24:46 2022, MaxMem=  1342177280 cpu:               6.5 elap:               0.3
 (Enter /home/mkliu/g16/l103.exe)

 GradGradGradGradGradGradGradGradGradGradGradGradGradGradGradGradGradGrad
 Berny optimization.
 Initialization pass.
                           ----------------------------
                           !    Initial Parameters    !
                           ! (Angstroms and Degrees)  !
 --------------------------                            --------------------------
 ! Name  Definition              Value          Derivative Info.                !
 --------------------------------------------------------------------------------
 ! R1    R(1,5)                  1.4095         estimate D2E/DX2                !
 ! R2    R(1,17)                 1.4212         estimate D2E/DX2                !
 ! R3    R(1,23)                 1.4306         estimate D2E/DX2                !
 ! R4    R(2,6)                  1.4294         estimate D2E/DX2                !
 ! R5    R(2,43)                 1.4272         estimate D2E/DX2                !
 ! R6    R(2,44)                 1.4163         estimate D2E/DX2                !
 ! R7    R(3,7)                  1.4192         estimate D2E/DX2                !
 ! R8    R(3,18)                 1.4105         estimate D2E/DX2                !
 ! R9    R(3,26)                 1.4422         estimate D2E/DX2                !
 ! R10   R(4,8)                  1.4359         estimate D2E/DX2                !
 ! R11   R(4,45)                 1.4164         estimate D2E/DX2                !
 ! R12   R(4,46)                 1.4178         estimate D2E/DX2                !
 ! R13   R(5,9)                  1.4491         estimate D2E/DX2                !
 ! R14   R(5,29)                 1.4335         estimate D2E/DX2                !
 ! R15   R(6,10)                 1.3814         estimate D2E/DX2                !
 ! R16   R(6,15)                 1.4282         estimate D2E/DX2                !
 ! R17   R(7,12)                 1.4131         estimate D2E/DX2                !
 ! R18   R(7,30)                 1.4405         estimate D2E/DX2                !
 ! R19   R(8,11)                 1.3662         estimate D2E/DX2                !
 ! R20   R(8,16)                 1.439          estimate D2E/DX2                !
 ! R21   R(9,13)                 1.3989         estimate D2E/DX2                !
 ! R22   R(9,35)                 1.4531         estimate D2E/DX2                !
 ! R23   R(10,49)                1.4341         estimate D2E/DX2                !
 ! R24   R(10,53)                1.4381         estimate D2E/DX2                !
 ! R25   R(11,50)                1.4393         estimate D2E/DX2                !
 ! R26   R(11,54)                1.4476         estimate D2E/DX2                !
 ! R27   R(12,14)                1.4064         estimate D2E/DX2                !
 ! R28   R(12,36)                1.4529         estimate D2E/DX2                !
 ! R29   R(13,15)                1.4304         estimate D2E/DX2                !
 ! R30   R(13,43)                1.4362         estimate D2E/DX2                !
 ! R31   R(14,16)                1.4161         estimate D2E/DX2                !
 ! R32   R(14,46)                1.4443         estimate D2E/DX2                !
 ! R33   R(15,17)                1.3855         estimate D2E/DX2                !
 ! R34   R(16,18)                1.4122         estimate D2E/DX2                !
 ! R35   R(17,19)                1.427          estimate D2E/DX2                !
 ! R36   R(18,20)                1.4508         estimate D2E/DX2                !
 ! R37   R(19,21)                1.5011         estimate D2E/DX2                !
 ! R38   R(19,53)                1.3666         estimate D2E/DX2                !
 ! R39   R(20,22)                1.4131         estimate D2E/DX2                !
 ! R40   R(20,54)                1.4097         estimate D2E/DX2                !
 ! R41   R(21,23)                1.5047         estimate D2E/DX2                !
 ! R42   R(21,57)                1.5215         estimate D2E/DX2                !
 ! R43   R(21,86)                1.8207         estimate D2E/DX2                !
 ! R44   R(22,24)                1.4406         estimate D2E/DX2                !
 ! R45   R(22,58)                1.4139         estimate D2E/DX2                !
 ! R46   R(23,25)                1.3543         estimate D2E/DX2                !
 ! R47   R(24,26)                1.3683         estimate D2E/DX2                !
 ! R48   R(24,62)                1.4316         estimate D2E/DX2                !
 ! R49   R(25,27)                1.4163         estimate D2E/DX2                !
 ! R50   R(25,61)                1.4953         estimate D2E/DX2                !
 ! R51   R(26,28)                1.4429         estimate D2E/DX2                !
 ! R52   R(27,29)                1.4134         estimate D2E/DX2                !
 ! R53   R(27,65)                1.4241         estimate D2E/DX2                !
 ! R54   R(28,30)                1.4195         estimate D2E/DX2                !
 ! R55   R(28,66)                1.406          estimate D2E/DX2                !
 ! R56   R(29,31)                1.398          estimate D2E/DX2                !
 ! R57   R(30,32)                1.3704         estimate D2E/DX2                !
 ! R58   R(31,33)                1.4395         estimate D2E/DX2                !
 ! R59   R(31,69)                1.4246         estimate D2E/DX2                !
 ! R60   R(32,34)                1.441          estimate D2E/DX2                !
 ! R61   R(32,70)                1.4279         estimate D2E/DX2                !
 ! R62   R(33,35)                1.4024         estimate D2E/DX2                !
 ! R63   R(33,73)                1.4261         estimate D2E/DX2                !
 ! R64   R(34,36)                1.4065         estimate D2E/DX2                !
 ! R65   R(34,74)                1.4262         estimate D2E/DX2                !
 ! R66   R(35,37)                1.4488         estimate D2E/DX2                !
 ! R67   R(36,38)                1.4495         estimate D2E/DX2                !
 ! R68   R(37,39)                1.4453         estimate D2E/DX2                !
 ! R69   R(37,77)                1.4103         estimate D2E/DX2                !
 ! R70   R(38,42)                1.4515         estimate D2E/DX2                !
 ! R71   R(38,78)                1.4081         estimate D2E/DX2                !
 ! R72   R(39,43)                1.3998         estimate D2E/DX2                !
 ! R73   R(39,79)                1.4119         estimate D2E/DX2                !
 ! R74   R(40,41)                1.4394         estimate D2E/DX2                !
 ! R75   R(40,44)                1.4029         estimate D2E/DX2                !
 ! R76   R(40,79)                1.4209         estimate D2E/DX2                !
 ! R77   R(41,45)                1.4046         estimate D2E/DX2                !
 ! R78   R(41,80)                1.4191         estimate D2E/DX2                !
 ! R79   R(42,46)                1.4021         estimate D2E/DX2                !
 ! R80   R(42,80)                1.414          estimate D2E/DX2                !
 ! R81   R(44,47)                1.4516         estimate D2E/DX2                !
 ! R82   R(45,48)                1.4461         estimate D2E/DX2                !
 ! R83   R(47,48)                1.4501         estimate D2E/DX2                !
 ! R84   R(47,49)                1.4086         estimate D2E/DX2                !
 ! R85   R(48,50)                1.4096         estimate D2E/DX2                !
 ! R86   R(49,51)                1.4322         estimate D2E/DX2                !
 ! R87   R(50,52)                1.419          estimate D2E/DX2                !
 ! R88   R(51,52)                1.375          estimate D2E/DX2                !
 ! R89   R(51,55)                1.4309         estimate D2E/DX2                !
 ! R90   R(52,56)                1.4369         estimate D2E/DX2                !
 ! R91   R(53,55)                1.4487         estimate D2E/DX2                !
 ! R92   R(54,56)                1.4181         estimate D2E/DX2                !
 ! R93   R(55,83)                1.4019         estimate D2E/DX2                !
 ! R94   R(56,84)                1.413          estimate D2E/DX2                !
 ! R95   R(57,59)                1.3861         estimate D2E/DX2                !
 ! R96   R(57,83)                1.4478         estimate D2E/DX2                !
 ! R97   R(58,60)                1.4394         estimate D2E/DX2                !
 ! R98   R(58,84)                1.4013         estimate D2E/DX2                !
 ! R99   R(59,60)                1.4077         estimate D2E/DX2                !
 ! R100  R(59,61)                1.5107         estimate D2E/DX2                !
 ! R101  R(60,62)                1.4108         estimate D2E/DX2                !
 ! R102  R(61,63)                1.5175         estimate D2E/DX2                !
 ! R103  R(61,85)                1.8132         estimate D2E/DX2                !
 ! R104  R(62,64)                1.4334         estimate D2E/DX2                !
 ! R105  R(63,64)                1.385          estimate D2E/DX2                !
 ! R106  R(63,65)                1.413          estimate D2E/DX2                !
 ! R107  R(64,66)                1.4524         estimate D2E/DX2                !
 ! R108  R(65,67)                1.4105         estimate D2E/DX2                !
 ! R109  R(66,68)                1.4472         estimate D2E/DX2                !
 ! R110  R(67,68)                1.4416         estimate D2E/DX2                !
 ! R111  R(67,69)                1.4143         estimate D2E/DX2                !
 ! R112  R(68,70)                1.413          estimate D2E/DX2                !
 ! R113  R(69,71)                1.4292         estimate D2E/DX2                !
 ! R114  R(70,72)                1.4351         estimate D2E/DX2                !
 ! R115  R(71,72)                1.378          estimate D2E/DX2                !
 ! R116  R(71,73)                1.4399         estimate D2E/DX2                !
 ! R117  R(72,74)                1.4442         estimate D2E/DX2                !
 ! R118  R(73,75)                1.381          estimate D2E/DX2                !
 ! R119  R(74,76)                1.3806         estimate D2E/DX2                !
 ! R120  R(75,76)                1.4444         estimate D2E/DX2                !
 ! R121  R(75,77)                1.4222         estimate D2E/DX2                !
 ! R122  R(76,78)                1.4256         estimate D2E/DX2                !
 ! R123  R(77,81)                1.4415         estimate D2E/DX2                !
 ! R124  R(78,81)                1.4431         estimate D2E/DX2                !
 ! R125  R(79,82)                1.4286         estimate D2E/DX2                !
 ! R126  R(80,82)                1.432          estimate D2E/DX2                !
 ! R127  R(81,82)                1.3665         estimate D2E/DX2                !
 ! R128  R(83,84)                1.4479         estimate D2E/DX2                !
 ! A1    A(5,1,17)             121.7942         estimate D2E/DX2                !
 ! A2    A(5,1,23)             122.7742         estimate D2E/DX2                !
 ! A3    A(17,1,23)            107.4897         estimate D2E/DX2                !
 ! A4    A(6,2,43)             107.3191         estimate D2E/DX2                !
 ! A5    A(6,2,44)             121.0115         estimate D2E/DX2                !
 ! A6    A(43,2,44)            121.4422         estimate D2E/DX2                !
 ! A7    A(7,3,18)             121.9927         estimate D2E/DX2                !
 ! A8    A(7,3,26)             107.2119         estimate D2E/DX2                !
 ! A9    A(18,3,26)            120.9939         estimate D2E/DX2                !
 ! A10   A(8,4,45)             120.922          estimate D2E/DX2                !
 ! A11   A(8,4,46)             106.7772         estimate D2E/DX2                !
 ! A12   A(45,4,46)            122.3092         estimate D2E/DX2                !
 ! A13   A(1,5,9)              119.2084         estimate D2E/DX2                !
 ! A14   A(1,5,29)             115.9888         estimate D2E/DX2                !
 ! A15   A(9,5,29)             119.3966         estimate D2E/DX2                !
 ! A16   A(2,6,10)             119.3385         estimate D2E/DX2                !
 ! A17   A(2,6,15)             108.4038         estimate D2E/DX2                !
 ! A18   A(10,6,15)            119.6129         estimate D2E/DX2                !
 ! A19   A(3,7,12)             122.5824         estimate D2E/DX2                !
 ! A20   A(3,7,30)             107.407          estimate D2E/DX2                !
 ! A21   A(12,7,30)            119.967          estimate D2E/DX2                !
 ! A22   A(4,8,11)             119.2818         estimate D2E/DX2                !
 ! A23   A(4,8,16)             109.3628         estimate D2E/DX2                !
 ! A24   A(11,8,16)            120.7432         estimate D2E/DX2                !
 ! A25   A(5,9,13)             117.7729         estimate D2E/DX2                !
 ! A26   A(5,9,35)             120.5195         estimate D2E/DX2                !
 ! A27   A(13,9,35)            117.4883         estimate D2E/DX2                !
 ! A28   A(6,10,49)            120.0334         estimate D2E/DX2                !
 ! A29   A(6,10,53)            119.9299         estimate D2E/DX2                !
 ! A30   A(49,10,53)           108.7167         estimate D2E/DX2                !
 ! A31   A(8,11,50)            120.2069         estimate D2E/DX2                !
 ! A32   A(8,11,54)            119.6193         estimate D2E/DX2                !
 ! A33   A(50,11,54)           109.3932         estimate D2E/DX2                !
 ! A34   A(7,12,14)            114.6191         estimate D2E/DX2                !
 ! A35   A(7,12,36)            120.5227         estimate D2E/DX2                !
 ! A36   A(14,12,36)           119.4329         estimate D2E/DX2                !
 ! A37   A(9,13,15)            122.2364         estimate D2E/DX2                !
 ! A38   A(9,13,43)            121.2379         estimate D2E/DX2                !
 ! A39   A(15,13,43)           107.1251         estimate D2E/DX2                !
 ! A40   A(12,14,16)           122.547          estimate D2E/DX2                !
 ! A41   A(12,14,46)           120.693          estimate D2E/DX2                !
 ! A42   A(16,14,46)           108.6442         estimate D2E/DX2                !
 ! A43   A(6,15,13)            108.1635         estimate D2E/DX2                !
 ! A44   A(6,15,17)            119.5735         estimate D2E/DX2                !
 ! A45   A(13,15,17)           119.8403         estimate D2E/DX2                !
 ! A46   A(8,16,14)            106.6664         estimate D2E/DX2                !
 ! A47   A(8,16,18)            120.7957         estimate D2E/DX2                !
 ! A48   A(14,16,18)           122.2842         estimate D2E/DX2                !
 ! A49   A(1,17,15)            119.1177         estimate D2E/DX2                !
 ! A50   A(1,17,19)            108.9956         estimate D2E/DX2                !
 ! A51   A(15,17,19)           121.0192         estimate D2E/DX2                !
 ! A52   A(3,18,16)            114.8889         estimate D2E/DX2                !
 ! A53   A(3,18,20)            119.0459         estimate D2E/DX2                !
 ! A54   A(16,18,20)           118.7234         estimate D2E/DX2                !
 ! A55   A(17,19,21)           110.5631         estimate D2E/DX2                !
 ! A56   A(17,19,53)           119.0151         estimate D2E/DX2                !
 ! A57   A(21,19,53)           121.6035         estimate D2E/DX2                !
 ! A58   A(18,20,22)           118.5312         estimate D2E/DX2                !
 ! A59   A(18,20,54)           119.1929         estimate D2E/DX2                !
 ! A60   A(22,20,54)           114.9311         estimate D2E/DX2                !
 ! A61   A(19,21,23)           101.0461         estimate D2E/DX2                !
 ! A62   A(19,21,57)           113.1154         estimate D2E/DX2                !
 ! A63   A(19,21,86)           111.6726         estimate D2E/DX2                !
 ! A64   A(23,21,57)           110.2875         estimate D2E/DX2                !
 ! A65   A(23,21,86)           112.8029         estimate D2E/DX2                !
 ! A66   A(57,21,86)           107.9096         estimate D2E/DX2                !
 ! A67   A(20,22,24)           121.3292         estimate D2E/DX2                !
 ! A68   A(20,22,58)           121.8136         estimate D2E/DX2                !
 ! A69   A(24,22,58)           106.1579         estimate D2E/DX2                !
 ! A70   A(1,23,21)            111.3747         estimate D2E/DX2                !
 ! A71   A(1,23,25)            119.8316         estimate D2E/DX2                !
 ! A72   A(21,23,25)           122.2549         estimate D2E/DX2                !
 ! A73   A(22,24,26)           119.9231         estimate D2E/DX2                !
 ! A74   A(22,24,62)           109.714          estimate D2E/DX2                !
 ! A75   A(26,24,62)           119.6756         estimate D2E/DX2                !
 ! A76   A(23,25,27)           119.3599         estimate D2E/DX2                !
 ! A77   A(23,25,61)           122.7713         estimate D2E/DX2                !
 ! A78   A(27,25,61)           110.7985         estimate D2E/DX2                !
 ! A79   A(3,26,24)            120.1327         estimate D2E/DX2                !
 ! A80   A(3,26,28)            109.3702         estimate D2E/DX2                !
 ! A81   A(24,26,28)           120.0987         estimate D2E/DX2                !
 ! A82   A(25,27,29)           121.5816         estimate D2E/DX2                !
 ! A83   A(25,27,65)           108.4372         estimate D2E/DX2                !
 ! A84   A(29,27,65)           121.3356         estimate D2E/DX2                !
 ! A85   A(26,28,30)           105.4613         estimate D2E/DX2                !
 ! A86   A(26,28,66)           122.328          estimate D2E/DX2                !
 ! A87   A(30,28,66)           121.6675         estimate D2E/DX2                !
 ! A88   A(5,29,27)            119.8302         estimate D2E/DX2                !
 ! A89   A(5,29,31)            119.1606         estimate D2E/DX2                !
 ! A90   A(27,29,31)           115.7698         estimate D2E/DX2                !
 ! A91   A(7,30,28)            109.8907         estimate D2E/DX2                !
 ! A92   A(7,30,32)            119.6248         estimate D2E/DX2                !
 ! A93   A(28,30,32)           120.312          estimate D2E/DX2                !
 ! A94   A(29,31,33)           120.9448         estimate D2E/DX2                !
 ! A95   A(29,31,69)           121.9723         estimate D2E/DX2                !
 ! A96   A(33,31,69)           108.998          estimate D2E/DX2                !
 ! A97   A(30,32,34)           120.5282         estimate D2E/DX2                !
 ! A98   A(30,32,70)           119.1935         estimate D2E/DX2                !
 ! A99   A(34,32,70)           110.0743         estimate D2E/DX2                !
 ! A100  A(31,33,35)           121.275          estimate D2E/DX2                !
 ! A101  A(31,33,73)           106.9957         estimate D2E/DX2                !
 ! A102  A(35,33,73)           122.5478         estimate D2E/DX2                !
 ! A103  A(32,34,36)           121.1976         estimate D2E/DX2                !
 ! A104  A(32,34,74)           105.9561         estimate D2E/DX2                !
 ! A105  A(36,34,74)           122.4226         estimate D2E/DX2                !
 ! A106  A(9,35,33)            117.2563         estimate D2E/DX2                !
 ! A107  A(9,35,37)            120.6172         estimate D2E/DX2                !
 ! A108  A(33,35,37)           117.9878         estimate D2E/DX2                !
 ! A109  A(12,36,34)           117.1403         estimate D2E/DX2                !
 ! A110  A(12,36,38)           119.6792         estimate D2E/DX2                !
 ! A111  A(34,36,38)           118.1858         estimate D2E/DX2                !
 ! A112  A(35,37,39)           119.0934         estimate D2E/DX2                !
 ! A113  A(35,37,77)           118.4612         estimate D2E/DX2                !
 ! A114  A(39,37,77)           116.9102         estimate D2E/DX2                !
 ! A115  A(36,38,42)           119.4707         estimate D2E/DX2                !
 ! A116  A(36,38,78)           118.1847         estimate D2E/DX2                !
 ! A117  A(42,38,78)           117.1663         estimate D2E/DX2                !
 ! A118  A(37,39,43)           118.8703         estimate D2E/DX2                !
 ! A119  A(37,39,79)           120.3777         estimate D2E/DX2                !
 ! A120  A(43,39,79)           115.1448         estimate D2E/DX2                !
 ! A121  A(41,40,44)           121.3775         estimate D2E/DX2                !
 ! A122  A(41,40,79)           108.2102         estimate D2E/DX2                !
 ! A123  A(44,40,79)           122.0895         estimate D2E/DX2                !
 ! A124  A(40,41,45)           120.8156         estimate D2E/DX2                !
 ! A125  A(40,41,80)           108.5466         estimate D2E/DX2                !
 ! A126  A(45,41,80)           122.1648         estimate D2E/DX2                !
 ! A127  A(38,42,46)           119.6264         estimate D2E/DX2                !
 ! A128  A(38,42,80)           120.194          estimate D2E/DX2                !
 ! A129  A(46,42,80)           114.5331         estimate D2E/DX2                !
 ! A130  A(2,43,13)            108.6124         estimate D2E/DX2                !
 ! A131  A(2,43,39)            122.0389         estimate D2E/DX2                !
 ! A132  A(13,43,39)           121.2002         estimate D2E/DX2                !
 ! A133  A(2,44,40)            114.9559         estimate D2E/DX2                !
 ! A134  A(2,44,47)            120.1744         estimate D2E/DX2                !
 ! A135  A(40,44,47)           119.0367         estimate D2E/DX2                !
 ! A136  A(4,45,41)            114.5652         estimate D2E/DX2                !
 ! A137  A(4,45,48)            120.297          estimate D2E/DX2                !
 ! A138  A(41,45,48)           119.1294         estimate D2E/DX2                !
 ! A139  A(4,46,14)            108.4461         estimate D2E/DX2                !
 ! A140  A(4,46,42)            122.3911         estimate D2E/DX2                !
 ! A141  A(14,46,42)           120.9344         estimate D2E/DX2                !
 ! A142  A(44,47,48)           119.4678         estimate D2E/DX2                !
 ! A143  A(44,47,49)           116.7445         estimate D2E/DX2                !
 ! A144  A(48,47,49)           118.6023         estimate D2E/DX2                !
 ! A145  A(45,48,47)           120.096          estimate D2E/DX2                !
 ! A146  A(45,48,50)           116.5492         estimate D2E/DX2                !
 ! A147  A(47,48,50)           118.0584         estimate D2E/DX2                !
 ! A148  A(10,49,47)           122.5183         estimate D2E/DX2                !
 ! A149  A(10,49,51)           106.1738         estimate D2E/DX2                !
 ! A150  A(47,49,51)           121.422          estimate D2E/DX2                !
 ! A151  A(11,50,48)           122.3677         estimate D2E/DX2                !
 ! A152  A(11,50,52)           105.4808         estimate D2E/DX2                !
 ! A153  A(48,50,52)           121.4989         estimate D2E/DX2                !
 ! A154  A(49,51,52)           118.9835         estimate D2E/DX2                !
 ! A155  A(49,51,55)           110.2891         estimate D2E/DX2                !
 ! A156  A(52,51,55)           120.9288         estimate D2E/DX2                !
 ! A157  A(50,52,51)           120.4194         estimate D2E/DX2                !
 ! A158  A(50,52,56)           109.9967         estimate D2E/DX2                !
 ! A159  A(51,52,56)           119.4312         estimate D2E/DX2                !
 ! A160  A(10,53,19)           120.735          estimate D2E/DX2                !
 ! A161  A(10,53,55)           108.1424         estimate D2E/DX2                !
 ! A162  A(19,53,55)           120.2731         estimate D2E/DX2                !
 ! A163  A(11,54,20)           120.8763         estimate D2E/DX2                !
 ! A164  A(11,54,56)           106.9374         estimate D2E/DX2                !
 ! A165  A(20,54,56)           122.126          estimate D2E/DX2                !
 ! A166  A(51,55,53)           105.8648         estimate D2E/DX2                !
 ! A167  A(51,55,83)           120.6559         estimate D2E/DX2                !
 ! A168  A(53,55,83)           121.5071         estimate D2E/DX2                !
 ! A169  A(52,56,54)           107.5893         estimate D2E/DX2                !
 ! A170  A(52,56,84)           119.3809         estimate D2E/DX2                !
 ! A171  A(54,56,84)           122.2124         estimate D2E/DX2                !
 ! A172  A(21,57,59)           119.1489         estimate D2E/DX2                !
 ! A173  A(21,57,83)           119.1168         estimate D2E/DX2                !
 ! A174  A(59,57,83)           120.5142         estimate D2E/DX2                !
 ! A175  A(22,58,60)           108.7739         estimate D2E/DX2                !
 ! A176  A(22,58,84)           122.899          estimate D2E/DX2                !
 ! A177  A(60,58,84)           120.5404         estimate D2E/DX2                !
 ! A178  A(57,59,60)           120.5095         estimate D2E/DX2                !
 ! A179  A(57,59,61)           123.6279         estimate D2E/DX2                !
 ! A180  A(60,59,61)           114.3015         estimate D2E/DX2                !
 ! A181  A(58,60,59)           120.114          estimate D2E/DX2                !
 ! A182  A(58,60,62)           108.783          estimate D2E/DX2                !
 ! A183  A(59,60,62)           123.9651         estimate D2E/DX2                !
 ! A184  A(25,61,59)           110.0263         estimate D2E/DX2                !
 ! A185  A(25,61,63)           101.2713         estimate D2E/DX2                !
 ! A186  A(25,61,85)           112.9977         estimate D2E/DX2                !
 ! A187  A(59,61,63)           112.7008         estimate D2E/DX2                !
 ! A188  A(59,61,85)           108.9382         estimate D2E/DX2                !
 ! A189  A(63,61,85)           110.8072         estimate D2E/DX2                !
 ! A190  A(24,62,60)           106.5532         estimate D2E/DX2                !
 ! A191  A(24,62,64)           120.8569         estimate D2E/DX2                !
 ! A192  A(60,62,64)           121.1199         estimate D2E/DX2                !
 ! A193  A(61,63,64)           123.9838         estimate D2E/DX2                !
 ! A194  A(61,63,65)           109.8194         estimate D2E/DX2                !
 ! A195  A(64,63,65)           120.5049         estimate D2E/DX2                !
 ! A196  A(62,64,63)           115.4492         estimate D2E/DX2                !
 ! A197  A(62,64,66)           119.5467         estimate D2E/DX2                !
 ! A198  A(63,64,66)           119.2222         estimate D2E/DX2                !
 ! A199  A(27,65,63)           108.7919         estimate D2E/DX2                !
 ! A200  A(27,65,67)           121.9259         estimate D2E/DX2                !
 ! A201  A(63,65,67)           122.4089         estimate D2E/DX2                !
 ! A202  A(28,66,64)           117.0651         estimate D2E/DX2                !
 ! A203  A(28,66,68)           117.8789         estimate D2E/DX2                !
 ! A204  A(64,66,68)           120.165          estimate D2E/DX2                !
 ! A205  A(65,67,68)           118.4779         estimate D2E/DX2                !
 ! A206  A(65,67,69)           115.2074         estimate D2E/DX2                !
 ! A207  A(68,67,69)           120.3328         estimate D2E/DX2                !
 ! A208  A(66,68,67)           118.9134         estimate D2E/DX2                !
 ! A209  A(66,68,70)           118.7074         estimate D2E/DX2                !
 ! A210  A(67,68,70)           116.7712         estimate D2E/DX2                !
 ! A211  A(31,69,67)           121.5105         estimate D2E/DX2                !
 ! A212  A(31,69,71)           107.2807         estimate D2E/DX2                !
 ! A213  A(67,69,71)           121.1485         estimate D2E/DX2                !
 ! A214  A(32,70,68)           121.1785         estimate D2E/DX2                !
 ! A215  A(32,70,72)           106.1428         estimate D2E/DX2                !
 ! A216  A(68,70,72)           122.3208         estimate D2E/DX2                !
 ! A217  A(69,71,72)           119.1565         estimate D2E/DX2                !
 ! A218  A(69,71,73)           108.2238         estimate D2E/DX2                !
 ! A219  A(72,71,73)           120.4778         estimate D2E/DX2                !
 ! A220  A(70,72,71)           120.1145         estimate D2E/DX2                !
 ! A221  A(70,72,74)           108.3195         estimate D2E/DX2                !
 ! A222  A(71,72,74)           119.5379         estimate D2E/DX2                !
 ! A223  A(33,73,71)           108.1656         estimate D2E/DX2                !
 ! A224  A(33,73,75)           119.4186         estimate D2E/DX2                !
 ! A225  A(71,73,75)           120.0394         estimate D2E/DX2                !
 ! A226  A(34,74,72)           108.6353         estimate D2E/DX2                !
 ! A227  A(34,74,76)           119.2466         estimate D2E/DX2                !
 ! A228  A(72,74,76)           120.1613         estimate D2E/DX2                !
 ! A229  A(73,75,76)           119.6779         estimate D2E/DX2                !
 ! A230  A(73,75,77)           119.3562         estimate D2E/DX2                !
 ! A231  A(76,75,77)           108.7897         estimate D2E/DX2                !
 ! A232  A(74,76,75)           120.0868         estimate D2E/DX2                !
 ! A233  A(74,76,78)           119.4769         estimate D2E/DX2                !
 ! A234  A(75,76,78)           108.5056         estimate D2E/DX2                !
 ! A235  A(37,77,75)           122.178          estimate D2E/DX2                !
 ! A236  A(37,77,81)           121.1256         estimate D2E/DX2                !
 ! A237  A(75,77,81)           106.2314         estimate D2E/DX2                !
 ! A238  A(38,78,76)           122.2767         estimate D2E/DX2                !
 ! A239  A(38,78,81)           121.3397         estimate D2E/DX2                !
 ! A240  A(76,78,81)           106.1525         estimate D2E/DX2                !
 ! A241  A(39,79,40)           121.7913         estimate D2E/DX2                !
 ! A242  A(39,79,82)           120.2165         estimate D2E/DX2                !
 ! A243  A(40,79,82)           106.9058         estimate D2E/DX2                !
 ! A244  A(41,80,42)           122.4551         estimate D2E/DX2                !
 ! A245  A(41,80,82)           106.7002         estimate D2E/DX2                !
 ! A246  A(42,80,82)           120.3312         estimate D2E/DX2                !
 ! A247  A(77,81,78)           109.4568         estimate D2E/DX2                !
 ! A248  A(77,81,82)           120.1151         estimate D2E/DX2                !
 ! A249  A(78,81,82)           120.1393         estimate D2E/DX2                !
 ! A250  A(79,82,80)           109.4113         estimate D2E/DX2                !
 ! A251  A(79,82,81)           120.023          estimate D2E/DX2                !
 ! A252  A(80,82,81)           120.0361         estimate D2E/DX2                !
 ! A253  A(55,83,57)           119.3329         estimate D2E/DX2                !
 ! A254  A(55,83,84)           117.1773         estimate D2E/DX2                !
 ! A255  A(57,83,84)           119.1528         estimate D2E/DX2                !
 ! A256  A(56,84,58)           114.7176         estimate D2E/DX2                !
 ! A257  A(56,84,83)           120.8677         estimate D2E/DX2                !
 ! A258  A(58,84,83)           119.0459         estimate D2E/DX2                !
 ! D1    D(17,1,5,9)            -0.535          estimate D2E/DX2                !
 ! D2    D(17,1,5,29)         -154.4525         estimate D2E/DX2                !
 ! D3    D(23,1,5,9)           144.5128         estimate D2E/DX2                !
 ! D4    D(23,1,5,29)           -9.4047         estimate D2E/DX2                !
 ! D5    D(5,1,17,15)           -1.0528         estimate D2E/DX2                !
 ! D6    D(5,1,17,19)          143.5927         estimate D2E/DX2                !
 ! D7    D(23,1,17,15)        -150.7186         estimate D2E/DX2                !
 ! D8    D(23,1,17,19)          -6.0732         estimate D2E/DX2                !
 ! D9    D(5,1,23,21)         -147.1122         estimate D2E/DX2                !
 ! D10   D(5,1,23,25)            5.1496         estimate D2E/DX2                !
 ! D11   D(17,1,23,21)           2.1887         estimate D2E/DX2                !
 ! D12   D(17,1,23,25)         154.4505         estimate D2E/DX2                !
 ! D13   D(43,2,6,10)         -144.6557         estimate D2E/DX2                !
 ! D14   D(43,2,6,15)           -2.9899         estimate D2E/DX2                !
 ! D15   D(44,2,6,10)            0.9318         estimate D2E/DX2                !
 ! D16   D(44,2,6,15)          142.5976         estimate D2E/DX2                !
 ! D17   D(6,2,43,13)            5.7362         estimate D2E/DX2                !
 ! D18   D(6,2,43,39)          154.5616         estimate D2E/DX2                !
 ! D19   D(44,2,43,13)        -139.6718         estimate D2E/DX2                !
 ! D20   D(44,2,43,39)           9.1536         estimate D2E/DX2                !
 ! D21   D(6,2,44,40)         -155.918          estimate D2E/DX2                !
 ! D22   D(6,2,44,47)           -3.065          estimate D2E/DX2                !
 ! D23   D(43,2,44,40)         -15.1438         estimate D2E/DX2                !
 ! D24   D(43,2,44,47)         137.7092         estimate D2E/DX2                !
 ! D25   D(18,3,7,12)            3.6859         estimate D2E/DX2                !
 ! D26   D(18,3,7,30)          148.9325         estimate D2E/DX2                !
 ! D27   D(26,3,7,12)         -142.3253         estimate D2E/DX2                !
 ! D28   D(26,3,7,30)            2.9213         estimate D2E/DX2                !
 ! D29   D(7,3,18,16)            5.969          estimate D2E/DX2                !
 ! D30   D(7,3,18,20)         -143.7609         estimate D2E/DX2                !
 ! D31   D(26,3,18,16)         147.4381         estimate D2E/DX2                !
 ! D32   D(26,3,18,20)          -2.2918         estimate D2E/DX2                !
 ! D33   D(7,3,26,24)          147.1933         estimate D2E/DX2                !
 ! D34   D(7,3,26,28)            2.2378         estimate D2E/DX2                !
 ! D35   D(18,3,26,24)           0.7727         estimate D2E/DX2                !
 ! D36   D(18,3,26,28)        -144.1828         estimate D2E/DX2                !
 ! D37   D(45,4,8,11)            2.0232         estimate D2E/DX2                !
 ! D38   D(45,4,8,16)         -142.8896         estimate D2E/DX2                !
 ! D39   D(46,4,8,11)          148.2591         estimate D2E/DX2                !
 ! D40   D(46,4,8,16)            3.3463         estimate D2E/DX2                !
 ! D41   D(8,4,45,41)          152.4505         estimate D2E/DX2                !
 ! D42   D(8,4,45,48)           -0.0442         estimate D2E/DX2                !
 ! D43   D(46,4,45,41)          11.4708         estimate D2E/DX2                !
 ! D44   D(46,4,45,48)        -141.024          estimate D2E/DX2                !
 ! D45   D(8,4,46,14)           -2.7364         estimate D2E/DX2                !
 ! D46   D(8,4,46,42)         -151.3144         estimate D2E/DX2                !
 ! D47   D(45,4,46,14)         142.9223         estimate D2E/DX2                !
 ! D48   D(45,4,46,42)          -5.6556         estimate D2E/DX2                !
 ! D49   D(1,5,9,13)             1.6009         estimate D2E/DX2                !
 ! D50   D(1,5,9,35)          -154.749          estimate D2E/DX2                !
 ! D51   D(29,5,9,13)          154.6252         estimate D2E/DX2                !
 ! D52   D(29,5,9,35)           -1.7247         estimate D2E/DX2                !
 ! D53   D(1,5,29,27)            8.327          estimate D2E/DX2                !
 ! D54   D(1,5,29,31)          161.6873         estimate D2E/DX2                !
 ! D55   D(9,5,29,27)         -145.5387         estimate D2E/DX2                !
 ! D56   D(9,5,29,31)            7.8216         estimate D2E/DX2                !
 ! D57   D(2,6,10,49)           -0.6664         estimate D2E/DX2                !
 ! D58   D(2,6,10,53)          138.8449         estimate D2E/DX2                !
 ! D59   D(15,6,10,49)        -138.0612         estimate D2E/DX2                !
 ! D60   D(15,6,10,53)           1.4502         estimate D2E/DX2                !
 ! D61   D(2,6,15,13)           -0.8826         estimate D2E/DX2                !
 ! D62   D(2,6,15,17)         -142.909          estimate D2E/DX2                !
 ! D63   D(10,6,15,13)         140.6603         estimate D2E/DX2                !
 ! D64   D(10,6,15,17)          -1.3661         estimate D2E/DX2                !
 ! D65   D(3,7,12,14)           -9.1974         estimate D2E/DX2                !
 ! D66   D(3,7,12,36)          144.655          estimate D2E/DX2                !
 ! D67   D(30,7,12,14)        -150.3036         estimate D2E/DX2                !
 ! D68   D(30,7,12,36)           3.5488         estimate D2E/DX2                !
 ! D69   D(3,7,30,28)           -7.1913         estimate D2E/DX2                !
 ! D70   D(3,7,30,32)         -152.596          estimate D2E/DX2                !
 ! D71   D(12,7,30,28)         139.1355         estimate D2E/DX2                !
 ! D72   D(12,7,30,32)          -6.2691         estimate D2E/DX2                !
 ! D73   D(4,8,11,50)            0.7477         estimate D2E/DX2                !
 ! D74   D(4,8,11,54)         -139.8723         estimate D2E/DX2                !
 ! D75   D(16,8,11,50)         141.625          estimate D2E/DX2                !
 ! D76   D(16,8,11,54)           1.0049         estimate D2E/DX2                !
 ! D77   D(4,8,16,14)           -2.642          estimate D2E/DX2                !
 ! D78   D(4,8,16,18)          143.2002         estimate D2E/DX2                !
 ! D79   D(11,8,16,14)        -146.9552         estimate D2E/DX2                !
 ! D80   D(11,8,16,18)          -1.113          estimate D2E/DX2                !
 ! D81   D(5,9,13,15)           -1.1543         estimate D2E/DX2                !
 ! D82   D(5,9,13,43)         -143.3058         estimate D2E/DX2                !
 ! D83   D(35,9,13,15)         155.9191         estimate D2E/DX2                !
 ! D84   D(35,9,13,43)          13.7676         estimate D2E/DX2                !
 ! D85   D(5,9,35,33)           -8.8024         estimate D2E/DX2                !
 ! D86   D(5,9,35,37)          147.8759         estimate D2E/DX2                !
 ! D87   D(13,9,35,33)        -165.2174         estimate D2E/DX2                !
 ! D88   D(13,9,35,37)          -8.5391         estimate D2E/DX2                !
 ! D89   D(6,10,49,47)           2.6859         estimate D2E/DX2                !
 ! D90   D(6,10,49,51)         148.6461         estimate D2E/DX2                !
 ! D91   D(53,10,49,47)       -140.8639         estimate D2E/DX2                !
 ! D92   D(53,10,49,51)          5.0963         estimate D2E/DX2                !
 ! D93   D(6,10,53,19)           1.0671         estimate D2E/DX2                !
 ! D94   D(6,10,53,55)        -143.2259         estimate D2E/DX2                !
 ! D95   D(49,10,53,19)        144.661          estimate D2E/DX2                !
 ! D96   D(49,10,53,55)          0.368          estimate D2E/DX2                !
 ! D97   D(8,11,50,48)          -5.7463         estimate D2E/DX2                !
 ! D98   D(8,11,50,52)        -150.5746         estimate D2E/DX2                !
 ! D99   D(54,11,50,48)        138.4697         estimate D2E/DX2                !
 ! D100  D(54,11,50,52)         -6.3585         estimate D2E/DX2                !
 ! D101  D(8,11,54,20)           0.7587         estimate D2E/DX2                !
 ! D102  D(8,11,54,56)         146.8348         estimate D2E/DX2                !
 ! D103  D(50,11,54,20)       -143.6999         estimate D2E/DX2                !
 ! D104  D(50,11,54,56)          2.3762         estimate D2E/DX2                !
 ! D105  D(7,12,14,16)           5.2868         estimate D2E/DX2                !
 ! D106  D(7,12,14,46)         150.3594         estimate D2E/DX2                !
 ! D107  D(36,12,14,16)       -148.8722         estimate D2E/DX2                !
 ! D108  D(36,12,14,46)         -3.7995         estimate D2E/DX2                !
 ! D109  D(7,12,36,34)           5.0799         estimate D2E/DX2                !
 ! D110  D(7,12,36,38)        -149.4839         estimate D2E/DX2                !
 ! D111  D(14,12,36,34)        157.693          estimate D2E/DX2                !
 ! D112  D(14,12,36,38)          3.1292         estimate D2E/DX2                !
 ! D113  D(9,13,15,6)         -142.3264         estimate D2E/DX2                !
 ! D114  D(9,13,15,17)          -0.4191         estimate D2E/DX2                !
 ! D115  D(43,13,15,6)           4.378          estimate D2E/DX2                !
 ! D116  D(43,13,15,17)        146.2853         estimate D2E/DX2                !
 ! D117  D(9,13,43,2)          140.8348         estimate D2E/DX2                !
 ! D118  D(9,13,43,39)          -8.3012         estimate D2E/DX2                !
 ! D119  D(15,13,43,2)          -6.2721         estimate D2E/DX2                !
 ! D120  D(15,13,43,39)       -155.4081         estimate D2E/DX2                !
 ! D121  D(12,14,16,8)         149.6074         estimate D2E/DX2                !
 ! D122  D(12,14,16,18)          4.3924         estimate D2E/DX2                !
 ! D123  D(46,14,16,8)           0.9129         estimate D2E/DX2                !
 ! D124  D(46,14,16,18)       -144.3021         estimate D2E/DX2                !
 ! D125  D(12,14,46,4)        -148.2281         estimate D2E/DX2                !
 ! D126  D(12,14,46,42)          0.893          estimate D2E/DX2                !
 ! D127  D(16,14,46,4)           1.1514         estimate D2E/DX2                !
 ! D128  D(16,14,46,42)        150.2724         estimate D2E/DX2                !
 ! D129  D(6,15,17,1)          139.1448         estimate D2E/DX2                !
 ! D130  D(6,15,17,19)          -1.181          estimate D2E/DX2                !
 ! D131  D(13,15,17,1)           1.5214         estimate D2E/DX2                !
 ! D132  D(13,15,17,19)       -138.8044         estimate D2E/DX2                !
 ! D133  D(8,16,18,3)         -150.3634         estimate D2E/DX2                !
 ! D134  D(8,16,18,20)          -0.5298         estimate D2E/DX2                !
 ! D135  D(14,16,18,3)          -9.8757         estimate D2E/DX2                !
 ! D136  D(14,16,18,20)        139.9579         estimate D2E/DX2                !
 ! D137  D(1,17,19,21)           7.8107         estimate D2E/DX2                !
 ! D138  D(1,17,19,53)        -140.195          estimate D2E/DX2                !
 ! D139  D(15,17,19,21)        151.6636         estimate D2E/DX2                !
 ! D140  D(15,17,19,53)          3.6578         estimate D2E/DX2                !
 ! D141  D(3,18,20,22)           2.2282         estimate D2E/DX2                !
 ! D142  D(3,18,20,54)         150.8069         estimate D2E/DX2                !
 ! D143  D(16,18,20,22)       -146.3442         estimate D2E/DX2                !
 ! D144  D(16,18,20,54)          2.2345         estimate D2E/DX2                !
 ! D145  D(17,19,21,23)         -6.0196         estimate D2E/DX2                !
 ! D146  D(17,19,21,57)       -123.888          estimate D2E/DX2                !
 ! D147  D(17,19,21,86)        114.1454         estimate D2E/DX2                !
 ! D148  D(53,19,21,23)        141.0229         estimate D2E/DX2                !
 ! D149  D(53,19,21,57)         23.1545         estimate D2E/DX2                !
 ! D150  D(53,19,21,86)        -98.812          estimate D2E/DX2                !
 ! D151  D(17,19,53,10)         -3.567          estimate D2E/DX2                !
 ! D152  D(17,19,53,55)        136.4768         estimate D2E/DX2                !
 ! D153  D(21,19,53,10)       -147.9434         estimate D2E/DX2                !
 ! D154  D(21,19,53,55)         -7.8996         estimate D2E/DX2                !
 ! D155  D(18,20,22,24)         -0.7129         estimate D2E/DX2                !
 ! D156  D(18,20,22,58)        138.8393         estimate D2E/DX2                !
 ! D157  D(54,20,22,24)       -150.5887         estimate D2E/DX2                !
 ! D158  D(54,20,22,58)        -11.0365         estimate D2E/DX2                !
 ! D159  D(18,20,54,11)         -2.379          estimate D2E/DX2                !
 ! D160  D(18,20,54,56)       -143.2985         estimate D2E/DX2                !
 ! D161  D(22,20,54,11)        147.2842         estimate D2E/DX2                !
 ! D162  D(22,20,54,56)          6.3648         estimate D2E/DX2                !
 ! D163  D(19,21,23,1)           2.278          estimate D2E/DX2                !
 ! D164  D(19,21,23,25)       -149.204          estimate D2E/DX2                !
 ! D165  D(57,21,23,1)         122.1863         estimate D2E/DX2                !
 ! D166  D(57,21,23,25)        -29.2957         estimate D2E/DX2                !
 ! D167  D(86,21,23,1)        -117.0789         estimate D2E/DX2                !
 ! D168  D(86,21,23,25)         91.4392         estimate D2E/DX2                !
 ! D169  D(19,21,57,59)        142.6244         estimate D2E/DX2                !
 ! D170  D(19,21,57,83)        -24.8261         estimate D2E/DX2                !
 ! D171  D(23,21,57,59)         30.2973         estimate D2E/DX2                !
 ! D172  D(23,21,57,83)       -137.1532         estimate D2E/DX2                !
 ! D173  D(86,21,57,59)        -93.3241         estimate D2E/DX2                !
 ! D174  D(86,21,57,83)         99.2254         estimate D2E/DX2                !
 ! D175  D(20,22,24,26)         -0.8148         estimate D2E/DX2                !
 ! D176  D(20,22,24,62)        143.5794         estimate D2E/DX2                !
 ! D177  D(58,22,24,26)       -145.7877         estimate D2E/DX2                !
 ! D178  D(58,22,24,62)         -1.3935         estimate D2E/DX2                !
 ! D179  D(20,22,58,60)       -143.7338         estimate D2E/DX2                !
 ! D180  D(20,22,58,84)          5.4827         estimate D2E/DX2                !
 ! D181  D(24,22,58,60)          1.0297         estimate D2E/DX2                !
 ! D182  D(24,22,58,84)        150.2462         estimate D2E/DX2                !
 ! D183  D(1,23,25,27)           0.5066         estimate D2E/DX2                !
 ! D184  D(1,23,25,61)        -147.3447         estimate D2E/DX2                !
 ! D185  D(21,23,25,27)        149.6756         estimate D2E/DX2                !
 ! D186  D(21,23,25,61)          1.8243         estimate D2E/DX2                !
 ! D187  D(22,24,26,3)           0.7977         estimate D2E/DX2                !
 ! D188  D(22,24,26,28)        142.0321         estimate D2E/DX2                !
 ! D189  D(62,24,26,3)        -140.0918         estimate D2E/DX2                !
 ! D190  D(62,24,26,28)          1.1426         estimate D2E/DX2                !
 ! D191  D(22,24,62,60)          1.2112         estimate D2E/DX2                !
 ! D192  D(22,24,62,64)       -142.4629         estimate D2E/DX2                !
 ! D193  D(26,24,62,60)        145.7067         estimate D2E/DX2                !
 ! D194  D(26,24,62,64)          2.0326         estimate D2E/DX2                !
 ! D195  D(23,25,27,29)         -1.3173         estimate D2E/DX2                !
 ! D196  D(23,25,27,65)       -149.3596         estimate D2E/DX2                !
 ! D197  D(61,25,27,29)        150.0878         estimate D2E/DX2                !
 ! D198  D(61,25,27,65)          2.0455         estimate D2E/DX2                !
 ! D199  D(23,25,61,59)         23.9858         estimate D2E/DX2                !
 ! D200  D(23,25,61,63)        143.4235         estimate D2E/DX2                !
 ! D201  D(23,25,61,85)        -98.0169         estimate D2E/DX2                !
 ! D202  D(27,25,61,59)       -126.2719         estimate D2E/DX2                !
 ! D203  D(27,25,61,63)         -6.8342         estimate D2E/DX2                !
 ! D204  D(27,25,61,85)        111.7254         estimate D2E/DX2                !
 ! D205  D(3,26,28,30)          -6.4995         estimate D2E/DX2                !
 ! D206  D(3,26,28,66)         138.5516         estimate D2E/DX2                !
 ! D207  D(24,26,28,30)       -151.4688         estimate D2E/DX2                !
 ! D208  D(24,26,28,66)         -6.4178         estimate D2E/DX2                !
 ! D209  D(25,27,29,5)          -3.3107         estimate D2E/DX2                !
 ! D210  D(25,27,29,31)       -157.5388         estimate D2E/DX2                !
 ! D211  D(65,27,29,5)         140.683          estimate D2E/DX2                !
 ! D212  D(65,27,29,31)        -13.5451         estimate D2E/DX2                !
 ! D213  D(25,27,65,63)          4.2212         estimate D2E/DX2                !
 ! D214  D(25,27,65,67)        155.7492         estimate D2E/DX2                !
 ! D215  D(29,27,65,63)       -143.9148         estimate D2E/DX2                !
 ! D216  D(29,27,65,67)          7.6132         estimate D2E/DX2                !
 ! D217  D(26,28,30,7)           8.367          estimate D2E/DX2                !
 ! D218  D(26,28,30,32)        153.4969         estimate D2E/DX2                !
 ! D219  D(66,28,30,7)        -136.9709         estimate D2E/DX2                !
 ! D220  D(66,28,30,32)          8.159          estimate D2E/DX2                !
 ! D221  D(26,28,66,64)          7.9818         estimate D2E/DX2                !
 ! D222  D(26,28,66,68)       -147.3412         estimate D2E/DX2                !
 ! D223  D(30,28,66,64)        147.538          estimate D2E/DX2                !
 ! D224  D(30,28,66,68)         -7.7849         estimate D2E/DX2                !
 ! D225  D(5,29,31,33)          -3.3744         estimate D2E/DX2                !
 ! D226  D(5,29,31,69)        -148.627          estimate D2E/DX2                !
 ! D227  D(27,29,31,33)        151.0358         estimate D2E/DX2                !
 ! D228  D(27,29,31,69)          5.7832         estimate D2E/DX2                !
 ! D229  D(7,30,32,34)           0.236          estimate D2E/DX2                !
 ! D230  D(7,30,32,70)         142.044          estimate D2E/DX2                !
 ! D231  D(28,30,32,34)       -141.5606         estimate D2E/DX2                !
 ! D232  D(28,30,32,70)          0.2474         estimate D2E/DX2                !
 ! D233  D(29,31,33,35)         -7.6941         estimate D2E/DX2                !
 ! D234  D(29,31,33,73)       -155.2458         estimate D2E/DX2                !
 ! D235  D(69,31,33,35)        141.552          estimate D2E/DX2                !
 ! D236  D(69,31,33,73)         -5.9997         estimate D2E/DX2                !
 ! D237  D(29,31,69,67)          8.429          estimate D2E/DX2                !
 ! D238  D(29,31,69,71)        154.1315         estimate D2E/DX2                !
 ! D239  D(33,31,69,67)       -140.4402         estimate D2E/DX2                !
 ! D240  D(33,31,69,71)          5.2622         estimate D2E/DX2                !
 ! D241  D(30,32,34,36)          8.818          estimate D2E/DX2                !
 ! D242  D(30,32,34,74)        154.4128         estimate D2E/DX2                !
 ! D243  D(70,32,34,36)       -136.1052         estimate D2E/DX2                !
 ! D244  D(70,32,34,74)          9.4896         estimate D2E/DX2                !
 ! D245  D(30,32,70,68)         -8.8091         estimate D2E/DX2                !
 ! D246  D(30,32,70,72)       -154.4708         estimate D2E/DX2                !
 ! D247  D(34,32,70,68)        136.6469         estimate D2E/DX2                !
 ! D248  D(34,32,70,72)         -9.0148         estimate D2E/DX2                !
 ! D249  D(31,33,35,9)          13.4856         estimate D2E/DX2                !
 ! D250  D(31,33,35,37)       -143.8195         estimate D2E/DX2                !
 ! D251  D(73,33,35,9)         155.9895         estimate D2E/DX2                !
 ! D252  D(73,33,35,37)         -1.3156         estimate D2E/DX2                !
 ! D253  D(31,33,73,71)          4.3811         estimate D2E/DX2                !
 ! D254  D(31,33,73,75)        146.5546         estimate D2E/DX2                !
 ! D255  D(35,33,73,71)       -142.6617         estimate D2E/DX2                !
 ! D256  D(35,33,73,75)         -0.4882         estimate D2E/DX2                !
 ! D257  D(32,34,36,12)        -11.2167         estimate D2E/DX2                !
 ! D258  D(32,34,36,38)        143.7364         estimate D2E/DX2                !
 ! D259  D(74,34,36,12)       -151.156          estimate D2E/DX2                !
 ! D260  D(74,34,36,38)          3.7971         estimate D2E/DX2                !
 ! D261  D(32,34,74,72)         -6.1622         estimate D2E/DX2                !
 ! D262  D(32,34,74,76)       -148.9622         estimate D2E/DX2                !
 ! D263  D(36,34,74,72)        138.9071         estimate D2E/DX2                !
 ! D264  D(36,34,74,76)         -3.8929         estimate D2E/DX2                !
 ! D265  D(9,35,37,39)          -2.191          estimate D2E/DX2                !
 ! D266  D(9,35,37,77)        -155.1628         estimate D2E/DX2                !
 ! D267  D(33,35,37,39)        154.3216         estimate D2E/DX2                !
 ! D268  D(33,35,37,77)          1.3499         estimate D2E/DX2                !
 ! D269  D(12,36,38,42)          0.3894         estimate D2E/DX2                !
 ! D270  D(12,36,38,78)        154.2582         estimate D2E/DX2                !
 ! D271  D(34,36,38,42)       -153.9123         estimate D2E/DX2                !
 ! D272  D(34,36,38,78)         -0.0435         estimate D2E/DX2                !
 ! D273  D(35,37,39,43)          7.9085         estimate D2E/DX2                !
 ! D274  D(35,37,39,79)       -144.4189         estimate D2E/DX2                !
 ! D275  D(77,37,39,43)        161.2918         estimate D2E/DX2                !
 ! D276  D(77,37,39,79)          8.9643         estimate D2E/DX2                !
 ! D277  D(35,37,77,75)          0.3536         estimate D2E/DX2                !
 ! D278  D(35,37,77,81)        140.3249         estimate D2E/DX2                !
 ! D279  D(39,37,77,75)       -153.203          estimate D2E/DX2                !
 ! D280  D(39,37,77,81)        -13.2317         estimate D2E/DX2                !
 ! D281  D(36,38,42,46)         -3.2803         estimate D2E/DX2                !
 ! D282  D(36,38,42,80)        148.7935         estimate D2E/DX2                !
 ! D283  D(78,38,42,46)       -157.4096         estimate D2E/DX2                !
 ! D284  D(78,38,42,80)         -5.3358         estimate D2E/DX2                !
 ! D285  D(36,38,78,76)         -3.6444         estimate D2E/DX2                !
 ! D286  D(36,38,78,81)       -143.9864         estimate D2E/DX2                !
 ! D287  D(42,38,78,76)        150.8255         estimate D2E/DX2                !
 ! D288  D(42,38,78,81)         10.4835         estimate D2E/DX2                !
 ! D289  D(37,39,43,2)        -147.9592         estimate D2E/DX2                !
 ! D290  D(37,39,43,13)         -2.9557         estimate D2E/DX2                !
 ! D291  D(79,39,43,2)           5.771          estimate D2E/DX2                !
 ! D292  D(79,39,43,13)        150.7744         estimate D2E/DX2                !
 ! D293  D(37,39,79,40)        139.1857         estimate D2E/DX2                !
 ! D294  D(37,39,79,82)         -0.0061         estimate D2E/DX2                !
 ! D295  D(43,39,79,40)        -14.1174         estimate D2E/DX2                !
 ! D296  D(43,39,79,82)       -153.3092         estimate D2E/DX2                !
 ! D297  D(44,40,41,45)         -0.7245         estimate D2E/DX2                !
 ! D298  D(44,40,41,80)       -149.368          estimate D2E/DX2                !
 ! D299  D(79,40,41,45)        148.1108         estimate D2E/DX2                !
 ! D300  D(79,40,41,80)         -0.5327         estimate D2E/DX2                !
 ! D301  D(41,40,44,2)         151.4008         estimate D2E/DX2                !
 ! D302  D(41,40,44,47)         -1.7814         estimate D2E/DX2                !
 ! D303  D(79,40,44,2)           6.8674         estimate D2E/DX2                !
 ! D304  D(79,40,44,47)       -146.3147         estimate D2E/DX2                !
 ! D305  D(41,40,79,39)       -140.547          estimate D2E/DX2                !
 ! D306  D(41,40,79,82)          3.2788         estimate D2E/DX2                !
 ! D307  D(44,40,79,39)          8.0206         estimate D2E/DX2                !
 ! D308  D(44,40,79,82)        151.8465         estimate D2E/DX2                !
 ! D309  D(40,41,45,4)        -150.2253         estimate D2E/DX2                !
 ! D310  D(40,41,45,48)          2.6139         estimate D2E/DX2                !
 ! D311  D(80,41,45,4)          -5.8718         estimate D2E/DX2                !
 ! D312  D(80,41,45,48)        146.9674         estimate D2E/DX2                !
 ! D313  D(40,41,80,42)        142.2262         estimate D2E/DX2                !
 ! D314  D(40,41,80,82)         -2.4232         estimate D2E/DX2                !
 ! D315  D(45,41,80,42)         -5.9086         estimate D2E/DX2                !
 ! D316  D(45,41,80,82)       -150.558          estimate D2E/DX2                !
 ! D317  D(38,42,46,4)         147.48           estimate D2E/DX2                !
 ! D318  D(38,42,46,14)          2.6893         estimate D2E/DX2                !
 ! D319  D(80,42,46,4)          -6.0989         estimate D2E/DX2                !
 ! D320  D(80,42,46,14)       -150.8896         estimate D2E/DX2                !
 ! D321  D(38,42,80,41)       -141.7025         estimate D2E/DX2                !
 ! D322  D(38,42,80,82)         -1.6481         estimate D2E/DX2                !
 ! D323  D(46,42,80,41)         11.7135         estimate D2E/DX2                !
 ! D324  D(46,42,80,82)        151.768          estimate D2E/DX2                !
 ! D325  D(2,44,47,48)        -149.4296         estimate D2E/DX2                !
 ! D326  D(2,44,47,49)           4.7894         estimate D2E/DX2                !
 ! D327  D(40,44,47,48)          2.3319         estimate D2E/DX2                !
 ! D328  D(40,44,47,49)        156.5508         estimate D2E/DX2                !
 ! D329  D(4,45,48,47)         149.254          estimate D2E/DX2                !
 ! D330  D(4,45,48,50)          -4.5573         estimate D2E/DX2                !
 ! D331  D(41,45,48,47)         -2.0054         estimate D2E/DX2                !
 ! D332  D(41,45,48,50)       -155.8167         estimate D2E/DX2                !
 ! D333  D(44,47,48,45)         -0.4597         estimate D2E/DX2                !
 ! D334  D(44,47,48,50)        152.9651         estimate D2E/DX2                !
 ! D335  D(49,47,48,45)       -154.2031         estimate D2E/DX2                !
 ! D336  D(49,47,48,50)         -0.7783         estimate D2E/DX2                !
 ! D337  D(44,47,49,10)         -4.6488         estimate D2E/DX2                !
 ! D338  D(44,47,49,51)       -145.5985         estimate D2E/DX2                !
 ! D339  D(48,47,49,10)        149.801          estimate D2E/DX2                !
 ! D340  D(48,47,49,51)          8.8514         estimate D2E/DX2                !
 ! D341  D(45,48,50,11)          7.4708         estimate D2E/DX2                !
 ! D342  D(45,48,50,52)        146.8488         estimate D2E/DX2                !
 ! D343  D(47,48,50,11)       -146.8911         estimate D2E/DX2                !
 ! D344  D(47,48,50,52)         -7.5131         estimate D2E/DX2                !
 ! D345  D(10,49,51,52)       -155.0956         estimate D2E/DX2                !
 ! D346  D(10,49,51,55)         -8.8721         estimate D2E/DX2                !
 ! D347  D(47,49,51,52)         -8.6771         estimate D2E/DX2                !
 ! D348  D(47,49,51,55)        137.5464         estimate D2E/DX2                !
[...]
 Alpha virt. eigenvalues --    1.17039   1.17214   1.17364   1.17623   1.17705
 Alpha virt. eigenvalues --    1.18272   1.18395   1.19017   1.19238   1.19767
 Alpha virt. eigenvalues --    1.19858   1.20188   1.20292   1.20594   1.21021
 Alpha virt. eigenvalues --    1.21132   1.21392   1.21816   1.21899   1.22642
 Alpha virt. eigenvalues --    1.22995   1.23081   1.23535   1.23686   1.23866
 Alpha virt. eigenvalues --    1.24127   1.24257   1.24475   1.25120   1.25367
 Alpha virt. eigenvalues --    1.26027   1.26355   1.26480   1.26843   1.26914
 Alpha virt. eigenvalues --    1.27268   1.27476   1.27953   1.28512   1.28519
 Alpha virt. eigenvalues --    1.28876   1.29231   1.29369   1.30072   1.30205
 Alpha virt. eigenvalues --    1.30352   1.30523   1.31246   1.31582   1.31791
 Alpha virt. eigenvalues --    1.32073   1.32484   1.32760   1.32916   1.33455
 Alpha virt. eigenvalues --    1.33564   1.33863   1.34278   1.34579   1.35023
 Alpha virt. eigenvalues --    1.35458   1.35580   1.36462   1.36930   1.37289
 Alpha virt. eigenvalues --    1.37530   1.38673   1.39116   1.39259   1.39777
 Alpha virt. eigenvalues --    1.40471   1.40992   1.41269   1.41895   1.42425
 Alpha virt. eigenvalues --    1.42969   1.43594   1.43933   1.44618   1.45199
 Alpha virt. eigenvalues --    1.45694   1.46313   1.47001   1.47421   1.48203
 Alpha virt. eigenvalues --    1.48238   1.48875   1.49056   1.49272   1.49630
 Alpha virt. eigenvalues --    1.50639   1.51174   1.51761   1.52681   1.53006
 Alpha virt. eigenvalues --    1.53977   1.54234   1.54471   1.54584   1.54920
 Alpha virt. eigenvalues --    1.55634   1.55855   1.56416   1.56866   1.57337
 Alpha virt. eigenvalues --    1.57858   1.58004   1.58380   1.58735   1.59208
 Alpha virt. eigenvalues --    1.59742   1.60433   1.60606   1.61336   1.62060
 Alpha virt. eigenvalues --    1.63117   1.63332   1.63753   1.64238   1.64428
 Alpha virt. eigenvalues --    1.65201   1.65385   1.65485   1.65893   1.65989
 Alpha virt. eigenvalues --    1.66109   1.66462   1.66569   1.66710   1.66876
 Alpha virt. eigenvalues --    1.67294   1.67638   1.68041   1.68477   1.68630
 Alpha virt. eigenvalues --    1.68868   1.69062   1.69544   1.69921   1.70189
 Alpha virt. eigenvalues --    1.70434   1.70498   1.71044   1.71167   1.71373
 Alpha virt. eigenvalues --    1.71653   1.71722   1.72027   1.72169   1.72531
 Alpha virt. eigenvalues --    1.72689   1.72850   1.73098   1.73258   1.73707
 Alpha virt. eigenvalues --    1.73834   1.74074   1.74291   1.74299   1.74669
 Alpha virt. eigenvalues --    1.74808   1.74911   1.75326   1.75599   1.75919
 Alpha virt. eigenvalues --    1.76208   1.76729   1.76806   1.76862   1.77198
 Alpha virt. eigenvalues --    1.77294   1.77557   1.77800   1.77961   1.78120
 Alpha virt. eigenvalues --    1.78800   1.78899   1.79162   1.79319   1.79439
 Alpha virt. eigenvalues --    1.80233   1.80551   1.81007   1.81935   1.82286
 Alpha virt. eigenvalues --    1.82572   1.83029   1.83663   1.84106   1.84504
 Alpha virt. eigenvalues --    1.85109   1.85808   1.86061   1.86332   1.86509
 Alpha virt. eigenvalues --    1.86897   1.87123   1.88194   1.88736   1.89617
 Alpha virt. eigenvalues --    1.90189   1.90858   1.91624   1.91847   1.92213
 Alpha virt. eigenvalues --    1.92538   1.92793   1.93169   1.93487   1.93855
 Alpha virt. eigenvalues --    1.93913   1.94453   1.94791   1.95258   1.95695
 Alpha virt. eigenvalues --    1.96002   1.96232   1.96546   1.96597   1.96990
 Alpha virt. eigenvalues --    1.97381   1.97473   1.97793   1.97945   1.98509
 Alpha virt. eigenvalues --    1.98782   1.98887   1.99230   1.99323   1.99608
 Alpha virt. eigenvalues --    1.99786   2.00040   2.00289   2.00352   2.00531
 Alpha virt. eigenvalues --    2.00707   2.00990   2.01132   2.01306   2.01408
 Alpha virt. eigenvalues --    2.01707   2.01734   2.02178   2.02245   2.02575
 Alpha virt. eigenvalues --    2.02765   2.02881   2.03040   2.03672   2.03725
 Alpha virt. eigenvalues --    2.03896   2.03933   2.04237   2.04473   2.04798
 Alpha virt. eigenvalues --    2.05233   2.05808   2.05889   2.06448   2.06731
 Alpha virt. eigenvalues --    2.07276   2.07586   2.08106   2.08301   2.08609
 Alpha virt. eigenvalues --    2.09347   2.09968   2.10185   2.10798   2.11354
 Alpha virt. eigenvalues --    2.11610   2.12090   2.12563   2.13483   2.13537
 Alpha virt. eigenvalues --    2.13925   2.14433   2.14826   2.15420   2.15824
 Alpha virt. eigenvalues --    2.16080   2.16543   2.17445   2.17515   2.18136
 Alpha virt. eigenvalues --    2.18412   2.18906   2.20041   2.20150   2.20342
 Alpha virt. eigenvalues --    2.21310   2.21609   2.21726   2.22000   2.22591
 Alpha virt. eigenvalues --    2.23143   2.23215   2.23371   2.24115   2.24820
 Alpha virt. eigenvalues --    2.24996   2.25036   2.25478   2.25814   2.26520
 Alpha virt. eigenvalues --    2.26697   2.27290   2.27698   2.27934   2.28304
 Alpha virt. eigenvalues --    2.28595   2.29208   2.29281   2.29622   2.30068
 Alpha virt. eigenvalues --    2.30227   2.30414   2.31192   2.31639   2.31718
 Alpha virt. eigenvalues --    2.32291   2.32838   2.33476   2.33927   2.34538
 Alpha virt. eigenvalues --    2.35000   2.35370   2.35748   2.36770   2.37576
 Alpha virt. eigenvalues --    2.38330   2.38626   2.39132   2.39984   2.40571
 Alpha virt. eigenvalues --    2.41172   2.41879   2.41930   2.42197   2.42740
 Alpha virt. eigenvalues --    2.43473   2.43751   2.44209   2.44738   2.44916
 Alpha virt. eigenvalues --    2.45277   2.46228   2.46458   2.46756   2.47562
 Alpha virt. eigenvalues --    2.48466   2.49351   2.50229   2.50723   2.50763
 Alpha virt. eigenvalues --    2.51130   2.52036   2.52143   2.52730   2.53074
 Alpha virt. eigenvalues --    2.53466   2.54235   2.54546   2.54858   2.55203
 Alpha virt. eigenvalues --    2.55370   2.55640   2.56133   2.56558   2.56793
 Alpha virt. eigenvalues --    2.57014   2.57123   2.57638   2.57692   2.57869
 Alpha virt. eigenvalues --    2.58438   2.58807   2.58924   2.59056   2.59262
 Alpha virt. eigenvalues --    2.59713   2.59964   2.60155   2.60305   2.60989
 Alpha virt. eigenvalues --    2.61152   2.61555   2.61897   2.62136   2.63191
 Alpha virt. eigenvalues --    2.63330   2.63486   2.63739   2.64449   2.64605
 Alpha virt. eigenvalues --    2.65080   2.65494   2.65850   2.66117   2.66388
 Alpha virt. eigenvalues --    2.66497   2.66781   2.67004   2.67268   2.67840
 Alpha virt. eigenvalues --    2.67977   2.68112   2.68383   2.68626   2.69246
 Alpha virt. eigenvalues --    2.69901   2.70056   2.70146   2.70568   2.71356
 Alpha virt. eigenvalues --    2.71807   2.72462   2.73090   2.73572   2.74131
 Alpha virt. eigenvalues --    2.74538   2.75015   2.75370   2.76226   2.76354
 Alpha virt. eigenvalues --    2.77304   2.78255   2.78615   2.78883   2.79145
 Alpha virt. eigenvalues --    2.79749   2.80184   2.80266   2.81037   2.81547
 Alpha virt. eigenvalues --    2.81616   2.81877   2.82121   2.82605   2.83058
 Alpha virt. eigenvalues --    2.83427   2.83629   2.84322   2.84354   2.84562
 Alpha virt. eigenvalues --    2.85261   2.85442   2.86332   2.86741   2.87282
 Alpha virt. eigenvalues --    2.88088   2.88517   2.89245   2.90170   2.90266
 Alpha virt. eigenvalues --    2.90443   2.90512   2.91068   2.91314   2.91744
 Alpha virt. eigenvalues --    2.92034   2.92692   2.92789   2.93267   2.93456
 Alpha virt. eigenvalues --    2.93928   2.94449   2.95405   2.95581   2.95766
 Alpha virt. eigenvalues --    2.96495   2.97333   2.97724   2.98395   2.98912
 Alpha virt. eigenvalues --    3.00107   3.00816   3.01475   3.02616   3.03543
 Alpha virt. eigenvalues --    3.04128   3.06297   3.06887   3.07548   3.10274
 Alpha virt. eigenvalues --    3.11077   3.12583   3.13893   3.15413   3.15982
 Alpha virt. eigenvalues --    3.17107   3.18143   3.19474   3.22860   3.23377
 Alpha virt. eigenvalues --    3.25050   3.27537   3.28213   3.30145   3.30934
 Alpha virt. eigenvalues --    3.32913   3.35102   3.35884   3.36006   3.36483
 Alpha virt. eigenvalues --    3.38608   3.40613   3.42880   3.44017   3.44903
 Alpha virt. eigenvalues --    3.47274   3.48521   3.52116   3.53057   3.53853
 Alpha virt. eigenvalues --    3.54883   3.57809   3.61593   4.01357   4.01549
 Alpha virt. eigenvalues --    4.02006   4.02221   4.03136   4.03815   4.04462
 Alpha virt. eigenvalues --    4.04726   4.05290   4.06517   4.06854   4.06977
 Alpha virt. eigenvalues --    4.07167   4.07326   4.08243   4.08796   4.09706
 Alpha virt. eigenvalues --    4.10424   4.11524   4.11988   4.12562   4.12643
 Alpha virt. eigenvalues --    4.13327   4.14778   4.15682   4.17386   4.17646
 Alpha virt. eigenvalues --    4.19334   4.20445   4.20807   4.21400   4.21659
 Alpha virt. eigenvalues --    4.22459   4.22655   4.23388   4.24071   4.26949
 Alpha virt. eigenvalues --    4.28129   4.28862   4.29232   4.29598   4.29963
 Alpha virt. eigenvalues --    4.31047   4.32336   4.33655   4.34968   4.37869
 Alpha virt. eigenvalues --    4.39912   4.41021   4.41625   4.42680   4.44379
 Alpha virt. eigenvalues --    4.45017   4.48895   4.49466   4.49594   4.52197
 Alpha virt. eigenvalues --    4.52784   4.55849   4.57002   4.57238   4.58494
 Alpha virt. eigenvalues --    4.60516   4.63244   4.65472   4.67361   4.68210
 Alpha virt. eigenvalues --    4.68503   4.69413   4.73628   4.77785   4.83282
 Alpha virt. eigenvalues --    4.84496   4.85583   4.86769   4.89856   4.92956
 Alpha virt. eigenvalues --    4.94448   4.97354   5.07254   5.08626   5.13120
 Alpha virt. eigenvalues --    5.16225   5.18999   5.23004   5.25927
          Condensed to atoms (all electrons):
 Mulliken charges:
               1
     1  C   -0.003755
     2  C   -0.023091
     3  C   -0.022516
     4  C   -0.019175
     5  C    0.039021
     6  C   -0.012649
     7  C   -0.017988
     8  C   -0.016864
     9  C    0.044332
    10  C    0.003492
    11  C   -0.003478
    12  C    0.053534
    13  C   -0.029600
    14  C   -0.026365
    15  C   -0.021975
    16  C   -0.022471
    17  C    0.028714
    18  C    0.054884
    19  C    0.075637
    20  C    0.059889
    21  C   -0.350884
    22  C   -0.025896
    23  C    0.093854
    24  C   -0.015930
    25  C    0.088788
    26  C    0.002498
    27  C    0.007559
    28  C   -0.022069
    29  C    0.044884
    30  C   -0.015135
    31  C   -0.034856
    32  C   -0.012084
    33  C   -0.025533
    34  C   -0.024424
    35  C    0.042349
    36  C    0.045137
    37  C    0.044716
    38  C    0.044810
    39  C    0.052739
    40  C   -0.032834
    41  C   -0.031783
    42  C    0.054409
    43  C   -0.036270
    44  C    0.051641
    45  C    0.050713
    46  C   -0.032706
    47  C    0.045523
    48  C    0.043417
    49  C   -0.025414
    50  C   -0.021938
    51  C   -0.006677
    52  C   -0.013297
    53  C    0.011693
    54  C   -0.023724
    55  C   -0.045704
    56  C   -0.018892
    57  C    0.098319
    58  C   -0.031911
    59  C    0.132571
    60  C    0.009218
    61  C   -0.359669
    62  C   -0.040729
    63  C    0.040751
    64  C    0.066019
    65  C    0.009936
    66  C    0.043914
    67  C    0.040271
    68  C    0.044613
    69  C   -0.017507
    70  C   -0.022587
    71  C   -0.009028
    72  C    0.004668
    73  C   -0.010641
    74  C   -0.009214
    75  C   -0.000268
    76  C   -0.001599
    77  C   -0.026633
    78  C   -0.024956
    79  C   -0.022143
    80  C   -0.021149
    81  C   -0.000391
    82  C   -0.024462
    83  C    0.076736
    84  C    0.052711
    85  Cl  -0.015359
    86  Cl  -0.029732
 Sum of Mulliken charges =  -0.00000
 Mulliken charges with hydrogens summed into heavy atoms:
               1
     1  C   -0.003755
     2  C   -0.023091
     3  C   -0.022516
     4  C   -0.019175
     5  C    0.039021
     6  C   -0.012649
     7  C   -0.017988
     8  C   -0.016864
     9  C    0.044332
    10  C    0.003492
    11  C   -0.003478
    12  C    0.053534
    13  C   -0.029600
    14  C   -0.026365
    15  C   -0.021975
    16  C   -0.022471
    17  C    0.028714
    18  C    0.054884
    19  C    0.075637
    20  C    0.059889
    21  C   -0.350884
    22  C   -0.025896
    23  C    0.093854
    24  C   -0.015930
    25  C    0.088788
    26  C    0.002498
    27  C    0.007559
    28  C   -0.022069
    29  C    0.044884
    30  C   -0.015135
    31  C   -0.034856
    32  C   -0.012084
    33  C   -0.025533
    34  C   -0.024424
    35  C    0.042349
    36  C    0.045137
    37  C    0.044716
    38  C    0.044810
    39  C    0.052739
    40  C   -0.032834
    41  C   -0.031783
    42  C    0.054409
    43  C   -0.036270
    44  C    0.051641
    45  C    0.050713
    46  C   -0.032706
    47  C    0.045523
    48  C    0.043417
    49  C   -0.025414
    50  C   -0.021938
    51  C   -0.006677
    52  C   -0.013297
    53  C    0.011693
    54  C   -0.023724
    55  C   -0.045704
    56  C   -0.018892
    57  C    0.098319
    58  C   -0.031911
    59  C    0.132571
    60  C    0.009218
    61  C   -0.359669
    62  C   -0.040729
    63  C    0.040751
    64  C    0.066019
    65  C    0.009936
    66  C    0.043914
    67  C    0.040271
    68  C    0.044613
    69  C   -0.017507
    70  C   -0.022587
    71  C   -0.009028
    72  C    0.004668
    73  C   -0.010641
    74  C   -0.009214
    75  C   -0.000268
    76  C   -0.001599
    77  C   -0.026633
    78  C   -0.024956
    79  C   -0.022143
    80  C   -0.021149
    81  C   -0.000391
    82  C   -0.024462
    83  C    0.076736
    84  C    0.052711
    85  Cl  -0.015359
    86  Cl  -0.029732
 Electronic spatial extent (au):  <R**2>=          37508.9581
 Charge=             -0.0000 electrons
 Dipole moment (field-independent basis, Debye):
    X=             -3.6940    Y=              0.1011    Z=             -0.1720  Tot=              3.6994
 Quadrupole moment (field-independent basis, Debye-Ang):
   XX=           -500.9019   YY=           -479.5537   ZZ=           -474.7888
   XY=              7.2367   XZ=             -0.6170   YZ=              2.4097
 Traceless Quadrupole moment (field-independent basis, Debye-Ang):
   XX=            -15.8204   YY=              5.5277   ZZ=             10.2927
   XY=              7.2367   XZ=             -0.6170   YZ=              2.4097
 Octapole moment (field-independent basis, Debye-Ang**2):
  XXX=            -70.5539  YYY=            -14.6665  ZZZ=             -5.2765  XYY=              9.0524
  XXY=              9.7755  XXZ=              1.0121  XZZ=             26.4009  YZZ=            -10.5002
  YYZ=              3.4625  XYZ=              4.5057
 Hexadecapole moment (field-independent basis, Debye-Ang**3):
 XXXX=         -22517.2504 YYYY=         -17395.5460 ZZZZ=         -16189.2458 XXXY=             26.6492
 XXXZ=             31.8625 YYYX=              2.7964 YYYZ=             18.4968 ZZZX=            -24.1576
 ZZZY=              4.3009 XXYY=          -6630.2541 XXZZ=          -6323.6044 YYZZ=          -5597.8128
 XXYZ=             19.6512 YYXZ=            -12.9101 ZZXY=            -15.0035
 N-N= 1.559950972740D+04 E-N=-4.079239257963D+04  KE= 4.088609392407D+03
 No NMR shielding tensors so no spin-rotation constants.
 Leave Link  601 at Sun Jun 26 16:31:37 2022, MaxMem=  1342177280 cpu:              22.2 elap:               1.1
 (Enter /home/mkliu/g16/l9999.exe)
 1\1\GINC-NODE05\FOpt\RB3LYP\6-31G(d,p)\C84Cl2\MKLIU\26-Jun-2022\0\\#P 
 opt b3lyp/6-31G(d, p) empiricaldispersion=GD3\\force\\0,1\C,8.51190888
 51,18.9004463211,10.7515677242\C,12.4021403624,20.1291900508,8.9151880
 748\C,8.2651837806,26.91074215,10.5399393704\C,12.3037106986,25.604715
 9571,8.9474129947\C,8.0391678244,19.1064642642,9.4300728629\C,12.06269
 07121,19.4952032935,10.1599569521\C,7.9564713952,26.8738509873,9.14831
 62287\C,11.8724118301,26.1804272455,10.1998866253\C,9.008488383,19.175
 8970827,8.3327993883\C,12.3169669997,20.153683619,11.3520592688\C,12.1
 389736202,25.5242908897,11.370444734\C,8.9567044868,26.6938312624,8.15
 24322292\C,10.3696608077,19.000676644,8.6429189593\C,10.2901846508,26.
 7470125432,8.6222402158\C,10.822057185,18.7874336775,9.9887070246\C,10
 .6066961834,26.8605054565,10.005335976\C,9.9030411082,18.7583075945,11
 .0339671273\C,9.6007974267,26.8298662748,11.0098321483\C,10.189359638,
 19.3930430947,12.288721628\C,9.8689084543,26.1001625524,12.2558628758\
 C,8.9095965103,19.8249554805,12.9702821025\C,8.7808990666,25.462783434
 8,12.9174277273\C,7.8827441884,19.5015320863,11.9017368447\C,7.4336225
 556,25.5226866607,12.3847330819\C,6.7423845969,20.2190368019,11.755230
 7972\C,7.1867663312,26.2239723457,11.2341492921\C,6.1678575287,20.3672
 491764,10.4632523324\C,6.2233951247,25.7357905875,10.2576185845\C,6.76
 94262083,19.7909478179,9.3041513079\C,6.6559584356,26.2425369337,8.999
 0141355\C,6.4210641366,20.3685628413,8.0751695706\C,6.3479408886,25.57
 99245258,7.8354390972\C,7.3487662637,20.361019036,6.9528747121\C,7.317
 5067908,25.4945162712,6.7535189993\C,8.6761347929,19.9091383557,7.1032
 371001\C,8.6531007458,25.930087518,6.9320966454\C,9.7264344631,20.5936
 432012,6.3443868281\C,9.7210650136,25.179360683,6.2663265935\C,11.0967
 92439,20.5738110947,6.851583966\C,12.8151400049,22.1594965945,7.701634
 4709\C,12.7979678108,23.6128462599,7.7072203333\C,11.0767059666,25.193
 4109737,6.8326112489\C,11.3990128563,19.7595590072,7.9563676105\C,13.0
 085053407,21.4214959727,8.8878815248\C,12.9622437652,24.3391495769,8.9
 073014173\C,11.3477493229,25.9902533739,7.9616958939\C,13.2426847077,2
 2.1453206974,10.1450616705\C,13.2139647752,23.6117927111,10.1504925297
 \C,12.9326884817,21.4609076448,11.3478442616\C,12.8641283053,24.268309
 0111,11.3590513054\C,12.4227432256,22.1615556268,12.4988071541\C,12.39
 29914692,23.538958174,12.4905089131\C,11.3505797022,20.1039535756,12.4
 302510998\C,11.1350551612,25.4894751932,12.4308605024\C,11.3519121632,
 21.4017041933,13.0992620265\C,11.2768879616,24.2349213544,13.093342299
 7\C,8.8867647504,21.319987328,13.3170066198\C,8.9178258605,24.17392664
 9,13.4993971805\C,7.693652626,22.0277907086,13.1945852013\C,7.67623854
 98,23.4424971762,13.3096889054\C,6.4240021036,21.4147825464,12.6158364
 7\C,6.7642747676,24.2642215515,12.6134760252\C,5.7295675192,22.3375085
 97,11.6081027567\C,5.8581251684,23.716943856,11.6202788615\C,5.4942416
 768,21.629021808,10.3973676233\C,5.6213432131,24.4606076243,10.3756206
 776\C,5.264771419,22.2880929864,9.1640699765\C,5.2943827556,23.7437387
 594,9.1442867534\C,5.613007995,21.549759432,7.9955633419\C,5.585663745
 4,24.3672159744,7.8969213234\C,5.950227278,22.2190366088,6.7702309353\
 C,5.9373982446,23.6004882234,6.7236692984\C,7.0090140235,21.4707464782
 ,6.1152730466\C,6.9957791829,24.3093061909,6.0160855615\C,8.0087407743
 ,22.1415827421,5.4265760971\C,8.0062227115,23.5994302253,5.3873419947\
 C,9.3578305708,21.6875626417,5.5181039868\C,9.3589488095,24.057162997,
 5.478461247\C,11.9381923907,21.7079429278,6.6689546855\C,11.9228600572
 ,24.0570565365,6.6726061239\C,10.2003650434,22.8700969463,5.4287962802
 \C,11.4445767729,22.8780841798,5.995179334\C,10.1590905025,22.03095506
 89,13.4975761972\C,10.1515244366,23.494051015,13.5525644941\Cl,5.26053
 07746,20.9960551008,14.0041663916\Cl,8.6354411109,18.8440980107,14.537
 8262064\\Version=ES64L-G16RevA.03\State=1-A\HF=-4121.4022152\RMSD=9.07
 0e-09\RMSF=8.280e-05\Dipole=0.2935002,0.7266672,-1.2264239\Quadrupole=
 2.4447047,2.8347963,-5.279501,-2.2331197,7.9545281,7.0754137\PG=C01 [X
 (C84Cl2)]\\@


 THEREFORE SHALL EVIL COME UPON THEE...
 THOU SHALT NOT KNOW FROM WHENCE IT RISETH...
 AND MISCHIEF SHALL FALL UPON THEE...
 THOU SHALT NOT BE ABLE TO PUT IT OFF...
 AND DESOLATION SHALL COME UPON THEE SUDDENLY...
 WHICH THOU SHALT NOT KNOW...

                                         ISAIAH 47.11
 Job cpu time:       1 days  2 hours 36 minutes 14.7 seconds.
 Elapsed time:       0 days  1 hours  6 minutes 36.2 seconds.
 File lengths (MBytes):  RWF=   1037 Int=      0 D2E=      0 Chk=    131 Scr=      1
 Normal termination of Gaussian 16 at Sun Jun 26 16:31:38 2022.
