 Entering Gaussian System, Link 0=g16
 Input=2_addons_C84_11_Cl22_rank_0.gjf
 Output=2_addons_C84_11_Cl22_rank_0.log
 Initial command:
 /home/mkliu/g16/l1.exe "/data/scratch/Gau-133706.inp" -scrdir="/data/scratch/"
 Entering Link 1 = /home/mkliu/g16/l1.exe PID=    133707.
  
 Copyright (c) 1988,1990,1992,1993,1995,1998,2003,2009,2016,
            Gaussian, Inc.  All Rights Reserved.
  
 This is part of the Gaussian(R) 16 program.  It is based on
 the Gaussian(R) 09 system (copyright 2009, Gaussian, Inc.),
 the Gaussian(R) 03 system (copyright 2003, Gaussian, Inc.),
 the Gaussian(R) 98 system (copyright 1998, Gaussian, Inc.),
 the Gaussian(R) 94 system (copyright 1995, Gaussian, Inc.),
 the Gaussian 92(TM) system (copyright 1992, Gaussian, Inc.),
 the Gaussian 90(TM) system (copyright 1990, Gaussian, Inc.),
 the Gaussian 88(TM) system (copyright 1988, Gaussian, Inc.),
 the Gaussian 86(TM) system (copyright 1986, Carnegie Mellon
 University), and the Gaussian 82(TM) system (copyright 1983,
 Carnegie Mellon University). Gaussian is a federally registered
 trademark of Gaussian, Inc.
  
 This software contains proprietary and confidential information,
 including trade secrets, belonging to Gaussian, Inc.
  
 This software is provided under written license and may be
 used, copied, transmitted, or stored only in accord with that
 written license.
  
 The following legend is applicable only to US Government
 contracts under FAR:
  
                    RESTRICTED RIGHTS LEGEND
  
 Use, reproduction and disclosure by the US Government is
 subject to restrictions as set forth in subparagraphs (a)
 and (c) of the Commercial Computer Software - Restricted
 Rights clause in FAR 52.227-19.
  
 Gaussian, Inc.
 340 Quinnipiac St., Bldg. 40, Wallingford CT 06492
  
  
 ---------------------------------------------------------------
 Warning -- This program may not be used in any manner that
 competes with the business of Gaussian, Inc. or will provide
 assistance to any competitor of Gaussian, Inc.  The licensee
 of this program is prohibited from giving any competitor of
 Gaussian, Inc. access to this program.  By using this program,
 the user acknowledges that Gaussian, Inc. is engaged in the
 business of creating and licensing software in the field of
 computational chemistry and represents and warrants to the
 licensee that it is not a competitor of Gaussian, Inc. and that
 it will not use this program in any manner prohibited above.
 ---------------------------------------------------------------
  

 Cite this work as:
 Gaussian 16, Revision A.03,
 M. J. Frisch, G. W. Trucks, H. B. Schlegel, G. E. Scuseria, 
 M. A. Robb, J. R. Cheeseman, G. Scalmani, V. Barone, 
 G. A. Petersson, H. Nakatsuji, X. Li, M. Caricato, A. V. Marenich, 
 J. Bloino, B. G. Janesko, R. Gomperts, B. Mennucci, H. P. Hratchian, 
 J. V. Ortiz, A. F. Izmaylov, J. L. Sonnenberg, D. Williams-Young, 
 F. Ding, F. Lipparini, F. Egidi, J. Goings, B. Peng, A. Petrone, 
 T. Henderson, D. Ranasinghe, V. G. Zakrzewski, J. Gao, N. Rega, 
 G. Zheng, W. Liang, M. Hada, M. Ehara, K. Toyota, R. Fukuda, 
 J. Hasegawa, M. Ishida, T. Nakajima, Y. Honda, O. Kitao, H. Nakai, 
 T. Vreven, K. Throssell, J. A. Montgomery, Jr., J. E. Peralta, 
 F. Ogliaro, M. J. Bearpark, J. J. Heyd, E. N. Brothers, K. N. Kudin, 
 V. N. Staroverov, T. A. Keith, R. Kobayashi, J. Normand, 
 K. Raghavachari, A. P. Rendell, J. C. Burant, S. S. Iyengar, 
 J. Tomasi, M. Cossi, J. M. Millam, M. Klene, C. Adamo, R. Cammi, 
 J. W. Ochterski, R. L. Martin, K. Morokuma, O. Farkas, 
 J. B. Foresman, and D. J. Fox, Gaussian, Inc., Wallingford CT, 2016.
 
 ******************************************
 Gaussian 16:  ES64L-G16RevA.03 25-Dec-2016
                27-Jun-2022 
 ******************************************
 %mem=10GB
 %chk=2_addons_C84_11_Cl22_rank_0.chk
 %nprocshared=24
 Will use up to   24 processors via shared memory.
 ------------------------------------------------
 #P opt b3lyp/6-31G(d, p) empiricaldispersion=GD3
 ------------------------------------------------
 1/18=20,19=15,26=3,38=1/1,3;
 2/9=110,12=2,17=6,18=5,40=1/2;
 3/5=1,6=6,7=101,11=2,25=1,30=1,71=1,74=-5,124=31/1,2,3;
 4//1;
 5/5=2,38=5/2;
 6/7=2,8=2,9=2,10=2,28=1/1;
 7//1,2,3,16;
 1/18=20,19=15,26=3/3(2);
 2/9=110/2;
 99//99;
 2/9=110/2;
 3/5=1,6=6,7=101,11=2,25=1,30=1,71=1,74=-5,124=31/1,2,3;
 4/5=5,16=3,69=1/1;
 5/5=2,38=5/2;
 7//1,2,3,16;
 1/18=20,19=15,26=3/3(-5);
 2/9=110/2;
 6/7=2,8=2,9=2,10=2,19=2,28=1/1;
 99/9=1/99;
 Leave Link    1 at Mon Jun 27 02:31:47 2022, MaxMem=  1342177280 cpu:               0.6 elap:               0.0
 (Enter /home/mkliu/g16/l101.exe)
 -----
 force
 -----
 Symbolic Z-matrix:
 Charge =  0 Multiplicity = 1
 C                     8.50688   18.8651   10.74998 
 C                     12.37188   20.14768   8.94079 
 C                     8.29021   26.87609   10.5496 
 C                     12.24317   25.56     8.98033 
 C                     8.03094   19.0901   9.44205 
 C                     12.04578   19.51043   10.17897 
 C                     7.89299   27.10663   9.10702 
 C                     11.85855   26.16118   10.20662 
 C                     8.99158   19.18679   8.36083 
 C                     12.31923   20.1587   11.3624 
 C                     12.10903   25.49381   11.36632 
 C                     8.97137   26.64888   8.15257 
 C                     10.34849   19.02337   8.6734 
 C                     10.25457   26.7021   8.60839 
 C                     10.8064   18.80077   10.0057 
 C                     10.67241   27.06342   10.01911 
 C                     9.89283   18.74182   11.03977 
 C                     9.57559   26.78062   11.01046 
 C                     10.17071   19.42613   12.28126 
 C                     9.85098   26.0442   12.22113 
 C                     8.95831   19.99485   12.76761 
 C                     8.78464   25.40834   12.89022 
 C                     7.9153    19.52713   11.88689 
 C                     7.46493   25.48132   12.36127 
 C                     6.76816   20.25379   11.7376 
 C                     7.22854   26.18886   11.21035 
 C                     6.14383   20.34196   10.4546 
 C                     6.28375   25.70271   10.2448 
 C                     6.7626    19.77109   9.32028 
 C                     6.67029   26.2408   9.00223 
 C                     6.43259   20.36912   8.09926 
 C                     6.37876   25.55295   7.86145 
 C                     7.35326   20.3614   6.99057 
 C                     7.33046   25.46778   6.76967 
 C                     8.67211   19.91343   7.14365 
 C                     8.66046   25.88026   6.9648 
 C                     9.70928   20.59014   6.38737 
 C                     9.70624   25.13644   6.29952 
 C                     11.06629   20.57868   6.88816 
 C                     12.7765   22.15476   7.73487 
 C                     12.75385   23.59351   7.73873 
 C                     11.03465   25.14642   6.85915 
 C                     11.36877   19.78226   7.99736 
 C                     12.98279   21.4255   8.9162 
 C                     12.91414   24.30947   8.93427 
 C                     11.28527   25.92949   7.99723 
 C                     13.22459   22.14147   10.1529 
 C                     13.17996   23.59081   10.1561 
 C                     12.92571   21.46129   11.34923 
 C                     12.82112   24.24561   11.34754 
 C                     12.40752   22.15229   12.48741 
 C                     12.36203   23.52083   12.48241 
 C                     11.35566   20.11851   12.43741 
 C                     11.11201   25.44426   12.41984 
 C                     11.34088   21.38696   13.08602 
 C                     11.24805   24.2041   13.08066 
 C                     8.90688   21.27856   13.34598 
 C                     8.91357   24.13066   13.50664 
 C                     7.66357   22.01492   13.21507 
 C                     7.67774   23.415    13.32182 
 C                     6.6083    21.49473   12.43264 
 C                     6.78822   24.23832   12.58276 
 C                     5.79003   22.31738   11.61172 
 C                     5.90613   23.71603   11.60802 
 C                     5.49614   21.60376   10.39709 
 C                     5.66575   24.4385   10.37721 
 C                     5.28281   22.27781   9.18476 
 C                     5.33391   23.72535   9.16941 
 C                     5.6334    21.5445   8.02478 
 C                     5.62932   24.3421   7.9366 
 C                     5.96446   22.21112   6.80228 
 C                     5.95794   23.58647   6.76014 
 C                     7.01055   21.46458   6.15344 
 C                     7.00284   24.28829   6.05081 
 C                     8.00221   22.12704   5.45864 
 C                     8.00383   23.57157   5.4152 
 C                     9.34533   21.67041   5.56094 
 C                     9.34679   24.02403   5.50749 
 C                     11.90617   21.69942   6.70848 
 C                     11.88782   24.03213   6.70349 
 C                     10.17783   22.8466   5.46021 
 C                     11.41999   22.859    6.02855 
 C                     10.15157   22.00448   13.51252 
 C                     10.13753   23.45622   13.55968 
 Cl                    11.15271   28.81126   10.1149 
 Cl                    7.51511   28.85514   8.79789 
 
 ITRead=  0  0  0  0  0  0  0  0  0  0  0  0  0  0  0  0  0  0  0  0
 ITRead=  0  0  0  0  0  0  0  0  0  0  0  0  0  0  0  0  0  0  0  0
 ITRead=  0  0  0  0  0  0  0  0  0  0  0  0  0  0  0  0  0  0  0  0
 ITRead=  0  0  0  0  0  0  0  0  0  0  0  0  0  0  0  0  0  0  0  0
 ITRead=  0  0  0  0  0  0
 MicOpt= -1 -1 -1 -1 -1 -1 -1 -1 -1 -1 -1 -1 -1 -1 -1 -1 -1 -1 -1 -1
 MicOpt= -1 -1 -1 -1 -1 -1 -1 -1 -1 -1 -1 -1 -1 -1 -1 -1 -1 -1 -1 -1
 MicOpt= -1 -1 -1 -1 -1 -1 -1 -1 -1 -1 -1 -1 -1 -1 -1 -1 -1 -1 -1 -1
 MicOpt= -1 -1 -1 -1 -1 -1 -1 -1 -1 -1 -1 -1 -1 -1 -1 -1 -1 -1 -1 -1
 MicOpt= -1 -1 -1 -1 -1 -1
 NAtoms=     86 NQM=       86 NQMF=       0 NMMI=      0 NMMIF=      0
                NMic=       0 NMicF=      0.
                    Isotopes and Nuclear Properties:
 (Nuclear quadrupole moments (NQMom) in fm**2, nuclear magnetic moments (NMagM)
  in nuclear magnetons)

  Atom         1           2           3           4           5           6           7           8           9          10
 IAtWgt=          12          12          12          12          12          12          12          12          12          12
 AtmWgt=  12.0000000  12.0000000  12.0000000  12.0000000  12.0000000  12.0000000  12.0000000  12.0000000  12.0000000  12.0000000
 NucSpn=           0           0           0           0           0           0           0           0           0           0
 AtZEff=  -0.0000000  -0.0000000  -0.0000000  -0.0000000  -0.0000000  -0.0000000  -0.0000000  -0.0000000  -0.0000000  -0.0000000
 NQMom=    0.0000000   0.0000000   0.0000000   0.0000000   0.0000000   0.0000000   0.0000000   0.0000000   0.0000000   0.0000000
 NMagM=    0.0000000   0.0000000   0.0000000   0.0000000   0.0000000   0.0000000   0.0000000   0.0000000   0.0000000   0.0000000
 AtZNuc=   6.0000000   6.0000000   6.0000000   6.0000000   6.0000000   6.0000000   6.0000000   6.0000000   6.0000000   6.0000000

  Atom        11          12          13          14          15          16          17          18          19          20
 IAtWgt=          12          12          12          12          12          12          12          12          12          12
 AtmWgt=  12.0000000  12.0000000  12.0000000  12.0000000  12.0000000  12.0000000  12.0000000  12.0000000  12.0000000  12.0000000
 NucSpn=           0           0           0           0           0           0           0           0           0           0
 AtZEff=  -0.0000000  -0.0000000  -0.0000000  -0.0000000  -0.0000000  -0.0000000  -0.0000000  -0.0000000  -0.0000000  -0.0000000
 NQMom=    0.0000000   0.0000000   0.0000000   0.0000000   0.0000000   0.0000000   0.0000000   0.0000000   0.0000000   0.0000000
 NMagM=    0.0000000   0.0000000   0.0000000   0.0000000   0.0000000   0.0000000   0.0000000   0.0000000   0.0000000   0.0000000
 AtZNuc=   6.0000000   6.0000000   6.0000000   6.0000000   6.0000000   6.0000000   6.0000000   6.0000000   6.0000000   6.0000000

  Atom        21          22          23          24          25          26          27          28          29          30
 IAtWgt=          12          12          12          12          12          12          12          12          12          12
 AtmWgt=  12.0000000  12.0000000  12.0000000  12.0000000  12.0000000  12.0000000  12.0000000  12.0000000  12.0000000  12.0000000
 NucSpn=           0           0           0           0           0           0           0           0           0           0
 AtZEff=  -0.0000000  -0.0000000  -0.0000000  -0.0000000  -0.0000000  -0.0000000  -0.0000000  -0.0000000  -0.0000000  -0.0000000
 NQMom=    0.0000000   0.0000000   0.0000000   0.0000000   0.0000000   0.0000000   0.0000000   0.0000000   0.0000000   0.0000000
 NMagM=    0.0000000   0.0000000   0.0000000   0.0000000   0.0000000   0.0000000   0.0000000   0.0000000   0.0000000   0.0000000
 AtZNuc=   6.0000000   6.0000000   6.0000000   6.0000000   6.0000000   6.0000000   6.0000000   6.0000000   6.0000000   6.0000000

  Atom        31          32          33          34          35          36          37          38          39          40
 IAtWgt=          12          12          12          12          12          12          12          12          12          12
 AtmWgt=  12.0000000  12.0000000  12.0000000  12.0000000  12.0000000  12.0000000  12.0000000  12.0000000  12.0000000  12.0000000
 NucSpn=           0           0           0           0           0           0           0           0           0           0
 AtZEff=  -0.0000000  -0.0000000  -0.0000000  -0.0000000  -0.0000000  -0.0000000  -0.0000000  -0.0000000  -0.0000000  -0.0000000
 NQMom=    0.0000000   0.0000000   0.0000000   0.0000000   0.0000000   0.0000000   0.0000000   0.0000000   0.0000000   0.0000000
 NMagM=    0.0000000   0.0000000   0.0000000   0.0000000   0.0000000   0.0000000   0.0000000   0.0000000   0.0000000   0.0000000
 AtZNuc=   6.0000000   6.0000000   6.0000000   6.0000000   6.0000000   6.0000000   6.0000000   6.0000000   6.0000000   6.0000000

  Atom        41          42          43          44          45          46          47          48          49          50
 IAtWgt=          12          12          12          12          12          12          12          12          12          12
 AtmWgt=  12.0000000  12.0000000  12.0000000  12.0000000  12.0000000  12.0000000  12.0000000  12.0000000  12.0000000  12.0000000
 NucSpn=           0           0           0           0           0           0           0           0           0           0
 AtZEff=  -0.0000000  -0.0000000  -0.0000000  -0.0000000  -0.0000000  -0.0000000  -0.0000000  -0.0000000  -0.0000000  -0.0000000
 NQMom=    0.0000000   0.0000000   0.0000000   0.0000000   0.0000000   0.0000000   0.0000000   0.0000000   0.0000000   0.0000000
 NMagM=    0.0000000   0.0000000   0.0000000   0.0000000   0.0000000   0.0000000   0.0000000   0.0000000   0.0000000   0.0000000
 AtZNuc=   6.0000000   6.0000000   6.0000000   6.0000000   6.0000000   6.0000000   6.0000000   6.0000000   6.0000000   6.0000000

  Atom        51          52          53          54          55          56          57          58          59          60
 IAtWgt=          12          12          12          12          12          12          12          12          12          12
 AtmWgt=  12.0000000  12.0000000  12.0000000  12.0000000  12.0000000  12.0000000  12.0000000  12.0000000  12.0000000  12.0000000
 NucSpn=           0           0           0           0           0           0           0           0           0           0
 AtZEff=  -0.0000000  -0.0000000  -0.0000000  -0.0000000  -0.0000000  -0.0000000  -0.0000000  -0.0000000  -0.0000000  -0.0000000
 NQMom=    0.0000000   0.0000000   0.0000000   0.0000000   0.0000000   0.0000000   0.0000000   0.0000000   0.0000000   0.0000000
 NMagM=    0.0000000   0.0000000   0.0000000   0.0000000   0.0000000   0.0000000   0.0000000   0.0000000   0.0000000   0.0000000
 AtZNuc=   6.0000000   6.0000000   6.0000000   6.0000000   6.0000000   6.0000000   6.0000000   6.0000000   6.0000000   6.0000000

  Atom        61          62          63          64          65          66          67          68          69          70
 IAtWgt=          12          12          12          12          12          12          12          12          12          12
 AtmWgt=  12.0000000  12.0000000  12.0000000  12.0000000  12.0000000  12.0000000  12.0000000  12.0000000  12.0000000  12.0000000
 NucSpn=           0           0           0           0           0           0           0           0           0           0
 AtZEff=  -0.0000000  -0.0000000  -0.0000000  -0.0000000  -0.0000000  -0.0000000  -0.0000000  -0.0000000  -0.0000000  -0.0000000
 NQMom=    0.0000000   0.0000000   0.0000000   0.0000000   0.0000000   0.0000000   0.0000000   0.0000000   0.0000000   0.0000000
 NMagM=    0.0000000   0.0000000   0.0000000   0.0000000   0.0000000   0.0000000   0.0000000   0.0000000   0.0000000   0.0000000
 AtZNuc=   6.0000000   6.0000000   6.0000000   6.0000000   6.0000000   6.0000000   6.0000000   6.0000000   6.0000000   6.0000000

  Atom        71          72          73          74          75          76          77          78          79          80
 IAtWgt=          12          12          12          12          12          12          12          12          12          12
 AtmWgt=  12.0000000  12.0000000  12.0000000  12.0000000  12.0000000  12.0000000  12.0000000  12.0000000  12.0000000  12.0000000
 NucSpn=           0           0           0           0           0           0           0           0           0           0
 AtZEff=  -0.0000000  -0.0000000  -0.0000000  -0.0000000  -0.0000000  -0.0000000  -0.0000000  -0.0000000  -0.0000000  -0.0000000
 NQMom=    0.0000000   0.0000000   0.0000000   0.0000000   0.0000000   0.0000000   0.0000000   0.0000000   0.0000000   0.0000000
 NMagM=    0.0000000   0.0000000   0.0000000   0.0000000   0.0000000   0.0000000   0.0000000   0.0000000   0.0000000   0.0000000
 AtZNuc=   6.0000000   6.0000000   6.0000000   6.0000000   6.0000000   6.0000000   6.0000000   6.0000000   6.0000000   6.0000000

  Atom        81          82          83          84          85          86
 IAtWgt=          12          12          12          12          35          35
 AtmWgt=  12.0000000  12.0000000  12.0000000  12.0000000  34.9688527  34.9688527
 NucSpn=           0           0           0           0           3           3
 AtZEff=  -0.0000000  -0.0000000  -0.0000000  -0.0000000  -0.0000000  -0.0000000
 NQMom=    0.0000000   0.0000000   0.0000000   0.0000000  -8.1650000  -8.1650000
 NMagM=    0.0000000   0.0000000   0.0000000   0.0000000   0.8218740   0.8218740
 AtZNuc=   6.0000000   6.0000000   6.0000000   6.0000000  17.0000000  17.0000000
 Leave Link  101 at Mon Jun 27 02:31:47 2022, MaxMem=  1342177280 cpu:               6.6 elap:               0.3
 (Enter /home/mkliu/g16/l103.exe)

 GradGradGradGradGradGradGradGradGradGradGradGradGradGradGradGradGradGrad
 Berny optimization.
 Initialization pass.
                           ----------------------------
                           !    Initial Parameters    !
                           ! (Angstroms and Degrees)  !
 --------------------------                            --------------------------
 ! Name  Definition              Value          Derivative Info.                !
 --------------------------------------------------------------------------------
 ! R1    R(1,5)                  1.4099         estimate D2E/DX2                !
 ! R2    R(1,17)                 1.4213         estimate D2E/DX2                !
 ! R3    R(1,23)                 1.4425         estimate D2E/DX2                !
 ! R4    R(2,6)                  1.4302         estimate D2E/DX2                !
 ! R5    R(2,43)                 1.4247         estimate D2E/DX2                !
 ! R6    R(2,44)                 1.4166         estimate D2E/DX2                !
 ! R7    R(3,7)                  1.5139         estimate D2E/DX2                !
 ! R8    R(3,18)                 1.3688         estimate D2E/DX2                !
 ! R9    R(3,26)                 1.4269         estimate D2E/DX2                !
 ! R10   R(4,8)                  1.4189         estimate D2E/DX2                !
 ! R11   R(4,45)                 1.4199         estimate D2E/DX2                !
 ! R12   R(4,46)                 1.4215         estimate D2E/DX2                !
 ! R13   R(5,9)                  1.4496         estimate D2E/DX2                !
 ! R14   R(5,29)                 1.4447         estimate D2E/DX2                !
 ! R15   R(6,10)                 1.3768         estimate D2E/DX2                !
 ! R16   R(6,15)                 1.4386         estimate D2E/DX2                !
 ! R17   R(7,12)                 1.5111         estimate D2E/DX2                !
 ! R18   R(7,30)                 1.5019         estimate D2E/DX2                !
 ! R19   R(7,86)                 1.8154         estimate D2E/DX2                !
 ! R20   R(8,11)                 1.3613         estimate D2E/DX2                !
 ! R21   R(8,16)                 1.502          estimate D2E/DX2                !
 ! R22   R(9,13)                 1.402          estimate D2E/DX2                !
 ! R23   R(9,35)                 1.4531         estimate D2E/DX2                !
 ! R24   R(10,49)                1.4369         estimate D2E/DX2                !
 ! R25   R(10,53)                1.4442         estimate D2E/DX2                !
 ! R26   R(11,50)                1.4372         estimate D2E/DX2                !
 ! R27   R(11,54)                1.4513         estimate D2E/DX2                !
 ! R28   R(12,14)                1.3628         estimate D2E/DX2                !
 ! R29   R(12,36)                1.4485         estimate D2E/DX2                !
 ! R30   R(13,15)                1.4263         estimate D2E/DX2                !
 ! R31   R(13,43)                1.4401         estimate D2E/DX2                !
 ! R32   R(14,16)                1.515          estimate D2E/DX2                !
 ! R33   R(14,46)                1.4258         estimate D2E/DX2                !
 ! R34   R(15,17)                1.3811         estimate D2E/DX2                !
 ! R35   R(16,18)                1.5052         estimate D2E/DX2                !
 ! R36   R(16,85)                1.8152         estimate D2E/DX2                !
 ! R37   R(17,19)                1.4446         estimate D2E/DX2                !
 ! R38   R(18,20)                1.4436         estimate D2E/DX2                !
 ! R39   R(19,21)                1.4247         estimate D2E/DX2                !
 ! R40   R(19,53)                1.3813         estimate D2E/DX2                !
 ! R41   R(20,22)                1.4103         estimate D2E/DX2                !
 ! R42   R(20,54)                1.4105         estimate D2E/DX2                !
 ! R43   R(21,23)                1.443          estimate D2E/DX2                !
 ! R44   R(21,57)                1.4089         estimate D2E/DX2                !
 ! R45   R(22,24)                1.4236         estimate D2E/DX2                !
 ! R46   R(22,58)                1.4245         estimate D2E/DX2                !
 ! R47   R(23,25)                1.3661         estimate D2E/DX2                !
 ! R48   R(24,26)                1.3715         estimate D2E/DX2                !
 ! R49   R(24,62)                1.4325         estimate D2E/DX2                !
 ! R50   R(25,27)                1.4296         estimate D2E/DX2                !
 ! R51   R(25,61)                1.4313         estimate D2E/DX2                !
 ! R52   R(26,28)                1.4357         estimate D2E/DX2                !
 ! R53   R(27,29)                1.4126         estimate D2E/DX2                !
 ! R54   R(27,65)                1.4195         estimate D2E/DX2                !
 ! R55   R(28,30)                1.4082         estimate D2E/DX2                !
 ! R56   R(28,66)                1.4134         estimate D2E/DX2                !
 ! R57   R(29,31)                1.3991         estimate D2E/DX2                !
 ! R58   R(30,32)                1.3636         estimate D2E/DX2                !
 ! R59   R(31,33)                1.4411         estimate D2E/DX2                !
 ! R60   R(31,69)                1.4233         estimate D2E/DX2                !
 ! R61   R(32,34)                1.4508         estimate D2E/DX2                !
 ! R62   R(32,70)                1.426          estimate D2E/DX2                !
 ! R63   R(33,35)                1.4012         estimate D2E/DX2                !
 ! R64   R(33,73)                1.4266         estimate D2E/DX2                !
 ! R65   R(34,36)                1.4061         estimate D2E/DX2                !
 ! R66   R(34,74)                1.4196         estimate D2E/DX2                !
 ! R67   R(35,37)                1.4511         estimate D2E/DX2                !
 ! R68   R(36,38)                1.4455         estimate D2E/DX2                !
 ! R69   R(37,39)                1.4465         estimate D2E/DX2                !
 ! R70   R(37,77)                1.408          estimate D2E/DX2                !
 ! R71   R(38,42)                1.4415         estimate D2E/DX2                !
 ! R72   R(38,78)                1.4121         estimate D2E/DX2                !
 ! R73   R(39,43)                1.3986         estimate D2E/DX2                !
 ! R74   R(39,79)                1.412          estimate D2E/DX2                !
 ! R75   R(40,41)                1.4389         estimate D2E/DX2                !
 ! R76   R(40,44)                1.4035         estimate D2E/DX2                !
 ! R77   R(40,79)                1.4207         estimate D2E/DX2                !
 ! R78   R(41,45)                1.4027         estimate D2E/DX2                !
 ! R79   R(41,80)                1.4192         estimate D2E/DX2                !
 ! R80   R(42,46)                1.404          estimate D2E/DX2                !
 ! R81   R(42,80)                1.412          estimate D2E/DX2                !
 ! R82   R(44,47)                1.4493         estimate D2E/DX2                !
 ! R83   R(45,48)                1.4422         estimate D2E/DX2                !
 ! R84   R(47,48)                1.45           estimate D2E/DX2                !
 ! R85   R(47,49)                1.4083         estimate D2E/DX2                !
 ! R86   R(48,50)                1.4061         estimate D2E/DX2                !
 ! R87   R(49,51)                1.4288         estimate D2E/DX2                !
 ! R88   R(50,52)                1.4227         estimate D2E/DX2                !
 ! R89   R(51,52)                1.3693         estimate D2E/DX2                !
 ! R90   R(51,55)                1.4428         estimate D2E/DX2                !
 ! R91   R(52,56)                1.4373         estimate D2E/DX2                !
 ! R92   R(53,55)                1.4247         estimate D2E/DX2                !
 ! R93   R(54,56)                1.4118         estimate D2E/DX2                !
 ! R94   R(55,83)                1.4063         estimate D2E/DX2                !
 ! R95   R(56,84)                1.422          estimate D2E/DX2                !
 ! R96   R(57,59)                1.4509         estimate D2E/DX2                !
 ! R97   R(57,83)                1.4505         estimate D2E/DX2                !
 ! R98   R(58,60)                1.44           estimate D2E/DX2                !
 ! R99   R(58,84)                1.3985         estimate D2E/DX2                !
 ! R100  R(59,60)                1.4042         estimate D2E/DX2                !
 ! R101  R(59,61)                1.4129         estimate D2E/DX2                !
 ! R102  R(60,62)                1.4196         estimate D2E/DX2                !
 ! R103  R(61,63)                1.4213         estimate D2E/DX2                !
 ! R104  R(62,64)                1.4146         estimate D2E/DX2                !
 ! R105  R(63,64)                1.4035         estimate D2E/DX2                !
 ! R106  R(63,65)                1.4391         estimate D2E/DX2                !
 ! R107  R(64,66)                1.4473         estimate D2E/DX2                !
 ! R108  R(65,67)                1.4034         estimate D2E/DX2                !
 ! R109  R(66,68)                1.4413         estimate D2E/DX2                !
 ! R110  R(67,68)                1.4485         estimate D2E/DX2                !
 ! R111  R(67,69)                1.4164         estimate D2E/DX2                !
 ! R112  R(68,70)                1.4098         estimate D2E/DX2                !
 ! R113  R(69,71)                1.4313         estimate D2E/DX2                !
 ! R114  R(70,72)                1.4363         estimate D2E/DX2                !
 ! R115  R(71,72)                1.376          estimate D2E/DX2                !
 ! R116  R(71,73)                1.4397         estimate D2E/DX2                !
 ! R117  R(72,74)                1.4448         estimate D2E/DX2                !
 ! R118  R(73,75)                1.3802         estimate D2E/DX2                !
 ! R119  R(74,76)                1.3855         estimate D2E/DX2                !
 ! R120  R(75,76)                1.4452         estimate D2E/DX2                !
 ! R121  R(75,77)                1.4223         estimate D2E/DX2                !
 ! R122  R(76,78)                1.4201         estimate D2E/DX2                !
 ! R123  R(77,81)                1.4445         estimate D2E/DX2                !
 ! R124  R(78,81)                1.4419         estimate D2E/DX2                !
 ! R125  R(79,82)                1.4294         estimate D2E/DX2                !
 ! R126  R(80,82)                1.432          estimate D2E/DX2                !
 ! R127  R(81,82)                1.3661         estimate D2E/DX2                !
 ! R128  R(83,84)                1.4526         estimate D2E/DX2                !
 ! A1    A(5,1,17)             122.152          estimate D2E/DX2                !
 ! A2    A(5,1,23)             121.2967         estimate D2E/DX2                !
 ! A3    A(17,1,23)            106.2019         estimate D2E/DX2                !
 ! A4    A(6,2,43)             107.3647         estimate D2E/DX2                !
 ! A5    A(6,2,44)             121.0164         estimate D2E/DX2                !
 ! A6    A(43,2,44)            121.5682         estimate D2E/DX2                !
 ! A7    A(7,3,18)             125.2967         estimate D2E/DX2                !
 ! A8    A(7,3,26)             108.6251         estimate D2E/DX2                !
 ! A9    A(18,3,26)            120.6098         estimate D2E/DX2                !
 ! A10   A(8,4,45)             121.958          estimate D2E/DX2                !
 ! A11   A(8,4,46)             107.754          estimate D2E/DX2                !
 ! A12   A(45,4,46)            121.6639         estimate D2E/DX2                !
 ! A13   A(1,5,9)              118.6125         estimate D2E/DX2                !
 ! A14   A(1,5,29)             116.7281         estimate D2E/DX2                !
 ! A15   A(9,5,29)             119.176          estimate D2E/DX2                !
 ! A16   A(2,6,10)             119.2788         estimate D2E/DX2                !
 ! A17   A(2,6,15)             108.1768         estimate D2E/DX2                !
 ! A18   A(10,6,15)            120.4576         estimate D2E/DX2                !
 ! A19   A(3,7,12)             111.6226         estimate D2E/DX2                !
 ! A20   A(3,7,30)             101.0869         estimate D2E/DX2                !
 ! A21   A(3,7,86)             111.3182         estimate D2E/DX2                !
 ! A22   A(12,7,30)            111.2397         estimate D2E/DX2                !
 ! A23   A(12,7,86)            109.4363         estimate D2E/DX2                !
 ! A24   A(30,7,86)            111.9577         estimate D2E/DX2                !
 ! A25   A(4,8,11)             118.6006         estimate D2E/DX2                !
 ! A26   A(4,8,16)             111.1425         estimate D2E/DX2                !
 ! A27   A(11,8,16)            123.1028         estimate D2E/DX2                !
 ! A28   A(5,9,13)             117.8612         estimate D2E/DX2                !
 ! A29   A(5,9,35)             120.8262         estimate D2E/DX2                !
 ! A30   A(13,9,35)            117.2459         estimate D2E/DX2                !
 ! A31   A(6,10,49)            120.1848         estimate D2E/DX2                !
 ! A32   A(6,10,53)            119.6168         estimate D2E/DX2                !
 ! A33   A(49,10,53)           108.2799         estimate D2E/DX2                !
 ! A34   A(8,11,50)            120.387          estimate D2E/DX2                !
 ! A35   A(8,11,54)            120.5805         estimate D2E/DX2                !
 ! A36   A(50,11,54)           108.6757         estimate D2E/DX2                !
 ! A37   A(7,12,14)            116.6706         estimate D2E/DX2                !
 ! A38   A(7,12,36)            121.7011         estimate D2E/DX2                !
 ! A39   A(14,12,36)           119.808          estimate D2E/DX2                !
 ! A40   A(9,13,15)            122.4914         estimate D2E/DX2                !
 ! A41   A(9,13,43)            121.3056         estimate D2E/DX2                !
 ! A42   A(15,13,43)           107.0555         estimate D2E/DX2                !
 ! A43   A(12,14,16)           125.4827         estimate D2E/DX2                !
 ! A44   A(12,14,46)           121.074          estimate D2E/DX2                !
 ! A45   A(16,14,46)           109.2087         estimate D2E/DX2                !
 ! A46   A(6,15,13)            108.1857         estimate D2E/DX2                !
 ! A47   A(6,15,17)            120.0489         estimate D2E/DX2                !
 ! A48   A(13,15,17)           119.5842         estimate D2E/DX2                !
 ! A49   A(8,16,14)            100.9984         estimate D2E/DX2                !
 ! A50   A(8,16,18)            112.3557         estimate D2E/DX2                !
 ! A51   A(8,16,85)            111.2756         estimate D2E/DX2                !
 ! A52   A(14,16,18)           111.5607         estimate D2E/DX2                !
 ! A53   A(14,16,85)           110.595          estimate D2E/DX2                !
 ! A54   A(18,16,85)           109.8133         estimate D2E/DX2                !
 ! A55   A(1,17,15)            119.2535         estimate D2E/DX2                !
 ! A56   A(1,17,19)            108.7672         estimate D2E/DX2                !
 ! A57   A(15,17,19)           119.7366         estimate D2E/DX2                !
 ! A58   A(3,18,16)            116.7057         estimate D2E/DX2                !
 ! A59   A(3,18,20)            119.8069         estimate D2E/DX2                !
 ! A60   A(16,18,20)           120.6088         estimate D2E/DX2                !
 ! A61   A(17,19,21)           108.5883         estimate D2E/DX2                !
 ! A62   A(17,19,53)           119.9758         estimate D2E/DX2                !
 ! A63   A(21,19,53)           119.4289         estimate D2E/DX2                !
 ! A64   A(18,20,22)           118.9229         estimate D2E/DX2                !
 ! A65   A(18,20,54)           120.3761         estimate D2E/DX2                !
 ! A66   A(22,20,54)           114.6678         estimate D2E/DX2                !
 ! A67   A(19,21,23)           106.102          estimate D2E/DX2                !
 ! A68   A(19,21,57)           122.336          estimate D2E/DX2                !
 ! A69   A(23,21,57)           121.2981         estimate D2E/DX2                !
 ! A70   A(20,22,24)           120.1002         estimate D2E/DX2                !
 ! A71   A(20,22,58)           122.7695         estimate D2E/DX2                !
 ! A72   A(24,22,58)           106.898          estimate D2E/DX2                !
 ! A73   A(1,23,21)            109.4732         estimate D2E/DX2                !
 ! A74   A(1,23,25)            120.1563         estimate D2E/DX2                !
 ! A75   A(21,23,25)           120.0812         estimate D2E/DX2                !
 ! A76   A(22,24,26)           119.8676         estimate D2E/DX2                !
 ! A77   A(22,24,62)           109.6326         estimate D2E/DX2                !
 ! A78   A(26,24,62)           119.7334         estimate D2E/DX2                !
 ! A79   A(23,25,27)           119.8423         estimate D2E/DX2                !
 ! A80   A(23,25,61)           120.1257         estimate D2E/DX2                !
 ! A81   A(27,25,61)           109.4855         estimate D2E/DX2                !
 ! A82   A(3,26,24)            120.5842         estimate D2E/DX2                !
 ! A83   A(3,26,28)            109.9553         estimate D2E/DX2                !
 ! A84   A(24,26,28)           120.2041         estimate D2E/DX2                !
 ! A85   A(25,27,29)           120.2947         estimate D2E/DX2                !
 ! A86   A(25,27,65)           106.8857         estimate D2E/DX2                !
 ! A87   A(29,27,65)           121.7737         estimate D2E/DX2                !
 ! A88   A(26,28,30)           106.4636         estimate D2E/DX2                !
 ! A89   A(26,28,66)           121.844          estimate D2E/DX2                !
 ! A90   A(30,28,66)           122.989          estimate D2E/DX2                !
 ! A91   A(5,29,27)            120.4883         estimate D2E/DX2                !
 ! A92   A(5,29,31)            118.8235         estimate D2E/DX2                !
 ! A93   A(27,29,31)           115.1341         estimate D2E/DX2                !
 ! A94   A(7,30,28)            112.4699         estimate D2E/DX2                !
 ! A95   A(7,30,32)            121.5486         estimate D2E/DX2                !
 ! A96   A(28,30,32)           119.1275         estimate D2E/DX2                !
 ! A97   A(29,31,33)           121.2265         estimate D2E/DX2                !
 ! A98   A(29,31,69)           122.0804         estimate D2E/DX2                !
 ! A99   A(33,31,69)           108.8371         estimate D2E/DX2                !
 ! A100  A(30,32,34)           121.2584         estimate D2E/DX2                !
 ! A101  A(30,32,70)           119.7744         estimate D2E/DX2                !
 ! A102  A(34,32,70)           109.5458         estimate D2E/DX2                !
 ! A103  A(31,33,35)           121.2618         estimate D2E/DX2                !
 ! A104  A(31,33,73)           107.0867         estimate D2E/DX2                !
 ! A105  A(35,33,73)           122.5079         estimate D2E/DX2                !
 ! A106  A(32,34,36)           119.9215         estimate D2E/DX2                !
 ! A107  A(32,34,74)           106.1673         estimate D2E/DX2                !
 ! A108  A(36,34,74)           122.1608         estimate D2E/DX2                !
 ! A109  A(9,35,33)            117.2774         estimate D2E/DX2                !
 ! A110  A(9,35,37)            120.8381         estimate D2E/DX2                !
 ! A111  A(33,35,37)           117.8209         estimate D2E/DX2                !
 ! A112  A(12,36,34)           118.195          estimate D2E/DX2                !
 ! A113  A(12,36,38)           119.6793         estimate D2E/DX2                !
 ! A114  A(34,36,38)           118.0012         estimate D2E/DX2                !
 ! A115  A(35,37,39)           119.1045         estimate D2E/DX2                !
 ! A116  A(35,37,77)           118.6171         estimate D2E/DX2                !
 ! A117  A(39,37,77)           116.8584         estimate D2E/DX2                !
 ! A118  A(36,38,42)           118.9773         estimate D2E/DX2                !
 ! A119  A(36,38,78)           118.6433         estimate D2E/DX2                !
 ! A120  A(42,38,78)           117.244          estimate D2E/DX2                !
 ! A121  A(37,39,43)           118.8141         estimate D2E/DX2                !
 ! A122  A(37,39,79)           120.5086         estimate D2E/DX2                !
 ! A123  A(43,39,79)           115.1036         estimate D2E/DX2                !
 ! A124  A(41,40,44)           121.3036         estimate D2E/DX2                !
 ! A125  A(41,40,79)           108.2261         estimate D2E/DX2                !
 ! A126  A(44,40,79)           122.1137         estimate D2E/DX2                !
 ! A127  A(40,41,45)           120.7196         estimate D2E/DX2                !
 ! A128  A(40,41,80)           108.4617         estimate D2E/DX2                !
 ! A129  A(45,41,80)           122.2559         estimate D2E/DX2                !
 ! A130  A(38,42,46)           118.8846         estimate D2E/DX2                !
 ! A131  A(38,42,80)           120.5678         estimate D2E/DX2                !
 ! A132  A(46,42,80)           114.9386         estimate D2E/DX2                !
 ! A133  A(2,43,13)            108.852          estimate D2E/DX2                !
 ! A134  A(2,43,39)            122.0989         estimate D2E/DX2                !
 ! A135  A(13,43,39)           121.2754         estimate D2E/DX2                !
 ! A136  A(2,44,40)            114.8295         estimate D2E/DX2                !
 ! A137  A(2,44,47)            120.1829         estimate D2E/DX2                !
 ! A138  A(40,44,47)           119.0815         estimate D2E/DX2                !
 ! A139  A(4,45,41)            115.0348         estimate D2E/DX2                !
 ! A140  A(4,45,48)            119.8993         estimate D2E/DX2                !
 ! A141  A(41,45,48)           119.2605         estimate D2E/DX2                !
 ! A142  A(4,46,14)            109.3627         estimate D2E/DX2                !
 ! A143  A(4,46,42)            122.4066         estimate D2E/DX2                !
 ! A144  A(14,46,42)           121.377          estimate D2E/DX2                !
 ! A145  A(44,47,48)           119.3746         estimate D2E/DX2                !
 ! A146  A(44,47,49)           116.8002         estimate D2E/DX2                !
 ! A147  A(48,47,49)           118.3174         estimate D2E/DX2                !
 ! A148  A(45,48,47)           120.1238         estimate D2E/DX2                !
 ! A149  A(45,48,50)           116.0254         estimate D2E/DX2                !
 ! A150  A(47,48,50)           118.372          estimate D2E/DX2                !
 ! A151  A(10,49,47)           122.3581         estimate D2E/DX2                !
 ! A152  A(10,49,51)           106.1431         estimate D2E/DX2                !
 ! A153  A(47,49,51)           121.3396         estimate D2E/DX2                !
 ! A154  A(11,50,48)           122.8188         estimate D2E/DX2                !
 ! A155  A(11,50,52)           105.7925         estimate D2E/DX2                !
 ! A156  A(48,50,52)           121.402          estimate D2E/DX2                !
 ! A157  A(49,51,52)           119.5042         estimate D2E/DX2                !
 ! A158  A(49,51,55)           110.0034         estimate D2E/DX2                !
 ! A159  A(52,51,55)           120.4709         estimate D2E/DX2                !
 ! A160  A(50,52,51)           120.0904         estimate D2E/DX2                !
 ! A161  A(50,52,56)           109.8742         estimate D2E/DX2                !
 ! A162  A(51,52,56)           119.9573         estimate D2E/DX2                !
 ! A163  A(10,53,19)           120.1445         estimate D2E/DX2                !
 ! A164  A(10,53,55)           108.724          estimate D2E/DX2                !
 ! A165  A(19,53,55)           119.2645         estimate D2E/DX2                !
 ! A166  A(11,54,20)           119.8259         estimate D2E/DX2                !
 ! A167  A(11,54,56)           107.6717         estimate D2E/DX2                !
 ! A168  A(20,54,56)           121.7153         estimate D2E/DX2                !
 ! A169  A(51,55,53)           106.0041         estimate D2E/DX2                !
 ! A170  A(51,55,83)           121.2051         estimate D2E/DX2                !
 ! A171  A(53,55,83)           122.5326         estimate D2E/DX2                !
 ! A172  A(52,56,54)           107.3049         estimate D2E/DX2                !
 ! A173  A(52,56,84)           119.7025         estimate D2E/DX2                !
 ! A174  A(54,56,84)           122.9852         estimate D2E/DX2                !
 ! A175  A(21,57,59)           117.1707         estimate D2E/DX2                !
 ! A176  A(21,57,83)           118.1514         estimate D2E/DX2                !
 ! A177  A(59,57,83)           119.4514         estimate D2E/DX2                !
 ! A178  A(22,58,60)           108.2131         estimate D2E/DX2                !
 ! A179  A(22,58,84)           121.8839         estimate D2E/DX2                !
 ! A180  A(60,58,84)           121.0847         estimate D2E/DX2                !
 ! A181  A(57,59,60)           119.3744         estimate D2E/DX2                !
 ! A182  A(57,59,61)           120.2058         estimate D2E/DX2                !
 ! A183  A(60,59,61)           114.6273         estimate D2E/DX2                !
 ! A184  A(58,60,59)           120.9263         estimate D2E/DX2                !
 ! A185  A(58,60,62)           108.4413         estimate D2E/DX2                !
 ! A186  A(59,60,62)           122.165          estimate D2E/DX2                !
 ! A187  A(25,61,59)           120.3114         estimate D2E/DX2                !
 ! A188  A(25,61,63)           106.5971         estimate D2E/DX2                !
 ! A189  A(59,61,63)           122.4602         estimate D2E/DX2                !
 ! A190  A(24,62,60)           106.7227         estimate D2E/DX2                !
 ! A191  A(24,62,64)           120.5585         estimate D2E/DX2                !
 ! A192  A(60,62,64)           122.3656         estimate D2E/DX2                !
 ! A193  A(61,63,64)           122.0522         estimate D2E/DX2                !
 ! A194  A(61,63,65)           108.5448         estimate D2E/DX2                !
 ! A195  A(64,63,65)           120.5875         estimate D2E/DX2                !
 ! A196  A(62,64,63)           114.6915         estimate D2E/DX2                !
 ! A197  A(62,64,66)           120.3487         estimate D2E/DX2                !
 ! A198  A(63,64,66)           119.0767         estimate D2E/DX2                !
 ! A199  A(27,65,63)           108.2651         estimate D2E/DX2                !
 ! A200  A(27,65,67)           122.0929         estimate D2E/DX2                !
 ! A201  A(63,65,67)           121.4654         estimate D2E/DX2                !
 ! A202  A(28,66,64)           116.9715         estimate D2E/DX2                !
 ! A203  A(28,66,68)           117.6919         estimate D2E/DX2                !
 ! A204  A(64,66,68)           120.2567         estimate D2E/DX2                !
 ! A205  A(65,67,68)           118.9312         estimate D2E/DX2                !
 ! A206  A(65,67,69)           114.9082         estimate D2E/DX2                !
 ! A207  A(68,67,69)           119.9971         estimate D2E/DX2                !
 ! A208  A(66,68,67)           119.583          estimate D2E/DX2                !
 ! A209  A(66,68,70)           117.91           estimate D2E/DX2                !
 ! A210  A(67,68,70)           116.9908         estimate D2E/DX2                !
 ! A211  A(31,69,67)           121.5788         estimate D2E/DX2                !
 ! A212  A(31,69,71)           107.4252         estimate D2E/DX2                !
 ! A213  A(67,69,71)           121.0393         estimate D2E/DX2                !
 ! A214  A(32,70,68)           121.8494         estimate D2E/DX2                !
 ! A215  A(32,70,72)           106.4569         estimate D2E/DX2                !
 ! A216  A(68,70,72)           122.2798         estimate D2E/DX2                !
 ! A217  A(69,71,72)           119.3803         estimate D2E/DX2                !
 ! A218  A(69,71,73)           108.1499         estimate D2E/DX2                !
 ! A219  A(72,71,73)           120.5267         estimate D2E/DX2                !
 ! A220  A(70,72,71)           120.1211         estimate D2E/DX2                !
 ! A221  A(70,72,74)           108.183          estimate D2E/DX2                !
 ! A222  A(71,72,74)           119.8098         estimate D2E/DX2                !
 ! A223  A(33,73,71)           108.1241         estimate D2E/DX2                !
 ! A224  A(33,73,75)           119.6004         estimate D2E/DX2                !
 ! A225  A(71,73,75)           120.0038         estimate D2E/DX2                !
 ! A226  A(34,74,72)           108.7764         estimate D2E/DX2                !
 ! A227  A(34,74,76)           119.6935         estimate D2E/DX2                !
 ! A228  A(72,74,76)           119.7651         estimate D2E/DX2                !
 ! A229  A(73,75,76)           119.7154         estimate D2E/DX2                !
 ! A230  A(73,75,77)           119.2211         estimate D2E/DX2                !
 ! A231  A(76,75,77)           108.7844         estimate D2E/DX2                !
 ! A232  A(74,76,75)           120.1624         estimate D2E/DX2                !
 ! A233  A(74,76,78)           119.2476         estimate D2E/DX2                !
 ! A234  A(75,76,78)           108.5157         estimate D2E/DX2                !
 ! A235  A(37,77,75)           122.1843         estimate D2E/DX2                !
 ! A236  A(37,77,81)           121.1096         estimate D2E/DX2                !
 ! A237  A(75,77,81)           106.1293         estimate D2E/DX2                !
 ! A238  A(38,78,76)           121.8812         estimate D2E/DX2                !
 ! A239  A(38,78,81)           120.9943         estimate D2E/DX2                !
 ! A240  A(76,78,81)           106.4233         estimate D2E/DX2                !
 ! A241  A(39,79,40)           121.7936         estimate D2E/DX2                !
 ! A242  A(39,79,82)           120.1394         estimate D2E/DX2                !
 ! A243  A(40,79,82)           106.9783         estimate D2E/DX2                !
 ! A244  A(41,80,42)           122.1538         estimate D2E/DX2                !
 ! A245  A(41,80,82)           106.8563         estimate D2E/DX2                !
 ! A246  A(42,80,82)           120.0699         estimate D2E/DX2                !
 ! A247  A(77,81,78)           109.2951         estimate D2E/DX2                !
 ! A248  A(77,81,82)           120.1608         estimate D2E/DX2                !
 ! A249  A(78,81,82)           120.1991         estimate D2E/DX2                !
 ! A250  A(79,82,80)           109.2242         estimate D2E/DX2                !
 ! A251  A(79,82,81)           119.9864         estimate D2E/DX2                !
 ! A252  A(80,82,81)           120.0391         estimate D2E/DX2                !
 ! A253  A(55,83,57)           118.1072         estimate D2E/DX2                !
 ! A254  A(55,83,84)           117.1854         estimate D2E/DX2                !
 ! A255  A(57,83,84)           119.7104         estimate D2E/DX2                !
 ! A256  A(56,84,58)           114.651          estimate D2E/DX2                !
 ! A257  A(56,84,83)           120.4744         estimate D2E/DX2                !
 ! A258  A(58,84,83)           119.2887         estimate D2E/DX2                !
 ! D1    D(17,1,5,9)             0.5181         estimate D2E/DX2                !
 ! D2    D(17,1,5,29)         -153.1752         estimate D2E/DX2                !
 ! D3    D(23,1,5,9)           140.6757         estimate D2E/DX2                !
 ! D4    D(23,1,5,29)          -13.0176         estimate D2E/DX2                !
 ! D5    D(5,1,17,15)           -2.1116         estimate D2E/DX2                !
 ! D6    D(5,1,17,19)          140.1451         estimate D2E/DX2                !
 ! D7    D(23,1,17,15)        -147.3548         estimate D2E/DX2                !
 ! D8    D(23,1,17,19)          -5.0981         estimate D2E/DX2                !
 ! D9    D(5,1,23,21)         -136.5943         estimate D2E/DX2                !
 ! D10   D(5,1,23,25)            8.5194         estimate D2E/DX2                !
 ! D11   D(17,1,23,21)           9.0133         estimate D2E/DX2                !
 ! D12   D(17,1,23,25)         154.127          estimate D2E/DX2                !
 ! D13   D(43,2,6,10)         -145.228          estimate D2E/DX2                !
 ! D14   D(43,2,6,15)           -2.5012         estimate D2E/DX2                !
 ! D15   D(44,2,6,10)            0.6695         estimate D2E/DX2                !
 ! D16   D(44,2,6,15)          143.3964         estimate D2E/DX2                !
 ! D17   D(6,2,43,13)            5.4244         estimate D2E/DX2                !
 ! D18   D(6,2,43,39)          154.938          estimate D2E/DX2                !
 ! D19   D(44,2,43,13)        -140.245          estimate D2E/DX2                !
 ! D20   D(44,2,43,39)           9.2686         estimate D2E/DX2                !
 ! D21   D(6,2,44,40)         -155.9511         estimate D2E/DX2                !
 ! D22   D(6,2,44,47)           -3.2455         estimate D2E/DX2                !
 ! D23   D(43,2,44,40)         -14.8586         estimate D2E/DX2                !
 ! D24   D(43,2,44,47)         137.8471         estimate D2E/DX2                !
 ! D25   D(18,3,7,12)           24.2994         estimate D2E/DX2                !
 ! D26   D(18,3,7,30)          142.6443         estimate D2E/DX2                !
 ! D27   D(18,3,7,86)          -98.3111         estimate D2E/DX2                !
 ! D28   D(26,3,7,12)         -129.4607         estimate D2E/DX2                !
 ! D29   D(26,3,7,30)          -11.1159         estimate D2E/DX2                !
 ! D30   D(26,3,7,86)          107.9287         estimate D2E/DX2                !
 ! D31   D(7,3,18,16)            6.3344         estimate D2E/DX2                !
 ! D32   D(7,3,18,20)         -154.5865         estimate D2E/DX2                !
 ! D33   D(26,3,18,16)         157.2033         estimate D2E/DX2                !
 ! D34   D(26,3,18,20)          -3.7175         estimate D2E/DX2                !
 ! D35   D(7,3,26,24)          158.8574         estimate D2E/DX2                !
 ! D36   D(7,3,26,28)           12.1057         estimate D2E/DX2                !
 ! D37   D(18,3,26,24)           3.6463         estimate D2E/DX2                !
 ! D38   D(18,3,26,28)        -143.1053         estimate D2E/DX2                !
 ! D39   D(45,4,8,11)           -1.9675         estimate D2E/DX2                !
 ! D40   D(45,4,8,16)         -153.3445         estimate D2E/DX2                !
 ! D41   D(46,4,8,11)          146.1784         estimate D2E/DX2                !
 ! D42   D(46,4,8,16)           -5.1987         estimate D2E/DX2                !
 ! D43   D(8,4,45,41)          155.2191         estimate D2E/DX2                !
 ! D44   D(8,4,45,48)            2.2395         estimate D2E/DX2                !
 ! D45   D(46,4,45,41)          11.4136         estimate D2E/DX2                !
 ! D46   D(46,4,45,48)        -141.566          estimate D2E/DX2                !
 ! D47   D(8,4,46,14)           -3.1412         estimate D2E/DX2                !
 ! D48   D(8,4,46,42)         -154.3953         estimate D2E/DX2                !
 ! D49   D(45,4,46,14)         145.1178         estimate D2E/DX2                !
 ! D50   D(45,4,46,42)          -6.1363         estimate D2E/DX2                !
 ! D51   D(1,5,9,13)             1.2621         estimate D2E/DX2                !
 ! D52   D(1,5,9,35)          -155.4412         estimate D2E/DX2                !
 ! D53   D(29,5,9,13)          154.304          estimate D2E/DX2                !
 ! D54   D(29,5,9,35)           -2.3993         estimate D2E/DX2                !
 ! D55   D(1,5,29,27)            8.7218         estimate D2E/DX2                !
 ! D56   D(1,5,29,31)          161.1686         estimate D2E/DX2                !
 ! D57   D(9,5,29,27)         -144.8173         estimate D2E/DX2                !
 ! D58   D(9,5,29,31)            7.6295         estimate D2E/DX2                !
 ! D59   D(2,6,10,49)            0.0015         estimate D2E/DX2                !
 ! D60   D(2,6,10,53)          138.423          estimate D2E/DX2                !
 ! D61   D(15,6,10,49)        -138.1235         estimate D2E/DX2                !
 ! D62   D(15,6,10,53)           0.298          estimate D2E/DX2                !
 ! D63   D(2,6,15,13)           -1.3667         estimate D2E/DX2                !
 ! D64   D(2,6,15,17)         -143.5881         estimate D2E/DX2                !
 ! D65   D(10,6,15,13)         140.8401         estimate D2E/DX2                !
 ! D66   D(10,6,15,17)          -1.3813         estimate D2E/DX2                !
 ! D67   D(3,7,12,14)          -29.1908         estimate D2E/DX2                !
 ! D68   D(3,7,12,36)          135.4051         estimate D2E/DX2                !
 ! D69   D(30,7,12,14)        -141.2764         estimate D2E/DX2                !
 ! D70   D(30,7,12,36)          23.3195         estimate D2E/DX2                !
 ! D71   D(86,7,12,14)          94.4902         estimate D2E/DX2                !
 ! D72   D(86,7,12,36)        -100.9139         estimate D2E/DX2                !
 ! D73   D(3,7,30,28)            6.7856         estimate D2E/DX2                !
 ! D74   D(3,7,30,32)         -143.911          estimate D2E/DX2                !
 ! D75   D(12,7,30,28)         125.4074         estimate D2E/DX2                !
 ! D76   D(12,7,30,32)         -25.2892         estimate D2E/DX2                !
 ! D77   D(86,7,30,28)        -111.7979         estimate D2E/DX2                !
 ! D78   D(86,7,30,32)          97.5055         estimate D2E/DX2                !
 ! D79   D(4,8,11,50)            3.7392         estimate D2E/DX2                !
 ! D80   D(4,8,11,54)         -137.3108         estimate D2E/DX2                !
 ! D81   D(16,8,11,50)         151.506          estimate D2E/DX2                !
 ! D82   D(16,8,11,54)          10.456          estimate D2E/DX2                !
 ! D83   D(4,8,16,14)           10.6157         estimate D2E/DX2                !
 ! D84   D(4,8,16,18)          129.6096         estimate D2E/DX2                !
 ! D85   D(4,8,16,85)         -106.7863         estimate D2E/DX2                !
 ! D86   D(11,8,16,14)        -139.2465         estimate D2E/DX2                !
 ! D87   D(11,8,16,18)         -20.2526         estimate D2E/DX2                !
 ! D88   D(11,8,16,85)         103.3515         estimate D2E/DX2                !
 ! D89   D(5,9,13,15)           -1.5268         estimate D2E/DX2                !
 ! D90   D(5,9,13,43)         -144.1144         estimate D2E/DX2                !
 ! D91   D(35,9,13,15)         156.0153         estimate D2E/DX2                !
 ! D92   D(35,9,13,43)          13.4277         estimate D2E/DX2                !
 ! D93   D(5,9,35,33)           -8.013          estimate D2E/DX2                !
 ! D94   D(5,9,35,37)          148.8276         estimate D2E/DX2                !
 ! D95   D(13,9,35,33)        -164.854          estimate D2E/DX2                !
 ! D96   D(13,9,35,37)          -8.0135         estimate D2E/DX2                !
 ! D97   D(6,10,49,47)           2.0158         estimate D2E/DX2                !
 ! D98   D(6,10,49,51)         147.5423         estimate D2E/DX2                !
 ! D99   D(53,10,49,47)       -140.5679         estimate D2E/DX2                !
 ! D100  D(53,10,49,51)          4.9586         estimate D2E/DX2                !
 ! D101  D(6,10,53,19)           0.4187         estimate D2E/DX2                !
 ! D102  D(6,10,53,55)        -142.1151         estimate D2E/DX2                !
 ! D103  D(49,10,53,19)        143.2511         estimate D2E/DX2                !
 ! D104  D(49,10,53,55)          0.7174         estimate D2E/DX2                !
 ! D105  D(8,11,50,48)          -6.1489         estimate D2E/DX2                !
 ! D106  D(8,11,50,52)        -151.9124         estimate D2E/DX2                !
 ! D107  D(54,11,50,48)        139.011          estimate D2E/DX2                !
 ! D108  D(54,11,50,52)         -6.7524         estimate D2E/DX2                !
 ! D109  D(8,11,54,20)           2.6673         estimate D2E/DX2                !
 ! D110  D(8,11,54,56)         147.615          estimate D2E/DX2                !
 ! D111  D(50,11,54,20)       -142.4132         estimate D2E/DX2                !
 ! D112  D(50,11,54,56)          2.5345         estimate D2E/DX2                !
 ! D113  D(7,12,14,16)           5.6507         estimate D2E/DX2                !
 ! D114  D(7,12,14,46)         159.9814         estimate D2E/DX2                !
 ! D115  D(36,12,14,16)       -159.2523         estimate D2E/DX2                !
 ! D116  D(36,12,14,46)         -4.9216         estimate D2E/DX2                !
 ! D117  D(7,12,36,34)          -5.1871         estimate D2E/DX2                !
 ! D118  D(7,12,36,38)        -161.9174         estimate D2E/DX2                !
 ! D119  D(14,12,36,34)        158.9368         estimate D2E/DX2                !
 ! D120  D(14,12,36,38)          2.2066         estimate D2E/DX2                !
 ! D121  D(9,13,15,6)         -142.4694         estimate D2E/DX2                !
 ! D122  D(9,13,15,17)          -0.0424         estimate D2E/DX2                !
 ! D123  D(43,13,15,6)           4.6443         estimate D2E/DX2                !
 ! D124  D(43,13,15,17)        147.0714         estimate D2E/DX2                !
 ! D125  D(9,13,43,2)          141.3268         estimate D2E/DX2                !
 ! D126  D(9,13,43,39)          -8.4843         estimate D2E/DX2                !
 ! D127  D(15,13,43,2)          -6.2599         estimate D2E/DX2                !
 ! D128  D(15,13,43,39)       -156.0709         estimate D2E/DX2                !
 ! D129  D(12,14,16,8)         144.5455         estimate D2E/DX2                !
 ! D130  D(12,14,16,18)         24.9799         estimate D2E/DX2                !
 ! D131  D(12,14,16,85)        -97.5556         estimate D2E/DX2                !
 ! D132  D(46,14,16,8)         -12.32           estimate D2E/DX2                !
 ! D133  D(46,14,16,18)       -131.8856         estimate D2E/DX2                !
 ! D134  D(46,14,16,85)        105.5789         estimate D2E/DX2                !
 ! D135  D(12,14,46,4)        -147.9062         estimate D2E/DX2                !
 ! D136  D(12,14,46,42)          3.6968         estimate D2E/DX2                !
 ! D137  D(16,14,46,4)          10.1604         estimate D2E/DX2                !
 ! D138  D(16,14,46,42)        161.7635         estimate D2E/DX2                !
 ! D139  D(6,15,17,1)          139.8381         estimate D2E/DX2                !
 ! D140  D(6,15,17,19)           1.7108         estimate D2E/DX2                !
 ! D141  D(13,15,17,1)           1.8483         estimate D2E/DX2                !
 ! D142  D(13,15,17,19)       -136.2789         estimate D2E/DX2                !
 ! D143  D(8,16,18,3)         -142.3945         estimate D2E/DX2                !
 ! D144  D(8,16,18,20)          18.3642         estimate D2E/DX2                !
 ! D145  D(14,16,18,3)         -29.7935         estimate D2E/DX2                !
 ! D146  D(14,16,18,20)        130.9652         estimate D2E/DX2                !
 ! D147  D(85,16,18,3)          93.1892         estimate D2E/DX2                !
 ! D148  D(85,16,18,20)       -106.0522         estimate D2E/DX2                !
 ! D149  D(1,17,19,21)          -0.6295         estimate D2E/DX2                !
 ! D150  D(1,17,19,53)        -143.041          estimate D2E/DX2                !
 ! D151  D(15,17,19,21)        141.4148         estimate D2E/DX2                !
 ! D152  D(15,17,19,53)         -0.9967         estimate D2E/DX2                !
 ! D153  D(3,18,20,22)           1.4726         estimate D2E/DX2                !
 ! D154  D(3,18,20,54)         152.7044         estimate D2E/DX2                !
 ! D155  D(16,18,20,22)       -158.6945         estimate D2E/DX2                !
 ! D156  D(16,18,20,54)         -7.4627         estimate D2E/DX2                !
 ! D157  D(17,19,21,23)          6.0838         estimate D2E/DX2                !
 ! D158  D(17,19,21,57)       -139.271          estimate D2E/DX2                !
 ! D159  D(53,19,21,23)        148.7344         estimate D2E/DX2                !
 ! D160  D(53,19,21,57)          3.3796         estimate D2E/DX2                !
 ! D161  D(17,19,53,10)         -0.0808         estimate D2E/DX2                !
 ! D162  D(17,19,53,55)        138.5901         estimate D2E/DX2                !
 ! D163  D(21,19,53,10)       -138.4889         estimate D2E/DX2                !
 ! D164  D(21,19,53,55)          0.182          estimate D2E/DX2                !
 ! D165  D(18,20,22,24)          0.905          estimate D2E/DX2                !
 ! D166  D(18,20,22,58)        141.5027         estimate D2E/DX2                !
 ! D167  D(54,20,22,24)       -151.908          estimate D2E/DX2                !
 ! D168  D(54,20,22,58)        -11.3103         estimate D2E/DX2                !
 ! D169  D(18,20,54,11)         -3.9692         estimate D2E/DX2                !
 ! D170  D(18,20,54,56)       -143.9321         estimate D2E/DX2                !
 ! D171  D(22,20,54,11)        148.4151         estimate D2E/DX2                !
 ! D172  D(22,20,54,56)          8.4522         estimate D2E/DX2                !
 ! D173  D(19,21,23,1)          -9.3864         estimate D2E/DX2                !
 ! D174  D(19,21,23,25)       -154.5305         estimate D2E/DX2                !
 ! D175  D(57,21,23,1)         136.4096         estimate D2E/DX2                !
 ! D176  D(57,21,23,25)         -8.7344         estimate D2E/DX2                !
 ! D177  D(19,21,57,59)        150.8883         estimate D2E/DX2                !
 ! D178  D(19,21,57,83)         -3.4654         estimate D2E/DX2                !
 ! D179  D(23,21,57,59)         10.6214         estimate D2E/DX2                !
 ! D180  D(23,21,57,83)       -143.7323         estimate D2E/DX2                !
 ! D181  D(20,22,24,26)         -1.0112         estimate D2E/DX2                !
 ! D182  D(20,22,24,62)        143.2891         estimate D2E/DX2                !
 ! D183  D(58,22,24,26)       -147.1056         estimate D2E/DX2                !
 ! D184  D(58,22,24,62)         -2.8053         estimate D2E/DX2                !
 ! D185  D(20,22,58,60)       -143.5994         estimate D2E/DX2                !
 ! D186  D(20,22,58,84)          4.0506         estimate D2E/DX2                !
 ! D187  D(24,22,58,60)          1.3748         estimate D2E/DX2                !
 ! D188  D(24,22,58,84)        149.0248         estimate D2E/DX2                !
 ! D189  D(1,23,25,27)           0.8651         estimate D2E/DX2                !
 ! D190  D(1,23,25,61)        -140.1687         estimate D2E/DX2                !
 ! D191  D(21,23,25,27)        142.3176         estimate D2E/DX2                !
 ! D192  D(21,23,25,61)          1.2838         estimate D2E/DX2                !
 ! D193  D(22,24,26,3)          -1.2158         estimate D2E/DX2                !
 ! D194  D(22,24,26,28)        142.1784         estimate D2E/DX2                !
 ! D195  D(62,24,26,3)        -141.948          estimate D2E/DX2                !
 ! D196  D(62,24,26,28)          1.4462         estimate D2E/DX2                !
 ! D197  D(22,24,62,60)          3.1393         estimate D2E/DX2                !
 ! D198  D(22,24,62,64)       -142.602          estimate D2E/DX2                !
 ! D199  D(26,24,62,60)        147.4948         estimate D2E/DX2                !
 ! D200  D(26,24,62,64)          1.7534         estimate D2E/DX2                !
 ! D201  D(23,25,27,29)         -5.0434         estimate D2E/DX2                !
 ! D202  D(23,25,27,65)       -149.5976         estimate D2E/DX2                !
 ! D203  D(61,25,27,29)        139.7192         estimate D2E/DX2                !
 ! D204  D(61,25,27,65)         -4.8349         estimate D2E/DX2                !
 ! D205  D(23,25,61,59)          3.6892         estimate D2E/DX2                !
 ! D206  D(23,25,61,63)        149.0737         estimate D2E/DX2                !
 ! D207  D(27,25,61,59)       -140.9577         estimate D2E/DX2                !
 ! D208  D(27,25,61,63)          4.4268         estimate D2E/DX2                !
 ! D209  D(3,26,28,30)          -7.544          estimate D2E/DX2                !
 ! D210  D(3,26,28,66)         140.8746         estimate D2E/DX2                !
 ! D211  D(24,26,28,30)       -154.4414         estimate D2E/DX2                !
 ! D212  D(24,26,28,66)         -6.0228         estimate D2E/DX2                !
 ! D213  D(25,27,29,5)           0.1011         estimate D2E/DX2                !
 ! D214  D(25,27,29,31)       -153.3059         estimate D2E/DX2                !
 ! D215  D(65,27,29,5)         139.3515         estimate D2E/DX2                !
 ! D216  D(65,27,29,31)        -14.0556         estimate D2E/DX2                !
 ! D217  D(25,27,65,63)          3.3311         estimate D2E/DX2                !
 ! D218  D(25,27,65,67)        152.1798         estimate D2E/DX2                !
 ! D219  D(29,27,65,63)       -140.5821         estimate D2E/DX2                !
 ! D220  D(29,27,65,67)          8.2666         estimate D2E/DX2                !
 ! D221  D(26,28,30,7)           0.0141         estimate D2E/DX2                !
 ! D222  D(26,28,30,32)        151.4934         estimate D2E/DX2                !
 ! D223  D(66,28,30,7)        -147.9535         estimate D2E/DX2                !
 ! D224  D(66,28,30,32)          3.5258         estimate D2E/DX2                !
 ! D225  D(26,28,66,64)          6.9721         estimate D2E/DX2                !
 ! D226  D(26,28,66,68)       -147.9307         estimate D2E/DX2                !
 ! D227  D(30,28,66,64)        150.1899         estimate D2E/DX2                !
 ! D228  D(30,28,66,68)         -4.7128         estimate D2E/DX2                !
 ! D229  D(5,29,31,33)          -2.4969         estimate D2E/DX2                !
 ! D230  D(5,29,31,69)        -148.1503         estimate D2E/DX2                !
 ! D231  D(27,29,31,33)        151.3799         estimate D2E/DX2                !
 ! D232  D(27,29,31,69)          5.7265         estimate D2E/DX2                !
 ! D233  D(7,30,32,34)           9.1705         estimate D2E/DX2                !
 ! D234  D(7,30,32,70)         152.1271         estimate D2E/DX2                !
 ! D235  D(28,30,32,34)       -139.6479         estimate D2E/DX2                !
 ! D236  D(28,30,32,70)          3.3087         estimate D2E/DX2                !
 ! D237  D(29,31,33,35)         -8.4448         estimate D2E/DX2                !
 ! D238  D(29,31,33,73)       -156.0466         estimate D2E/DX2                !
 ! D239  D(69,31,33,35)        141.2172         estimate D2E/DX2                !
 ! D240  D(69,31,33,73)         -6.3846         estimate D2E/DX2                !
 ! D241  D(29,31,69,67)          8.8849         estimate D2E/DX2                !
 ! D242  D(29,31,69,71)        154.7065         estimate D2E/DX2                !
 ! D243  D(33,31,69,67)       -140.4671         estimate D2E/DX2                !
 ! D244  D(33,31,69,71)          5.3545         estimate D2E/DX2                !
 ! D245  D(30,32,34,36)         11.8446         estimate D2E/DX2                !
 ! D246  D(30,32,34,74)        155.5802         estimate D2E/DX2                !
 ! D247  D(70,32,34,36)       -134.4538         estimate D2E/DX2                !
 ! D248  D(70,32,34,74)          9.2818         estimate D2E/DX2                !
 ! D249  D(30,32,70,68)         -9.0469         estimate D2E/DX2                !
 ! D250  D(30,32,70,72)       -156.0897         estimate D2E/DX2                !
 ! D251  D(34,32,70,68)        137.8286         estimate D2E/DX2                !
 ! D252  D(34,32,70,72)         -9.2142         estimate D2E/DX2                !
 ! D253  D(31,33,35,9)          13.3897         estimate D2E/DX2                !
 ! D254  D(31,33,35,37)       -144.1637         estimate D2E/DX2                !
 ! D255  D(73,33,35,9)         155.9948         estimate D2E/DX2                !
 ! D256  D(73,33,35,37)         -1.5586         estimate D2E/DX2                !
 ! D257  D(31,33,73,71)          4.9087         estimate D2E/DX2                !
 ! D258  D(31,33,73,75)        147.1955         estimate D2E/DX2                !
 ! D259  D(35,33,73,71)       -142.1964         estimate D2E/DX2                !
 ! D260  D(35,33,73,75)          0.0904         estimate D2E/DX2                !
 ! D261  D(32,34,36,12)        -13.4011         estimate D2E/DX2                !
 ! D262  D(32,34,36,38)        143.7228         estimate D2E/DX2                !
 ! D263  D(74,34,36,12)       -151.2495         estimate D2E/DX2                !
 ! D264  D(74,34,36,38)          5.8744         estimate D2E/DX2                !
 ! D265  D(32,34,74,72)         -5.6334         estimate D2E/DX2                !
 ! D266  D(32,34,74,76)       -148.5231         estimate D2E/DX2                !
 ! D267  D(36,34,74,72)        137.095          estimate D2E/DX2                !
 ! D268  D(36,34,74,76)         -5.7947         estimate D2E/DX2                !
 ! D269  D(9,35,37,39)          -2.4164         estimate D2E/DX2                !
 ! D270  D(9,35,37,77)        -155.6394         estimate D2E/DX2                !
 ! D271  D(33,35,37,39)        154.3025         estimate D2E/DX2                !
 ! D272  D(33,35,37,77)          1.0795         estimate D2E/DX2                !
 ! D273  D(12,36,38,42)          1.7602         estimate D2E/DX2                !
 ! D274  D(12,36,38,78)        155.7531         estimate D2E/DX2                !
 ! D275  D(34,36,38,42)       -155.0145         estimate D2E/DX2                !
 ! D276  D(34,36,38,78)         -1.0217         estimate D2E/DX2                !
 ! D277  D(35,37,39,43)          7.6492         estimate D2E/DX2                !
 ! D278  D(35,37,39,79)       -144.7437         estimate D2E/DX2                !
 ! D279  D(77,37,39,43)        161.3343         estimate D2E/DX2                !
 ! D280  D(77,37,39,79)          8.9414         estimate D2E/DX2                !
 ! D281  D(35,37,77,75)          0.8253         estimate D2E/DX2                !
 ! D282  D(35,37,77,81)        140.5704         estimate D2E/DX2                !
 ! D283  D(39,37,77,75)       -152.9922         estimate D2E/DX2                !
 ! D284  D(39,37,77,81)        -13.2472         estimate D2E/DX2                !
 ! D285  D(36,38,42,46)         -2.9827         estimate D2E/DX2                !
 ! D286  D(36,38,42,80)        149.2839         estimate D2E/DX2                !
 ! D287  D(78,38,42,46)       -157.3349         estimate D2E/DX2                !
 ! D288  D(78,38,42,80)         -5.0683         estimate D2E/DX2                !
 ! D289  D(36,38,78,76)         -3.9333         estimate D2E/DX2                !
 ! D290  D(36,38,78,81)       -143.5799         estimate D2E/DX2                !
 ! D291  D(42,38,78,76)        150.5069         estimate D2E/DX2                !
 ! D292  D(42,38,78,81)         10.8602         estimate D2E/DX2                !
 ! D293  D(37,39,43,2)        -148.3166         estimate D2E/DX2                !
 ! D294  D(37,39,43,13)         -2.4936         estimate D2E/DX2                !
 ! D295  D(79,39,43,2)           5.5224         estimate D2E/DX2                !
 ! D296  D(79,39,43,13)        151.3454         estimate D2E/DX2                !
 ! D297  D(37,39,79,40)        139.2601         estimate D2E/DX2                !
 ! D298  D(37,39,79,82)          0.0452         estimate D2E/DX2                !
 ! D299  D(43,39,79,40)        -14.0999         estimate D2E/DX2                !
 ! D300  D(43,39,79,82)       -153.3148         estimate D2E/DX2                !
 ! D301  D(44,40,41,45)         -1.1696         estimate D2E/DX2                !
 ! D302  D(44,40,41,80)       -149.6959         estimate D2E/DX2                !
 ! D303  D(79,40,41,45)        147.6206         estimate D2E/DX2                !
 ! D304  D(79,40,41,80)         -0.9056         estimate D2E/DX2                !
 ! D305  D(41,40,44,2)         150.8045         estimate D2E/DX2                !
 ! D306  D(41,40,44,47)         -2.2223         estimate D2E/DX2                !
 ! D307  D(79,40,44,2)           6.3314         estimate D2E/DX2                !
 ! D308  D(79,40,44,47)       -146.6954         estimate D2E/DX2                !
 ! D309  D(41,40,79,39)       -140.0775         estimate D2E/DX2                !
 ! D310  D(41,40,79,82)          3.719          estimate D2E/DX2                !
 ! D311  D(44,40,79,39)          8.4077         estimate D2E/DX2                !
 ! D312  D(44,40,79,82)        152.2041         estimate D2E/DX2                !
 ! D313  D(40,41,45,4)        -149.6187         estimate D2E/DX2                !
 ! D314  D(40,41,45,48)          3.545          estimate D2E/DX2                !
 ! D315  D(80,41,45,4)          -5.4651         estimate D2E/DX2                !
 ! D316  D(80,41,45,48)        147.6987         estimate D2E/DX2                !
 ! D317  D(40,41,80,42)        141.713          estimate D2E/DX2                !
 ! D318  D(40,41,80,82)         -2.2719         estimate D2E/DX2                !
 ! D319  D(45,41,80,42)         -6.2306         estimate D2E/DX2                !
 ! D320  D(45,41,80,82)       -150.2154         estimate D2E/DX2                !
 ! D321  D(38,42,46,4)         148.2823         estimate D2E/DX2                !
 ! D322  D(38,42,46,14)          0.3852         estimate D2E/DX2                !
 ! D323  D(80,42,46,4)          -5.4933         estimate D2E/DX2                !
 ! D324  D(80,42,46,14)       -153.3904         estimate D2E/DX2                !
 ! D325  D(38,42,80,41)       -141.7854         estimate D2E/DX2                !
 ! D326  D(38,42,80,82)         -2.3459         estimate D2E/DX2                !
 ! D327  D(46,42,80,41)         11.5117         estimate D2E/DX2                !
 ! D328  D(46,42,80,82)        150.9512         estimate D2E/DX2                !
 ! D329  D(2,44,47,48)        -148.4159         estimate D2E/DX2                !
 ! D330  D(2,44,47,49)           4.988          estimate D2E/DX2                !
 ! D331  D(40,44,47,48)          3.146          estimate D2E/DX2                !
 ! D332  D(40,44,47,49)        156.5499         estimate D2E/DX2                !
 ! D333  D(4,45,48,47)         149.2998         estimate D2E/DX2                !
 ! D334  D(4,45,48,50)          -4.1709         estimate D2E/DX2                !
 ! D335  D(41,45,48,47)         -2.5471         estimate D2E/DX2                !
 ! D336  D(41,45,48,50)       -156.0178         estimate D2E/DX2                !
 ! D337  D(44,47,48,45)         -0.793          estimate D2E/DX2                !
 ! D338  D(44,47,48,50)        152.0676         estimate D2E/DX2                !
 ! D339  D(49,47,48,45)       -153.797          estimate D2E/DX2                !
 ! D340  D(49,47,48,50)         -0.9364         estimate D2E/DX2                !
 ! D341  D(44,47,49,10)         -4.4269         estimate D2E/DX2                !
 ! D342  D(44,47,49,51)       -144.8893         estimate D2E/DX2                !
 ! D343  D(48,47,49,10)        149.2667         estimate D2E/DX2                !
 ! D344  D(48,47,49,51)          8.8043         estimate D2E/DX2                !
 ! D345  D(45,48,50,11)          6.137          estimate D2E/DX2                !
 ! D346  D(45,48,50,52)        146.7708         estimate D2E/DX2                !
 ! D347  D(47,48,50,11)       -147.8183         estimate D2E/DX2                !
 ! D348  D(47,48,50,52)         -7.1845         estimate D2E/DX2                !
[...]
 Alpha virt. eigenvalues --    1.13022   1.13416   1.13603   1.13924   1.14241
 Alpha virt. eigenvalues --    1.14505   1.14847   1.15024   1.15485   1.15764
 Alpha virt. eigenvalues --    1.15920   1.16219   1.16546   1.16625   1.16992
 Alpha virt. eigenvalues --    1.17378   1.17476   1.17690   1.17905   1.17953
 Alpha virt. eigenvalues --    1.18095   1.18449   1.18639   1.19089   1.19268
 Alpha virt. eigenvalues --    1.19752   1.19844   1.19930   1.20202   1.20418
 Alpha virt. eigenvalues --    1.20856   1.21469   1.21528   1.22197   1.22683
 Alpha virt. eigenvalues --    1.22859   1.23333   1.23509   1.23838   1.24110
 Alpha virt. eigenvalues --    1.24527   1.24842   1.25052   1.25254   1.25548
 Alpha virt. eigenvalues --    1.26087   1.26582   1.26642   1.27180   1.27287
 Alpha virt. eigenvalues --    1.27560   1.27753   1.27892   1.27996   1.28443
 Alpha virt. eigenvalues --    1.28687   1.29193   1.29380   1.29582   1.30321
 Alpha virt. eigenvalues --    1.30549   1.30900   1.31245   1.31481   1.31839
 Alpha virt. eigenvalues --    1.32095   1.32380   1.32664   1.33106   1.33492
 Alpha virt. eigenvalues --    1.34119   1.34499   1.34571   1.34711   1.35005
 Alpha virt. eigenvalues --    1.35285   1.36269   1.36403   1.37025   1.37344
 Alpha virt. eigenvalues --    1.37699   1.38204   1.38672   1.39140   1.39955
 Alpha virt. eigenvalues --    1.40639   1.40928   1.41127   1.41637   1.42399
 Alpha virt. eigenvalues --    1.42793   1.43340   1.44371   1.44577   1.44693
 Alpha virt. eigenvalues --    1.45536   1.46347   1.46716   1.47364   1.47872
 Alpha virt. eigenvalues --    1.48639   1.48834   1.49248   1.49624   1.49753
 Alpha virt. eigenvalues --    1.50456   1.51001   1.51571   1.52766   1.52924
 Alpha virt. eigenvalues --    1.53684   1.54166   1.54343   1.54873   1.55167
 Alpha virt. eigenvalues --    1.56078   1.56514   1.56671   1.56899   1.57385
 Alpha virt. eigenvalues --    1.57592   1.58159   1.58339   1.59145   1.59321
 Alpha virt. eigenvalues --    1.59727   1.60470   1.60838   1.61641   1.62423
 Alpha virt. eigenvalues --    1.62714   1.63494   1.63929   1.64072   1.64459
 Alpha virt. eigenvalues --    1.65146   1.65261   1.65515   1.65720   1.65923
 Alpha virt. eigenvalues --    1.66097   1.66352   1.66608   1.66950   1.67011
 Alpha virt. eigenvalues --    1.67497   1.68056   1.68120   1.68568   1.68997
 Alpha virt. eigenvalues --    1.69140   1.69574   1.69725   1.69941   1.70271
 Alpha virt. eigenvalues --    1.70418   1.70771   1.70823   1.71201   1.71312
 Alpha virt. eigenvalues --    1.71438   1.71801   1.71938   1.72133   1.72404
 Alpha virt. eigenvalues --    1.72530   1.72782   1.72985   1.73315   1.73391
 Alpha virt. eigenvalues --    1.73609   1.73855   1.73993   1.74195   1.74547
 Alpha virt. eigenvalues --    1.74812   1.75080   1.75242   1.75685   1.76019
 Alpha virt. eigenvalues --    1.76249   1.76480   1.76604   1.76809   1.77033
 Alpha virt. eigenvalues --    1.77407   1.77620   1.77980   1.78420   1.78753
 Alpha virt. eigenvalues --    1.78961   1.79004   1.79229   1.79355   1.79635
 Alpha virt. eigenvalues --    1.80049   1.80384   1.81116   1.81949   1.82260
 Alpha virt. eigenvalues --    1.82593   1.83427   1.83604   1.83987   1.84735
 Alpha virt. eigenvalues --    1.85116   1.85535   1.85822   1.86399   1.86422
 Alpha virt. eigenvalues --    1.87270   1.87493   1.87899   1.88397   1.89798
 Alpha virt. eigenvalues --    1.89882   1.91273   1.91398   1.91922   1.92200
 Alpha virt. eigenvalues --    1.92526   1.93231   1.93427   1.93918   1.94135
 Alpha virt. eigenvalues --    1.94460   1.94765   1.95205   1.95307   1.95748
 Alpha virt. eigenvalues --    1.95818   1.96148   1.96486   1.96632   1.96845
 Alpha virt. eigenvalues --    1.97540   1.97775   1.98138   1.98317   1.98482
 Alpha virt. eigenvalues --    1.98573   1.98756   1.98910   1.99626   1.99681
 Alpha virt. eigenvalues --    1.99811   1.99976   2.00155   2.00347   2.00635
 Alpha virt. eigenvalues --    2.00786   2.00950   2.01154   2.01271   2.01595
 Alpha virt. eigenvalues --    2.01771   2.01847   2.02317   2.02523   2.02701
 Alpha virt. eigenvalues --    2.02954   2.03178   2.03489   2.03589   2.03675
 Alpha virt. eigenvalues --    2.03731   2.04067   2.04248   2.04362   2.04640
 Alpha virt. eigenvalues --    2.05292   2.05558   2.05899   2.06034   2.06524
 Alpha virt. eigenvalues --    2.07062   2.07836   2.07873   2.08388   2.09056
 Alpha virt. eigenvalues --    2.09338   2.10130   2.10312   2.10924   2.11667
 Alpha virt. eigenvalues --    2.11858   2.12375   2.12769   2.13310   2.13392
 Alpha virt. eigenvalues --    2.13729   2.14029   2.14304   2.15159   2.15529
 Alpha virt. eigenvalues --    2.16187   2.16877   2.16979   2.17745   2.18371
 Alpha virt. eigenvalues --    2.18875   2.19258   2.19502   2.20215   2.20842
 Alpha virt. eigenvalues --    2.21191   2.21611   2.21787   2.22739   2.22964
 Alpha virt. eigenvalues --    2.23212   2.23475   2.23815   2.24378   2.24581
 Alpha virt. eigenvalues --    2.24994   2.25398   2.25604   2.25747   2.26160
 Alpha virt. eigenvalues --    2.26850   2.27417   2.27754   2.28117   2.28615
 Alpha virt. eigenvalues --    2.28750   2.29018   2.29185   2.29508   2.29702
 Alpha virt. eigenvalues --    2.30480   2.30811   2.31048   2.31503   2.31806
 Alpha virt. eigenvalues --    2.32097   2.32604   2.32870   2.33062   2.34121
 Alpha virt. eigenvalues --    2.34810   2.35087   2.35532   2.36576   2.38120
 Alpha virt. eigenvalues --    2.38205   2.38735   2.39407   2.40542   2.40716
 Alpha virt. eigenvalues --    2.41033   2.41474   2.41773   2.42776   2.42967
 Alpha virt. eigenvalues --    2.44000   2.44213   2.44468   2.44625   2.45208
 Alpha virt. eigenvalues --    2.45619   2.45982   2.46389   2.47084   2.47560
 Alpha virt. eigenvalues --    2.48347   2.49311   2.50506   2.50663   2.50758
 Alpha virt. eigenvalues --    2.51312   2.51774   2.52130   2.52530   2.52820
 Alpha virt. eigenvalues --    2.52972   2.53611   2.54391   2.54773   2.54957
 Alpha virt. eigenvalues --    2.55551   2.56331   2.56595   2.56903   2.57028
 Alpha virt. eigenvalues --    2.57300   2.57580   2.57654   2.57994   2.58112
 Alpha virt. eigenvalues --    2.58656   2.58833   2.59217   2.59436   2.59732
 Alpha virt. eigenvalues --    2.59924   2.60141   2.60269   2.60738   2.60902
 Alpha virt. eigenvalues --    2.61294   2.61864   2.62024   2.62441   2.63013
 Alpha virt. eigenvalues --    2.63233   2.63560   2.63910   2.64001   2.64496
 Alpha virt. eigenvalues --    2.64583   2.64877   2.65301   2.65615   2.65777
 Alpha virt. eigenvalues --    2.66516   2.66709   2.67195   2.67649   2.67959
 Alpha virt. eigenvalues --    2.68105   2.68204   2.68627   2.68970   2.69105
 Alpha virt. eigenvalues --    2.69678   2.69889   2.70006   2.70508   2.70756
 Alpha virt. eigenvalues --    2.71634   2.72095   2.72773   2.73450   2.73649
 Alpha virt. eigenvalues --    2.74851   2.75367   2.76065   2.76672   2.77424
 Alpha virt. eigenvalues --    2.77632   2.77803   2.78005   2.78562   2.78930
 Alpha virt. eigenvalues --    2.79210   2.79758   2.80604   2.80704   2.81573
 Alpha virt. eigenvalues --    2.81630   2.82069   2.82432   2.82641   2.83186
 Alpha virt. eigenvalues --    2.83349   2.84386   2.84554   2.84782   2.85280
 Alpha virt. eigenvalues --    2.85610   2.86054   2.86355   2.87054   2.87427
 Alpha virt. eigenvalues --    2.87880   2.88270   2.88669   2.89530   2.90005
 Alpha virt. eigenvalues --    2.90478   2.90645   2.91175   2.91410   2.91574
 Alpha virt. eigenvalues --    2.92094   2.92531   2.92679   2.93136   2.93674
 Alpha virt. eigenvalues --    2.94093   2.94489   2.95089   2.95417   2.96408
 Alpha virt. eigenvalues --    2.96668   2.97159   2.97874   2.98433   2.98912
 Alpha virt. eigenvalues --    2.99207   3.00690   3.01983   3.02340   3.03478
 Alpha virt. eigenvalues --    3.04338   3.04735   3.07360   3.08307   3.08639
 Alpha virt. eigenvalues --    3.10318   3.12149   3.14400   3.16159   3.16853
 Alpha virt. eigenvalues --    3.17794   3.19541   3.20188   3.21107   3.22889
 Alpha virt. eigenvalues --    3.24299   3.28574   3.29483   3.30508   3.31176
 Alpha virt. eigenvalues --    3.34072   3.34283   3.35634   3.35847   3.37857
 Alpha virt. eigenvalues --    3.38774   3.40548   3.42453   3.42857   3.44985
 Alpha virt. eigenvalues --    3.48029   3.48943   3.50722   3.52371   3.53667
 Alpha virt. eigenvalues --    3.55591   3.57555   3.61895   4.01226   4.01714
 Alpha virt. eigenvalues --    4.02122   4.02310   4.02699   4.04271   4.04663
 Alpha virt. eigenvalues --    4.04776   4.05326   4.06488   4.06803   4.07008
 Alpha virt. eigenvalues --    4.07030   4.07372   4.08428   4.08643   4.09744
 Alpha virt. eigenvalues --    4.10026   4.10929   4.12257   4.12284   4.13079
 Alpha virt. eigenvalues --    4.14190   4.14977   4.15357   4.17329   4.18269
 Alpha virt. eigenvalues --    4.19283   4.20464   4.20668   4.21404   4.21795
 Alpha virt. eigenvalues --    4.22201   4.22630   4.22919   4.24457   4.27212
 Alpha virt. eigenvalues --    4.28277   4.28915   4.29154   4.30042   4.30357
 Alpha virt. eigenvalues --    4.30978   4.32089   4.32821   4.35878   4.37830
 Alpha virt. eigenvalues --    4.39909   4.41389   4.41467   4.42110   4.44274
 Alpha virt. eigenvalues --    4.45391   4.48476   4.49564   4.50663   4.51930
 Alpha virt. eigenvalues --    4.52737   4.55221   4.56390   4.56839   4.58697
 Alpha virt. eigenvalues --    4.60549   4.64378   4.65968   4.66361   4.67637
 Alpha virt. eigenvalues --    4.68558   4.69498   4.74032   4.78740   4.81092
 Alpha virt. eigenvalues --    4.84404   4.85502   4.87060   4.91309   4.92672
 Alpha virt. eigenvalues --    4.93623   4.96772   5.07164   5.09726   5.13401
 Alpha virt. eigenvalues --    5.16425   5.18540   5.23076   5.25448
          Condensed to atoms (all electrons):
 Mulliken charges:
               1
     1  C   -0.026154
     2  C   -0.021608
     3  C    0.077963
     4  C    0.015075
     5  C    0.046023
     6  C   -0.009577
     7  C   -0.360156
     8  C    0.075493
     9  C    0.040407
    10  C    0.002935
    11  C    0.001398
    12  C    0.120262
    13  C   -0.027667
    14  C    0.076294
    15  C   -0.009454
    16  C   -0.363371
    17  C   -0.002165
    18  C    0.125474
    19  C   -0.002741
    20  C    0.084460
    21  C   -0.023458
    22  C   -0.028284
    23  C   -0.000031
    24  C   -0.027209
    25  C   -0.024243
    26  C    0.027168
    27  C   -0.019858
    28  C    0.008747
    29  C    0.050610
    30  C    0.073644
    31  C   -0.033165
    32  C    0.001721
    33  C   -0.027926
    34  C   -0.042430
    35  C    0.040912
    36  C    0.070842
    37  C    0.047108
    38  C    0.039791
    39  C    0.052041
    40  C   -0.031156
    41  C   -0.027373
    42  C    0.047478
    43  C   -0.033819
    44  C    0.052271
    45  C    0.042072
    46  C    0.001246
    47  C    0.044681
    48  C    0.045894
    49  C   -0.026061
    50  C   -0.022609
    51  C   -0.010560
    52  C   -0.016673
    53  C   -0.008183
    54  C   -0.044504
    55  C   -0.023245
    56  C   -0.013595
    57  C    0.043326
    58  C   -0.032367
    59  C    0.055004
    60  C   -0.033001
    61  C   -0.021908
    62  C   -0.021433
    63  C   -0.034273
    64  C    0.055974
    65  C   -0.029091
    66  C    0.036839
    67  C    0.048951
    68  C    0.042796
    69  C   -0.020950
    70  C   -0.022063
    71  C   -0.008265
    72  C    0.002136
    73  C   -0.009692
    74  C   -0.002607
    75  C   -0.001626
    76  C   -0.002255
    77  C   -0.026878
    78  C   -0.021675
    79  C   -0.020496
    80  C   -0.018938
    81  C    0.002675
    82  C   -0.024309
    83  C    0.045457
    84  C    0.052795
    85  Cl  -0.015003
    86  Cl  -0.023855
 Sum of Mulliken charges =  -0.00000
 Mulliken charges with hydrogens summed into heavy atoms:
               1
     1  C   -0.026154
     2  C   -0.021608
     3  C    0.077963
     4  C    0.015075
     5  C    0.046023
     6  C   -0.009577
     7  C   -0.360156
     8  C    0.075493
     9  C    0.040407
    10  C    0.002935
    11  C    0.001398
    12  C    0.120262
    13  C   -0.027667
    14  C    0.076294
    15  C   -0.009454
    16  C   -0.363371
    17  C   -0.002165
    18  C    0.125474
    19  C   -0.002741
    20  C    0.084460
    21  C   -0.023458
    22  C   -0.028284
    23  C   -0.000031
    24  C   -0.027209
    25  C   -0.024243
    26  C    0.027168
    27  C   -0.019858
    28  C    0.008747
    29  C    0.050610
    30  C    0.073644
    31  C   -0.033165
    32  C    0.001721
    33  C   -0.027926
    34  C   -0.042430
    35  C    0.040912
    36  C    0.070842
    37  C    0.047108
    38  C    0.039791
    39  C    0.052041
    40  C   -0.031156
    41  C   -0.027373
    42  C    0.047478
    43  C   -0.033819
    44  C    0.052271
    45  C    0.042072
    46  C    0.001246
    47  C    0.044681
    48  C    0.045894
    49  C   -0.026061
    50  C   -0.022609
    51  C   -0.010560
    52  C   -0.016673
    53  C   -0.008183
    54  C   -0.044504
    55  C   -0.023245
    56  C   -0.013595
    57  C    0.043326
    58  C   -0.032367
    59  C    0.055004
    60  C   -0.033001
    61  C   -0.021908
    62  C   -0.021433
    63  C   -0.034273
    64  C    0.055974
    65  C   -0.029091
    66  C    0.036839
    67  C    0.048951
    68  C    0.042796
    69  C   -0.020950
    70  C   -0.022063
    71  C   -0.008265
    72  C    0.002136
    73  C   -0.009692
    74  C   -0.002607
    75  C   -0.001626
    76  C   -0.002255
    77  C   -0.026878
    78  C   -0.021675
    79  C   -0.020496
    80  C   -0.018938
    81  C    0.002675
    82  C   -0.024309
    83  C    0.045457
    84  C    0.052795
    85  Cl  -0.015003
    86  Cl  -0.023855
 Electronic spatial extent (au):  <R**2>=          37544.1015
 Charge=              0.0000 electrons
 Dipole moment (field-independent basis, Debye):
    X=              3.5509    Y=              0.6706    Z=              0.4532  Tot=              3.6420
 Quadrupole moment (field-independent basis, Debye-Ang):
   XX=           -500.0329   YY=           -476.9995   ZZ=           -477.5592
   XY=             -4.2409   XZ=             -0.2848   YZ=              1.6745
 Traceless Quadrupole moment (field-independent basis, Debye-Ang):
   XX=            -15.1690   YY=              7.8644   ZZ=              7.3046
   XY=             -4.2409   XZ=             -0.2848   YZ=              1.6745
 Octapole moment (field-independent basis, Debye-Ang**2):
  XXX=             70.2722  YYY=             -0.5590  ZZZ=              8.2424  XYY=            -10.7487
  XXY=              8.1195  XXZ=              0.8609  XZZ=            -31.2770  YZZ=             -1.2677
  YYZ=              2.6765  XYZ=             -3.4480
 Hexadecapole moment (field-independent basis, Debye-Ang**3):
 XXXX=         -22730.0492 YYYY=         -17710.0875 ZZZZ=         -15711.5382 XXXY=             -7.3747
 XXXZ=            -28.0970 YYYX=              1.0097 YYYZ=             -6.6722 ZZZX=             -1.9884
 ZZZY=            -21.3709 XXYY=          -6696.0790 XXZZ=          -6291.3433 YYZZ=          -5559.1093
 XXYZ=             34.6491 YYXZ=              8.5280 ZZXY=              4.2002
 N-N= 1.559778560409D+04 E-N=-4.078904253287D+04  KE= 4.088624030789D+03
 No NMR shielding tensors so no spin-rotation constants.
 Leave Link  601 at Mon Jun 27 03:28:38 2022, MaxMem=  1342177280 cpu:              22.2 elap:               1.1
 (Enter /home/mkliu/g16/l9999.exe)
 1\1\GINC-NODE05\FOpt\RB3LYP\6-31G(d,p)\C84Cl2\MKLIU\27-Jun-2022\0\\#P 
 opt b3lyp/6-31G(d, p) empiricaldispersion=GD3\\force\\0,1\C,8.49780329
 33,18.8361505818,10.7605554911\C,12.3935852349,20.1217485496,8.9330582
 606\C,8.2835857709,26.8996153037,10.567534144\C,12.2600167943,25.57767
 58348,8.9716650135\C,8.0184320306,19.0623177661,9.4432784002\C,12.0577
 802777,19.4921457271,10.1819295613\C,7.8844128601,27.1252144752,9.1083
 23991\C,11.8764446727,26.173508022,10.2087660033\C,8.9918632421,19.152
 4462162,8.3502810014\C,12.3301650333,20.144210222,11.3678412185\C,12.1
 290878913,25.5131803362,11.37288643\C,8.9739463735,26.6817767432,8.140
 7780556\C,10.3563995001,18.9900887598,8.6667394786\C,10.261976338,26.7
 296619014,8.5937923151\C,10.8085700571,18.7760959727,10.0090118656\C,1
 0.6803802824,27.084389243,10.0232446924\C,9.8894277081,18.7193051482,1
 1.0461837541\C,9.5753469918,26.8079711145,11.0263774567\C,10.169649683
 1,19.41136061,12.2989688862\C,9.8534288436,26.0632860074,12.2500685432
 \C,8.9511797687,19.9746821971,12.7906376839\C,8.7757920305,25.43082482
 39,12.9252889328\C,7.8958208481,19.5082388935,11.9027095483\C,7.449468
 2698,25.5009538198,12.3889322705\C,6.7465212928,20.233088519,11.754216
 1962\C,7.2166766073,26.2053091502,11.2318358914\C,6.1156069361,20.3210
 88672,10.4644767343\C,6.2711241632,25.7149251609,10.2525151125\C,6.737
 0541989,19.7512413094,9.3159378001\C,6.6522052118,26.2504627238,9.0020
 886551\C,6.4065852374,20.3441600924,8.0859404979\C,6.3586044903,25.567
 5163609,7.8562402053\C,7.3392816878,20.3410415045,6.9666129391\C,7.318
 95818,25.4820113105,6.7515700443\C,8.664835902,19.8865822531,7.1200277
 807\C,8.656470232,25.9045974186,6.9400879138\C,9.7164498973,20.5731435
 896,6.3609634071\C,9.7143144672,25.1530572171,6.2701856635\C,11.088183
 1345,20.5580137763,6.8698529268\C,12.8079546205,22.1455175655,7.711487
 3975\C,12.7839446305,23.598367405,7.7159578771\C,11.0569490273,25.1642
 697018,6.8368783285\C,11.3885340344,19.7522608023,7.9797947728\C,13.00
 61670166,21.4109798235,8.9003156948\C,12.937776932,24.3197120751,8.918
 2468604\C,11.3034015413,25.9549552336,7.9785854408\C,13.249727472,22.1
 335540126,10.1527839033\C,13.2055776583,23.5988906321,10.1563487147\C,
 12.9491354735,21.4520320727,11.3593170706\C,12.8454917535,24.255790135
 9,11.3575017711\C,12.4316950237,22.1540813779,12.501518423\C,12.385765
 9677,23.5244537694,12.4965435887\C,11.3602016697,20.1054912266,12.4553
 721655\C,11.1252034552,25.463755012,12.4392361175\C,11.3547363349,21.3
 792552717,13.1053259436\C,11.265916653,24.2186696902,13.1022720708\C,8
 .8998591572,21.2681365645,13.3723534\C,8.9086712388,24.1445926584,13.5
 428707274\C,7.6424368916,22.0144644826,13.2418931278\C,7.660691608,23.
 4204730236,13.3583038999\C,6.5809170292,21.4805764545,12.4557696906\C,
 6.7688551955,24.2493669791,12.6133548712\C,5.7579426636,22.3083601502,
 11.6329220953\C,5.8844967839,23.7137852929,11.631981991\C,5.4628655547
 ,21.5880147209,10.4057146449\C,5.6441482942,24.445016387,10.3872030468
 \C,5.2559858838,22.2623095927,9.1837896147\C,5.309093085,23.7264447639
 ,9.166123694\C,5.6081506822,21.5297470361,8.0102894703\C,5.6073460589,
 24.3495404039,7.9254620073\C,5.9512524375,22.2065802843,6.786430876\C,
 5.9462147947,23.5848194382,6.7447384271\C,7.0049302674,21.4537653752,6
 .1294810978\C,6.9991108711,24.2968541363,6.0287096936\C,8.0025883401,2
 2.1184412239,5.4341700475\C,8.0052452117,23.5775728035,5.3898092063\C,
 9.3501214743,21.660191784,5.5281116306\C,9.3521888993,24.0300618318,5.
 4748259654\C,11.9311680055,21.6899434682,6.6816960199\C,11.9123111746,
 24.0374142902,6.6766709367\C,10.1947541874,22.84480298,5.4338044133\C,
 11.4389470109,22.8568262455,5.998725106\C,10.1584151863,22.0021031002,
 13.5384244183\C,10.1410607806,23.4715098227,13.5871660085\Cl,11.209944
 9885,28.8644472868,10.1216446066\Cl,7.4499985472,28.9105504441,8.80218
 11805\\Version=ES64L-G16RevA.03\State=1-A\HF=-4121.4235746\RMSD=8.046e
 -09\RMSF=7.976e-05\Dipole=0.0756551,-1.4231567,-0.1483198\Quadrupole=4
 .6343128,-11.8238585,7.1895457,-0.4900843,0.4621626,-0.179764\PG=C01 [
 X(C84Cl2)]\\@


 Sacred cows make the best hamburger.
                               -- Mark Twain
 Job cpu time:       0 days 22 hours 36 minutes 17.1 seconds.
 Elapsed time:       0 days  0 hours 56 minutes 35.9 seconds.
 File lengths (MBytes):  RWF=   1037 Int=      0 D2E=      0 Chk=    131 Scr=      1
 Normal termination of Gaussian 16 at Mon Jun 27 03:28:40 2022.
