 Entering Gaussian System, Link 0=g16
 Input=4_addons_C84_11_Cl22_rank_7.gjf
 Output=4_addons_C84_11_Cl22_rank_7.log
 Initial command:
 /home/mkliu/g16/l1.exe "/data/scratch/Gau-172405.inp" -scrdir="/data/scratch/"
 Entering Link 1 = /home/mkliu/g16/l1.exe PID=    172406.
  
 Copyright (c) 1988,1990,1992,1993,1995,1998,2003,2009,2016,
            Gaussian, Inc.  All Rights Reserved.
  
 This is part of the Gaussian(R) 16 program.  It is based on
 the Gaussian(R) 09 system (copyright 2009, Gaussian, Inc.),
 the Gaussian(R) 03 system (copyright 2003, Gaussian, Inc.),
 the Gaussian(R) 98 system (copyright 1998, Gaussian, Inc.),
 the Gaussian(R) 94 system (copyright 1995, Gaussian, Inc.),
 the Gaussian 92(TM) system (copyright 1992, Gaussian, Inc.),
 the Gaussian 90(TM) system (copyright 1990, Gaussian, Inc.),
 the Gaussian 88(TM) system (copyright 1988, Gaussian, Inc.),
 the Gaussian 86(TM) system (copyright 1986, Carnegie Mellon
 University), and the Gaussian 82(TM) system (copyright 1983,
 Carnegie Mellon University). Gaussian is a federally registered
 trademark of Gaussian, Inc.
  
 This software contains proprietary and confidential information,
 including trade secrets, belonging to Gaussian, Inc.
  
 This software is provided under written license and may be
 used, copied, transmitted, or stored only in accord with that
 written license.
  
 The following legend is applicable only to US Government
 contracts under FAR:
  
                    RESTRICTED RIGHTS LEGEND
  
 Use, reproduction and disclosure by the US Government is
 subject to restrictions as set forth in subparagraphs (a)
 and (c) of the Commercial Computer Software - Restricted
 Rights clause in FAR 52.227-19.
  
 Gaussian, Inc.
 340 Quinnipiac St., Bldg. 40, Wallingford CT 06492
  
  
 ---------------------------------------------------------------
 Warning -- This program may not be used in any manner that
 competes with the business of Gaussian, Inc. or will provide
 assistance to any competitor of Gaussian, Inc.  The licensee
 of this program is prohibited from giving any competitor of
 Gaussian, Inc. access to this program.  By using this program,
 the user acknowledges that Gaussian, Inc. is engaged in the
 business of creating and licensing software in the field of
 computational chemistry and represents and warrants to the
 licensee that it is not a competitor of Gaussian, Inc. and that
 it will not use this program in any manner prohibited above.
 ---------------------------------------------------------------
  

 Cite this work as:
 Gaussian 16, Revision A.03,
 M. J. Frisch, G. W. Trucks, H. B. Schlegel, G. E. Scuseria, 
 M. A. Robb, J. R. Cheeseman, G. Scalmani, V. Barone, 
 G. A. Petersson, H. Nakatsuji, X. Li, M. Caricato, A. V. Marenich, 
 J. Bloino, B. G. Janesko, R. Gomperts, B. Mennucci, H. P. Hratchian, 
 J. V. Ortiz, A. F. Izmaylov, J. L. Sonnenberg, D. Williams-Young, 
 F. Ding, F. Lipparini, F. Egidi, J. Goings, B. Peng, A. Petrone, 
 T. Henderson, D. Ranasinghe, V. G. Zakrzewski, J. Gao, N. Rega, 
 G. Zheng, W. Liang, M. Hada, M. Ehara, K. Toyota, R. Fukuda, 
 J. Hasegawa, M. Ishida, T. Nakajima, Y. Honda, O. Kitao, H. Nakai, 
 T. Vreven, K. Throssell, J. A. Montgomery, Jr., J. E. Peralta, 
 F. Ogliaro, M. J. Bearpark, J. J. Heyd, E. N. Brothers, K. N. Kudin, 
 V. N. Staroverov, T. A. Keith, R. Kobayashi, J. Normand, 
 K. Raghavachari, A. P. Rendell, J. C. Burant, S. S. Iyengar, 
 J. Tomasi, M. Cossi, J. M. Millam, M. Klene, C. Adamo, R. Cammi, 
 J. W. Ochterski, R. L. Martin, K. Morokuma, O. Farkas, 
 J. B. Foresman, and D. J. Fox, Gaussian, Inc., Wallingford CT, 2016.
 
 ******************************************
 Gaussian 16:  ES64L-G16RevA.03 25-Dec-2016
                30-Jun-2022 
 ******************************************
 %mem=10GB
 %chk=4_addons_C84_11_Cl22_rank_7.chk
 %nprocshared=48
 Will use up to   48 processors via shared memory.
 ------------------------------------------------
 #P opt b3lyp/6-31G(d, p) empiricaldispersion=GD3
 ------------------------------------------------
 1/18=20,19=15,26=3,38=1/1,3;
 2/9=110,12=2,17=6,18=5,40=1/2;
 3/5=1,6=6,7=101,11=2,25=1,30=1,71=1,74=-5,124=31/1,2,3;
 4//1;
 5/5=2,38=5/2;
 6/7=2,8=2,9=2,10=2,28=1/1;
 7//1,2,3,16;
 1/18=20,19=15,26=3/3(2);
 2/9=110/2;
 99//99;
 2/9=110/2;
 3/5=1,6=6,7=101,11=2,25=1,30=1,71=1,74=-5,124=31/1,2,3;
 4/5=5,16=3,69=1/1;
 5/5=2,38=5/2;
 7//1,2,3,16;
 1/18=20,19=15,26=3/3(-5);
 2/9=110/2;
 6/7=2,8=2,9=2,10=2,19=2,28=1/1;
 99/9=1/99;
 Leave Link    1 at Thu Jun 30 12:22:08 2022, MaxMem=  1342177280 cpu:               2.1 elap:               0.1
 (Enter /home/mkliu/g16/l101.exe)
 -----
 force
 -----
 Symbolic Z-matrix:
 Charge =  0 Multiplicity = 1
 C                     8.50192   18.85692   10.76834 
 C                     12.36289   20.14887   8.95984 
 C                     8.29016   26.87896   10.5548 
 C                     12.24892   25.55771   8.98473 
 C                     8.02187   19.07872   9.45874 
 C                     12.04351   19.50494   10.19438 
 C                     7.89071   27.10518   9.11161 
 C                     11.86584   26.15579   10.2061 
 C                     8.98133   19.17882   8.37995 
 C                     12.31959   20.15078   11.38034 
 C                     12.10951   25.48719   11.37166 
 C                     8.9645    26.62044   8.16922 
 C                     10.34097   19.02033   8.69063 
 C                     10.24785   26.66894   8.62517 
 C                     10.80262   18.79436   10.02175 
 C                     10.67527   27.05647   10.02297 
 C                     9.89039   18.7353   11.0556 
 C                     9.57628   26.77956   11.01523 
 C                     10.1697   19.41989   12.2967 
 C                     9.85149   26.04243   12.22439 
 C                     8.95495   19.98938   12.78013 
 C                     8.78472   25.40872   12.89285 
 C                     7.91274   19.51916   11.90197 
 C                     7.46576   25.4813   12.36321 
 C                     6.76472   20.24904   11.74767 
 C                     7.22894   26.18865   11.21264 
 C                     6.13902   20.33276   10.4675 
 C                     6.28735   25.6995   10.24367 
 C                     6.75257   19.75743   9.33471 
 C                     6.67125   26.23766   9.00598 
 C                     6.41883   20.34978   8.10918 
 C                     6.38437   25.54739   7.85609 
 C                     7.33799   20.34701   7.00932 
 C                     7.32177   25.47132   6.77083 
 C                     8.6571    19.9086   7.16572 
 C                     8.6599    25.84292   6.99434 
 C                     9.6921    20.60183   6.4244 
 C                     9.71146   25.09925   6.35193 
 C                     11.03641   20.59572   6.92187 
 C                     12.7468   22.17484   7.7614 
 C                     12.77843   23.58314   7.74799 
 C                     10.98987   25.10953   6.88086 
 C                     11.35342   19.78742   8.01994 
 C                     12.96822   21.4263   8.93771 
 C                     12.92082   24.29356   8.9316 
 C                     11.26394   25.88949   8.01713 
 C                     13.22269   22.13329   10.16662 
 C                     13.1746   23.578    10.16277 
 C                     12.92746   21.44994   11.36941 
 C                     12.81979   24.23528   11.35403 
 C                     12.40814   22.14335   12.50237 
 C                     12.36264   23.51448   12.48971 
 C                     11.35445   20.10974   12.45488 
 C                     11.114    25.44116   12.42 
 C                     11.34056   21.38131   13.10075 
 C                     11.24812   24.19944   13.08359 
 C                     8.90462   21.27586   13.35345 
 C                     8.91255   24.12839   13.50739 
 C                     7.66239   22.01192   13.21844 
 C                     7.67825   23.41394   13.32225 
 C                     6.60776   21.49144   12.43804 
 C                     6.79015   24.23621   12.58204 
 C                     5.78833   22.3141   11.6139 
 C                     5.90642   23.71309   11.60696 
 C                     5.4935    21.59968   10.40522 
 C                     5.66815   24.43217   10.37677 
 C                     5.28123   22.26978   9.18976 
 C                     5.33991   23.71787   9.16935 
 C                     5.62009   21.53072   8.03103 
 C                     5.63495   24.33166   7.93361 
 C                     5.95146   22.19257   6.80838 
 C                     5.96056   23.57452   6.76304 
 C                     6.99648   21.45847   6.17067 
 C                     6.99779   24.2645   6.04426 
 C                     7.9919    22.13825   5.48985 
 C                     7.97402   23.56119   5.39032 
 C                     9.33918   21.69707   5.60972 
 C                     9.36958   24.09511   5.26113 
 C                     11.85981   21.72744   6.7361 
 C                     12.05469   24.10451   6.5229 
 C                     10.18098   22.83991   5.44563 
 C                     11.4156   22.85444   6.00483 
 C                     10.14992   22.00118   13.51966 
 C                     10.13714   23.45346   13.56158 
 Cl                    11.14897   28.80348   10.09495 
 Cl                    7.53016   28.85067   8.7802 
 Cl                    13.21423   24.8538   5.35103 
 Cl                    9.6514    24.89855   3.65802 
 
 ITRead=  0  0  0  0  0  0  0  0  0  0  0  0  0  0  0  0  0  0  0  0
 ITRead=  0  0  0  0  0  0  0  0  0  0  0  0  0  0  0  0  0  0  0  0
 ITRead=  0  0  0  0  0  0  0  0  0  0  0  0  0  0  0  0  0  0  0  0
 ITRead=  0  0  0  0  0  0  0  0  0  0  0  0  0  0  0  0  0  0  0  0
 ITRead=  0  0  0  0  0  0  0  0
 MicOpt= -1 -1 -1 -1 -1 -1 -1 -1 -1 -1 -1 -1 -1 -1 -1 -1 -1 -1 -1 -1
 MicOpt= -1 -1 -1 -1 -1 -1 -1 -1 -1 -1 -1 -1 -1 -1 -1 -1 -1 -1 -1 -1
 MicOpt= -1 -1 -1 -1 -1 -1 -1 -1 -1 -1 -1 -1 -1 -1 -1 -1 -1 -1 -1 -1
 MicOpt= -1 -1 -1 -1 -1 -1 -1 -1 -1 -1 -1 -1 -1 -1 -1 -1 -1 -1 -1 -1
 MicOpt= -1 -1 -1 -1 -1 -1 -1 -1
 NAtoms=     88 NQM=       88 NQMF=       0 NMMI=      0 NMMIF=      0
                NMic=       0 NMicF=      0.
                    Isotopes and Nuclear Properties:
 (Nuclear quadrupole moments (NQMom) in fm**2, nuclear magnetic moments (NMagM)
  in nuclear magnetons)

  Atom         1           2           3           4           5           6           7           8           9          10
 IAtWgt=          12          12          12          12          12          12          12          12          12          12
 AtmWgt=  12.0000000  12.0000000  12.0000000  12.0000000  12.0000000  12.0000000  12.0000000  12.0000000  12.0000000  12.0000000
 NucSpn=           0           0           0           0           0           0           0           0           0           0
 AtZEff=  -0.0000000  -0.0000000  -0.0000000  -0.0000000  -0.0000000  -0.0000000  -0.0000000  -0.0000000  -0.0000000  -0.0000000
 NQMom=    0.0000000   0.0000000   0.0000000   0.0000000   0.0000000   0.0000000   0.0000000   0.0000000   0.0000000   0.0000000
 NMagM=    0.0000000   0.0000000   0.0000000   0.0000000   0.0000000   0.0000000   0.0000000   0.0000000   0.0000000   0.0000000
 AtZNuc=   6.0000000   6.0000000   6.0000000   6.0000000   6.0000000   6.0000000   6.0000000   6.0000000   6.0000000   6.0000000

  Atom        11          12          13          14          15          16          17          18          19          20
 IAtWgt=          12          12          12          12          12          12          12          12          12          12
 AtmWgt=  12.0000000  12.0000000  12.0000000  12.0000000  12.0000000  12.0000000  12.0000000  12.0000000  12.0000000  12.0000000
 NucSpn=           0           0           0           0           0           0           0           0           0           0
 AtZEff=  -0.0000000  -0.0000000  -0.0000000  -0.0000000  -0.0000000  -0.0000000  -0.0000000  -0.0000000  -0.0000000  -0.0000000
 NQMom=    0.0000000   0.0000000   0.0000000   0.0000000   0.0000000   0.0000000   0.0000000   0.0000000   0.0000000   0.0000000
 NMagM=    0.0000000   0.0000000   0.0000000   0.0000000   0.0000000   0.0000000   0.0000000   0.0000000   0.0000000   0.0000000
 AtZNuc=   6.0000000   6.0000000   6.0000000   6.0000000   6.0000000   6.0000000   6.0000000   6.0000000   6.0000000   6.0000000

  Atom        21          22          23          24          25          26          27          28          29          30
 IAtWgt=          12          12          12          12          12          12          12          12          12          12
 AtmWgt=  12.0000000  12.0000000  12.0000000  12.0000000  12.0000000  12.0000000  12.0000000  12.0000000  12.0000000  12.0000000
 NucSpn=           0           0           0           0           0           0           0           0           0           0
 AtZEff=  -0.0000000  -0.0000000  -0.0000000  -0.0000000  -0.0000000  -0.0000000  -0.0000000  -0.0000000  -0.0000000  -0.0000000
 NQMom=    0.0000000   0.0000000   0.0000000   0.0000000   0.0000000   0.0000000   0.0000000   0.0000000   0.0000000   0.0000000
 NMagM=    0.0000000   0.0000000   0.0000000   0.0000000   0.0000000   0.0000000   0.0000000   0.0000000   0.0000000   0.0000000
 AtZNuc=   6.0000000   6.0000000   6.0000000   6.0000000   6.0000000   6.0000000   6.0000000   6.0000000   6.0000000   6.0000000

  Atom        31          32          33          34          35          36          37          38          39          40
 IAtWgt=          12          12          12          12          12          12          12          12          12          12
 AtmWgt=  12.0000000  12.0000000  12.0000000  12.0000000  12.0000000  12.0000000  12.0000000  12.0000000  12.0000000  12.0000000
 NucSpn=           0           0           0           0           0           0           0           0           0           0
 AtZEff=  -0.0000000  -0.0000000  -0.0000000  -0.0000000  -0.0000000  -0.0000000  -0.0000000  -0.0000000  -0.0000000  -0.0000000
 NQMom=    0.0000000   0.0000000   0.0000000   0.0000000   0.0000000   0.0000000   0.0000000   0.0000000   0.0000000   0.0000000
 NMagM=    0.0000000   0.0000000   0.0000000   0.0000000   0.0000000   0.0000000   0.0000000   0.0000000   0.0000000   0.0000000
 AtZNuc=   6.0000000   6.0000000   6.0000000   6.0000000   6.0000000   6.0000000   6.0000000   6.0000000   6.0000000   6.0000000

  Atom        41          42          43          44          45          46          47          48          49          50
 IAtWgt=          12          12          12          12          12          12          12          12          12          12
 AtmWgt=  12.0000000  12.0000000  12.0000000  12.0000000  12.0000000  12.0000000  12.0000000  12.0000000  12.0000000  12.0000000
 NucSpn=           0           0           0           0           0           0           0           0           0           0
 AtZEff=  -0.0000000  -0.0000000  -0.0000000  -0.0000000  -0.0000000  -0.0000000  -0.0000000  -0.0000000  -0.0000000  -0.0000000
 NQMom=    0.0000000   0.0000000   0.0000000   0.0000000   0.0000000   0.0000000   0.0000000   0.0000000   0.0000000   0.0000000
 NMagM=    0.0000000   0.0000000   0.0000000   0.0000000   0.0000000   0.0000000   0.0000000   0.0000000   0.0000000   0.0000000
 AtZNuc=   6.0000000   6.0000000   6.0000000   6.0000000   6.0000000   6.0000000   6.0000000   6.0000000   6.0000000   6.0000000

  Atom        51          52          53          54          55          56          57          58          59          60
 IAtWgt=          12          12          12          12          12          12          12          12          12          12
 AtmWgt=  12.0000000  12.0000000  12.0000000  12.0000000  12.0000000  12.0000000  12.0000000  12.0000000  12.0000000  12.0000000
 NucSpn=           0           0           0           0           0           0           0           0           0           0
 AtZEff=  -0.0000000  -0.0000000  -0.0000000  -0.0000000  -0.0000000  -0.0000000  -0.0000000  -0.0000000  -0.0000000  -0.0000000
 NQMom=    0.0000000   0.0000000   0.0000000   0.0000000   0.0000000   0.0000000   0.0000000   0.0000000   0.0000000   0.0000000
 NMagM=    0.0000000   0.0000000   0.0000000   0.0000000   0.0000000   0.0000000   0.0000000   0.0000000   0.0000000   0.0000000
 AtZNuc=   6.0000000   6.0000000   6.0000000   6.0000000   6.0000000   6.0000000   6.0000000   6.0000000   6.0000000   6.0000000

  Atom        61          62          63          64          65          66          67          68          69          70
 IAtWgt=          12          12          12          12          12          12          12          12          12          12
 AtmWgt=  12.0000000  12.0000000  12.0000000  12.0000000  12.0000000  12.0000000  12.0000000  12.0000000  12.0000000  12.0000000
 NucSpn=           0           0           0           0           0           0           0           0           0           0
 AtZEff=  -0.0000000  -0.0000000  -0.0000000  -0.0000000  -0.0000000  -0.0000000  -0.0000000  -0.0000000  -0.0000000  -0.0000000
 NQMom=    0.0000000   0.0000000   0.0000000   0.0000000   0.0000000   0.0000000   0.0000000   0.0000000   0.0000000   0.0000000
 NMagM=    0.0000000   0.0000000   0.0000000   0.0000000   0.0000000   0.0000000   0.0000000   0.0000000   0.0000000   0.0000000
 AtZNuc=   6.0000000   6.0000000   6.0000000   6.0000000   6.0000000   6.0000000   6.0000000   6.0000000   6.0000000   6.0000000

  Atom        71          72          73          74          75          76          77          78          79          80
 IAtWgt=          12          12          12          12          12          12          12          12          12          12
 AtmWgt=  12.0000000  12.0000000  12.0000000  12.0000000  12.0000000  12.0000000  12.0000000  12.0000000  12.0000000  12.0000000
 NucSpn=           0           0           0           0           0           0           0           0           0           0
 AtZEff=  -0.0000000  -0.0000000  -0.0000000  -0.0000000  -0.0000000  -0.0000000  -0.0000000  -0.0000000  -0.0000000  -0.0000000
 NQMom=    0.0000000   0.0000000   0.0000000   0.0000000   0.0000000   0.0000000   0.0000000   0.0000000   0.0000000   0.0000000
 NMagM=    0.0000000   0.0000000   0.0000000   0.0000000   0.0000000   0.0000000   0.0000000   0.0000000   0.0000000   0.0000000
 AtZNuc=   6.0000000   6.0000000   6.0000000   6.0000000   6.0000000   6.0000000   6.0000000   6.0000000   6.0000000   6.0000000

  Atom        81          82          83          84          85          86          87          88
 IAtWgt=          12          12          12          12          35          35          35          35
 AtmWgt=  12.0000000  12.0000000  12.0000000  12.0000000  34.9688527  34.9688527  34.9688527  34.9688527
 NucSpn=           0           0           0           0           3           3           3           3
 AtZEff=  -0.0000000  -0.0000000  -0.0000000  -0.0000000  -0.0000000  -0.0000000  -0.0000000  -0.0000000
 NQMom=    0.0000000   0.0000000   0.0000000   0.0000000  -8.1650000  -8.1650000  -8.1650000  -8.1650000
 NMagM=    0.0000000   0.0000000   0.0000000   0.0000000   0.8218740   0.8218740   0.8218740   0.8218740
 AtZNuc=   6.0000000   6.0000000   6.0000000   6.0000000  17.0000000  17.0000000  17.0000000  17.0000000
 Leave Link  101 at Thu Jun 30 12:22:09 2022, MaxMem=  1342177280 cpu:              14.9 elap:               0.3
 (Enter /home/mkliu/g16/l103.exe)

 GradGradGradGradGradGradGradGradGradGradGradGradGradGradGradGradGradGrad
 Berny optimization.
 Initialization pass.
                           ----------------------------
                           !    Initial Parameters    !
                           ! (Angstroms and Degrees)  !
 --------------------------                            --------------------------
 ! Name  Definition              Value          Derivative Info.                !
 --------------------------------------------------------------------------------
 ! R1    R(1,5)                  1.4123         estimate D2E/DX2                !
 ! R2    R(1,17)                 1.4231         estimate D2E/DX2                !
 ! R3    R(1,23)                 1.439          estimate D2E/DX2                !
 ! R4    R(2,6)                  1.4285         estimate D2E/DX2                !
 ! R5    R(2,43)                 1.4259         estimate D2E/DX2                !
 ! R6    R(2,44)                 1.4138         estimate D2E/DX2                !
 ! R7    R(3,7)                  1.5144         estimate D2E/DX2                !
 ! R8    R(3,18)                 1.3697         estimate D2E/DX2                !
 ! R9    R(3,26)                 1.4267         estimate D2E/DX2                !
 ! R10   R(4,8)                  1.4129         estimate D2E/DX2                !
 ! R11   R(4,45)                 1.4326         estimate D2E/DX2                !
 ! R12   R(4,46)                 1.42           estimate D2E/DX2                !
 ! R13   R(5,9)                  1.4472         estimate D2E/DX2                !
 ! R14   R(5,29)                 1.4447         estimate D2E/DX2                !
 ! R15   R(6,10)                 1.3783         estimate D2E/DX2                !
 ! R16   R(6,15)                 1.4403         estimate D2E/DX2                !
 ! R17   R(7,12)                 1.5087         estimate D2E/DX2                !
 ! R18   R(7,30)                 1.5003         estimate D2E/DX2                !
 ! R19   R(7,86)                 1.8129         estimate D2E/DX2                !
 ! R20   R(8,11)                 1.3656         estimate D2E/DX2                !
 ! R21   R(8,16)                 1.5041         estimate D2E/DX2                !
 ! R22   R(9,13)                 1.4037         estimate D2E/DX2                !
 ! R23   R(9,35)                 1.4533         estimate D2E/DX2                !
 ! R24   R(10,49)                1.4344         estimate D2E/DX2                !
 ! R25   R(10,53)                1.4449         estimate D2E/DX2                !
 ! R26   R(11,50)                1.4395         estimate D2E/DX2                !
 ! R27   R(11,54)                1.4464         estimate D2E/DX2                !
 ! R28   R(12,14)                1.3628         estimate D2E/DX2                !
 ! R29   R(12,36)                1.4414         estimate D2E/DX2                !
 ! R30   R(13,15)                1.4269         estimate D2E/DX2                !
 ! R31   R(13,43)                1.4364         estimate D2E/DX2                !
 ! R32   R(14,16)                1.5122         estimate D2E/DX2                !
 ! R33   R(14,46)                1.4176         estimate D2E/DX2                !
 ! R34   R(15,17)                1.38           estimate D2E/DX2                !
 ! R35   R(16,18)                1.5063         estimate D2E/DX2                !
 ! R36   R(16,85)                1.8115         estimate D2E/DX2                !
 ! R37   R(17,19)                1.4446         estimate D2E/DX2                !
 ! R38   R(18,20)                1.4426         estimate D2E/DX2                !
 ! R39   R(19,21)                1.4261         estimate D2E/DX2                !
 ! R40   R(19,53)                1.38           estimate D2E/DX2                !
 ! R41   R(20,22)                1.4094         estimate D2E/DX2                !
 ! R42   R(20,54)                1.412          estimate D2E/DX2                !
 ! R43   R(21,23)                1.4417         estimate D2E/DX2                !
 ! R44   R(21,57)                1.4093         estimate D2E/DX2                !
 ! R45   R(22,24)                1.4232         estimate D2E/DX2                !
 ! R46   R(22,58)                1.4259         estimate D2E/DX2                !
 ! R47   R(23,25)                1.3691         estimate D2E/DX2                !
 ! R48   R(24,26)                1.3712         estimate D2E/DX2                !
 ! R49   R(24,62)                1.4334         estimate D2E/DX2                !
 ! R50   R(25,27)                1.4274         estimate D2E/DX2                !
 ! R51   R(25,61)                1.43           estimate D2E/DX2                !
 ! R52   R(26,28)                1.4369         estimate D2E/DX2                !
 ! R53   R(27,29)                1.4109         estimate D2E/DX2                !
 ! R54   R(27,65)                1.4233         estimate D2E/DX2                !
 ! R55   R(28,30)                1.4032         estimate D2E/DX2                !
 ! R56   R(28,66)                1.4168         estimate D2E/DX2                !
 ! R57   R(29,31)                1.4015         estimate D2E/DX2                !
 ! R58   R(30,32)                1.3715         estimate D2E/DX2                !
 ! R59   R(31,33)                1.4334         estimate D2E/DX2                !
 ! R60   R(31,69)                1.4278         estimate D2E/DX2                !
 ! R61   R(32,34)                1.4361         estimate D2E/DX2                !
 ! R62   R(32,70)                1.4303         estimate D2E/DX2                !
 ! R63   R(33,35)                1.3988         estimate D2E/DX2                !
 ! R64   R(33,73)                1.4336         estimate D2E/DX2                !
 ! R65   R(34,36)                1.4066         estimate D2E/DX2                !
 ! R66   R(34,74)                1.4454         estimate D2E/DX2                !
 ! R67   R(35,37)                1.4496         estimate D2E/DX2                !
 ! R68   R(36,38)                1.4393         estimate D2E/DX2                !
 ! R69   R(37,39)                1.4334         estimate D2E/DX2                !
 ! R70   R(37,77)                1.4099         estimate D2E/DX2                !
 ! R71   R(38,42)                1.3835         estimate D2E/DX2                !
 ! R72   R(38,78)                1.5215         estimate D2E/DX2                !
 ! R73   R(39,43)                1.3999         estimate D2E/DX2                !
 ! R74   R(39,79)                1.4118         estimate D2E/DX2                !
 ! R75   R(40,41)                1.4087         estimate D2E/DX2                !
 ! R76   R(40,44)                1.4117         estimate D2E/DX2                !
 ! R77   R(40,79)                1.4276         estimate D2E/DX2                !
 ! R78   R(41,45)                1.3878         estimate D2E/DX2                !
 ! R79   R(41,80)                1.5154         estimate D2E/DX2                !
 ! R80   R(42,46)                1.4052         estimate D2E/DX2                !
 ! R81   R(42,80)                1.5073         estimate D2E/DX2                !
 ! R82   R(44,47)                1.4404         estimate D2E/DX2                !
 ! R83   R(45,48)                1.4464         estimate D2E/DX2                !
 ! R84   R(47,48)                1.4455         estimate D2E/DX2                !
 ! R85   R(47,49)                1.4145         estimate D2E/DX2                !
 ! R86   R(48,50)                1.4061         estimate D2E/DX2                !
 ! R87   R(49,51)                1.4262         estimate D2E/DX2                !
 ! R88   R(50,52)                1.4207         estimate D2E/DX2                !
 ! R89   R(51,52)                1.3719         estimate D2E/DX2                !
 ! R90   R(51,55)                1.4417         estimate D2E/DX2                !
 ! R91   R(52,56)                1.4367         estimate D2E/DX2                !
 ! R92   R(53,55)                1.4263         estimate D2E/DX2                !
 ! R93   R(54,56)                1.4143         estimate D2E/DX2                !
 ! R94   R(55,83)                1.4062         estimate D2E/DX2                !
 ! R95   R(56,84)                1.421          estimate D2E/DX2                !
 ! R96   R(57,59)                1.4502         estimate D2E/DX2                !
 ! R97   R(57,83)                1.4507         estimate D2E/DX2                !
 ! R98   R(58,60)                1.4381         estimate D2E/DX2                !
 ! R99   R(58,84)                1.3993         estimate D2E/DX2                !
 ! R100  R(59,60)                1.4059         estimate D2E/DX2                !
 ! R101  R(59,61)                1.4114         estimate D2E/DX2                !
 ! R102  R(60,62)                1.4187         estimate D2E/DX2                !
 ! R103  R(61,63)                1.4239         estimate D2E/DX2                !
 ! R104  R(62,64)                1.4161         estimate D2E/DX2                !
 ! R105  R(63,64)                1.404          estimate D2E/DX2                !
 ! R106  R(63,65)                1.4347         estimate D2E/DX2                !
 ! R107  R(64,66)                1.4447         estimate D2E/DX2                !
 ! R108  R(65,67)                1.4041         estimate D2E/DX2                !
 ! R109  R(66,68)                1.4408         estimate D2E/DX2                !
 ! R110  R(67,68)                1.4494         estimate D2E/DX2                !
 ! R111  R(67,69)                1.4155         estimate D2E/DX2                !
 ! R112  R(68,70)                1.411          estimate D2E/DX2                !
 ! R113  R(69,71)                1.4292         estimate D2E/DX2                !
 ! R114  R(70,72)                1.4316         estimate D2E/DX2                !
 ! R115  R(71,72)                1.3827         estimate D2E/DX2                !
 ! R116  R(71,73)                1.4275         estimate D2E/DX2                !
 ! R117  R(72,74)                1.4382         estimate D2E/DX2                !
 ! R118  R(73,75)                1.3844         estimate D2E/DX2                !
 ! R119  R(74,76)                1.3694         estimate D2E/DX2                !
 ! R120  R(75,76)                1.4265         estimate D2E/DX2                !
 ! R121  R(75,77)                1.4227         estimate D2E/DX2                !
 ! R122  R(76,78)                1.4998         estimate D2E/DX2                !
 ! R123  R(77,81)                1.4289         estimate D2E/DX2                !
 ! R124  R(78,81)                1.506          estimate D2E/DX2                !
 ! R125  R(78,88)                1.8152         estimate D2E/DX2                !
 ! R126  R(79,82)                1.415          estimate D2E/DX2                !
 ! R127  R(80,82)                1.4965         estimate D2E/DX2                !
 ! R128  R(80,87)                1.8109         estimate D2E/DX2                !
 ! R129  R(81,82)                1.3554         estimate D2E/DX2                !
 ! R130  R(83,84)                1.4529         estimate D2E/DX2                !
 ! A1    A(5,1,17)             122.1563         estimate D2E/DX2                !
 ! A2    A(5,1,23)             121.2674         estimate D2E/DX2                !
 ! A3    A(17,1,23)            106.2464         estimate D2E/DX2                !
 ! A4    A(6,2,43)             107.2846         estimate D2E/DX2                !
 ! A5    A(6,2,44)             121.1006         estimate D2E/DX2                !
 ! A6    A(43,2,44)            121.4568         estimate D2E/DX2                !
 ! A7    A(7,3,18)             125.3699         estimate D2E/DX2                !
 ! A8    A(7,3,26)             108.3899         estimate D2E/DX2                !
 ! A9    A(18,3,26)            120.5538         estimate D2E/DX2                !
 ! A10   A(8,4,45)             122.1923         estimate D2E/DX2                !
 ! A11   A(8,4,46)             107.5812         estimate D2E/DX2                !
 ! A12   A(45,4,46)            120.4121         estimate D2E/DX2                !
 ! A13   A(1,5,9)              118.4718         estimate D2E/DX2                !
 ! A14   A(1,5,29)             116.8733         estimate D2E/DX2                !
 ! A15   A(9,5,29)             119.078          estimate D2E/DX2                !
 ! A16   A(2,6,10)             119.1821         estimate D2E/DX2                !
 ! A17   A(2,6,15)             108.1445         estimate D2E/DX2                !
 ! A18   A(10,6,15)            120.4542         estimate D2E/DX2                !
 ! A19   A(3,7,12)             111.072          estimate D2E/DX2                !
 ! A20   A(3,7,30)             101.251          estimate D2E/DX2                !
 ! A21   A(3,7,86)             111.7455         estimate D2E/DX2                !
 ! A22   A(12,7,30)            110.4109         estimate D2E/DX2                !
 ! A23   A(12,7,86)            109.677          estimate D2E/DX2                !
 ! A24   A(30,7,86)            112.4712         estimate D2E/DX2                !
 ! A25   A(4,8,11)             118.8279         estimate D2E/DX2                !
 ! A26   A(4,8,16)             111.276          estimate D2E/DX2                !
 ! A27   A(11,8,16)            122.5712         estimate D2E/DX2                !
 ! A28   A(5,9,13)             117.9948         estimate D2E/DX2                !
 ! A29   A(5,9,35)             120.6394         estimate D2E/DX2                !
 ! A30   A(13,9,35)            117.2405         estimate D2E/DX2                !
 ! A31   A(6,10,49)            120.18           estimate D2E/DX2                !
 ! A32   A(6,10,53)            119.5228         estimate D2E/DX2                !
 ! A33   A(49,10,53)           108.3282         estimate D2E/DX2                !
 ! A34   A(8,11,50)            120.2249         estimate D2E/DX2                !
 ! A35   A(8,11,54)            120.7546         estimate D2E/DX2                !
 ! A36   A(50,11,54)           108.7116         estimate D2E/DX2                !
 ! A37   A(7,12,14)            116.7326         estimate D2E/DX2                !
 ! A38   A(7,12,36)            122.1445         estimate D2E/DX2                !
 ! A39   A(14,12,36)           119.3996         estimate D2E/DX2                !
 ! A40   A(9,13,15)            122.5301         estimate D2E/DX2                !
 ! A41   A(9,13,43)            121.2717         estimate D2E/DX2                !
 ! A42   A(15,13,43)           106.9838         estimate D2E/DX2                !
 ! A43   A(12,14,16)           125.7711         estimate D2E/DX2                !
 ! A44   A(12,14,46)           120.7902         estimate D2E/DX2                !
 ! A45   A(16,14,46)           109.5595         estimate D2E/DX2                !
 ! A46   A(6,15,13)            108.2049         estimate D2E/DX2                !
 ! A47   A(6,15,17)            120.054          estimate D2E/DX2                !
 ! A48   A(13,15,17)           119.4569         estimate D2E/DX2                !
 ! A49   A(8,16,14)            100.534          estimate D2E/DX2                !
 ! A50   A(8,16,18)            112.7817         estimate D2E/DX2                !
 ! A51   A(8,16,85)            111.449          estimate D2E/DX2                !
 ! A52   A(14,16,18)           110.8287         estimate D2E/DX2                !
 ! A53   A(14,16,85)           110.9645         estimate D2E/DX2                !
 ! A54   A(18,16,85)           109.9919         estimate D2E/DX2                !
 ! A55   A(1,17,15)            119.3447         estimate D2E/DX2                !
 ! A56   A(1,17,19)            108.7579         estimate D2E/DX2                !
 ! A57   A(15,17,19)           119.7032         estimate D2E/DX2                !
 ! A58   A(3,18,16)            116.7628         estimate D2E/DX2                !
 ! A59   A(3,18,20)            119.866          estimate D2E/DX2                !
 ! A60   A(16,18,20)           120.4559         estimate D2E/DX2                !
 ! A61   A(17,19,21)           108.4076         estimate D2E/DX2                !
 ! A62   A(17,19,53)           120.0881         estimate D2E/DX2                !
 ! A63   A(21,19,53)           119.5245         estimate D2E/DX2                !
 ! A64   A(18,20,22)           118.8737         estimate D2E/DX2                !
 ! A65   A(18,20,54)           120.2828         estimate D2E/DX2                !
 ! A66   A(22,20,54)           114.8092         estimate D2E/DX2                !
 ! A67   A(19,21,23)           106.2035         estimate D2E/DX2                !
 ! A68   A(19,21,57)           122.1986         estimate D2E/DX2                !
 ! A69   A(23,21,57)           121.312          estimate D2E/DX2                !
 ! A70   A(20,22,24)           120.1345         estimate D2E/DX2                !
 ! A71   A(20,22,58)           122.7022         estimate D2E/DX2                !
 ! A72   A(24,22,58)           106.814          estimate D2E/DX2                !
 ! A73   A(1,23,21)            109.5101         estimate D2E/DX2                !
 ! A74   A(1,23,25)            119.9903         estimate D2E/DX2                !
 ! A75   A(21,23,25)           120.0622         estimate D2E/DX2                !
 ! A76   A(22,24,26)           119.9097         estimate D2E/DX2                !
 ! A77   A(22,24,62)           109.6154         estimate D2E/DX2                !
 ! A78   A(26,24,62)           119.6557         estimate D2E/DX2                !
 ! A79   A(23,25,27)           119.9948         estimate D2E/DX2                !
 ! A80   A(23,25,61)           120.0527         estimate D2E/DX2                !
 ! A81   A(27,25,61)           109.5077         estimate D2E/DX2                !
 ! A82   A(3,26,24)            120.5323         estimate D2E/DX2                !
 ! A83   A(3,26,28)            109.95           estimate D2E/DX2                !
 ! A84   A(24,26,28)           120.2246         estimate D2E/DX2                !
 ! A85   A(25,27,29)           120.3675         estimate D2E/DX2                !
 ! A86   A(25,27,65)           106.8746         estimate D2E/DX2                !
 ! A87   A(29,27,65)           121.6736         estimate D2E/DX2                !
 ! A88   A(26,28,30)           106.5567         estimate D2E/DX2                !
 ! A89   A(26,28,66)           121.8397         estimate D2E/DX2                !
 ! A90   A(30,28,66)           123.0603         estimate D2E/DX2                !
 ! A91   A(5,29,27)            120.312          estimate D2E/DX2                !
 ! A92   A(5,29,31)            118.872          estimate D2E/DX2                !
 ! A93   A(27,29,31)           115.2249         estimate D2E/DX2                !
 ! A94   A(7,30,28)            112.4611         estimate D2E/DX2                !
 ! A95   A(7,30,32)            121.3378         estimate D2E/DX2                !
 ! A96   A(28,30,32)           119.2932         estimate D2E/DX2                !
 ! A97   A(29,31,33)           121.162          estimate D2E/DX2                !
 ! A98   A(29,31,69)           122.049          estimate D2E/DX2                !
 ! A99   A(33,31,69)           108.5618         estimate D2E/DX2                !
 ! A100  A(30,32,34)           121.5822         estimate D2E/DX2                !
 ! A101  A(30,32,70)           119.4701         estimate D2E/DX2                !
 ! A102  A(34,32,70)           109.7525         estimate D2E/DX2                !
 ! A103  A(31,33,35)           121.3005         estimate D2E/DX2                !
 ! A104  A(31,33,73)           107.1344         estimate D2E/DX2                !
 ! A105  A(35,33,73)           122.21           estimate D2E/DX2                !
 ! A106  A(32,34,36)           119.1359         estimate D2E/DX2                !
 ! A107  A(32,34,74)           106.1282         estimate D2E/DX2                !
 ! A108  A(36,34,74)           120.9083         estimate D2E/DX2                !
 ! A109  A(9,35,33)            117.4636         estimate D2E/DX2                !
 ! A110  A(9,35,37)            120.5387         estimate D2E/DX2                !
 ! A111  A(33,35,37)           117.7906         estimate D2E/DX2                !
 ! A112  A(12,36,34)           118.2323         estimate D2E/DX2                !
 ! A113  A(12,36,38)           119.2179         estimate D2E/DX2                !
 ! A114  A(34,36,38)           119.1835         estimate D2E/DX2                !
 ! A115  A(35,37,39)           119.3467         estimate D2E/DX2                !
 ! A116  A(35,37,77)           119.2267         estimate D2E/DX2                !
 ! A117  A(39,37,77)           116.0148         estimate D2E/DX2                !
 ! A118  A(36,38,42)           120.0413         estimate D2E/DX2                !
 ! A119  A(36,38,78)           119.7899         estimate D2E/DX2                !
 ! A120  A(42,38,78)           119.1172         estimate D2E/DX2                !
 ! A121  A(37,39,43)           119.1484         estimate D2E/DX2                !
 ! A122  A(37,39,79)           119.8597         estimate D2E/DX2                !
 ! A123  A(43,39,79)           115.721          estimate D2E/DX2                !
 ! A124  A(41,40,44)           122.3081         estimate D2E/DX2                !
 ! A125  A(41,40,79)           108.6873         estimate D2E/DX2                !
 ! A126  A(44,40,79)           121.9846         estimate D2E/DX2                !
 ! A127  A(40,41,45)           120.3945         estimate D2E/DX2                !
 ! A128  A(40,41,80)           109.9327         estimate D2E/DX2                !
 ! A129  A(45,41,80)           124.2199         estimate D2E/DX2                !
 ! A130  A(38,42,46)           119.5694         estimate D2E/DX2                !
 ! A131  A(38,42,80)           123.849          estimate D2E/DX2                !
 ! A132  A(46,42,80)           115.1086         estimate D2E/DX2                !
 ! A133  A(2,43,13)            109.0624         estimate D2E/DX2                !
 ! A134  A(2,43,39)            122.0752         estimate D2E/DX2                !
 ! A135  A(13,43,39)           120.9969         estimate D2E/DX2                !
 ! A136  A(2,44,40)            115.1491         estimate D2E/DX2                !
 ! A137  A(2,44,47)            120.3826         estimate D2E/DX2                !
 ! A138  A(40,44,47)           118.5775         estimate D2E/DX2                !
 ! A139  A(4,45,41)            115.7999         estimate D2E/DX2                !
 ! A140  A(4,45,48)            119.1602         estimate D2E/DX2                !
 ! A141  A(41,45,48)           119.3869         estimate D2E/DX2                !
 ! A142  A(4,46,14)            109.4733         estimate D2E/DX2                !
 ! A143  A(4,46,42)            123.8202         estimate D2E/DX2                !
 ! A144  A(14,46,42)           120.8115         estimate D2E/DX2                !
 ! A145  A(44,47,48)           118.8417         estimate D2E/DX2                !
 ! A146  A(44,47,49)           116.8388         estimate D2E/DX2                !
 ! A147  A(48,47,49)           118.5647         estimate D2E/DX2                !
 ! A148  A(45,48,47)           120.1678         estimate D2E/DX2                !
 ! A149  A(45,48,50)           116.4625         estimate D2E/DX2                !
 ! A150  A(47,48,50)           118.2511         estimate D2E/DX2                !
 ! A151  A(10,49,47)           122.1736         estimate D2E/DX2                !
 ! A152  A(10,49,51)           106.2596         estimate D2E/DX2                !
 ! A153  A(47,49,51)           121.1049         estimate D2E/DX2                !
 ! A154  A(11,50,48)           122.7815         estimate D2E/DX2                !
 ! A155  A(11,50,52)           105.8245         estimate D2E/DX2                !
 ! A156  A(48,50,52)           121.4196         estimate D2E/DX2                !
 ! A157  A(49,51,52)           119.383          estimate D2E/DX2                !
 ! A158  A(49,51,55)           110.0211         estimate D2E/DX2                !
 ! A159  A(52,51,55)           120.4991         estimate D2E/DX2                !
 ! A160  A(50,52,51)           120.2495         estimate D2E/DX2                !
 ! A161  A(50,52,56)           109.7659         estimate D2E/DX2                !
 ! A162  A(51,52,56)           119.8944         estimate D2E/DX2                !
 ! A163  A(10,53,19)           120.158          estimate D2E/DX2                !
 ! A164  A(10,53,55)           108.5386         estimate D2E/DX2                !
 ! A165  A(19,53,55)           119.2879         estimate D2E/DX2                !
 ! A166  A(11,54,20)           120.0951         estimate D2E/DX2                !
 ! A167  A(11,54,56)           107.6216         estimate D2E/DX2                !
 ! A168  A(20,54,56)           121.5786         estimate D2E/DX2                !
 ! A169  A(51,55,53)           106.0258         estimate D2E/DX2                !
 ! A170  A(51,55,83)           121.1743         estimate D2E/DX2                !
 ! A171  A(53,55,83)           122.4222         estimate D2E/DX2                !
 ! A172  A(52,56,54)           107.3505         estimate D2E/DX2                !
 ! A173  A(52,56,84)           119.6882         estimate D2E/DX2                !
 ! A174  A(54,56,84)           122.997          estimate D2E/DX2                !
 ! A175  A(21,57,59)           117.1304         estimate D2E/DX2                !
 ! A176  A(21,57,83)           118.1866         estimate D2E/DX2                !
 ! A177  A(59,57,83)           119.4859         estimate D2E/DX2                !
 ! A178  A(22,58,60)           108.2791         estimate D2E/DX2                !
 ! A179  A(22,58,84)           121.8855         estimate D2E/DX2                !
 ! A180  A(60,58,84)           121.0958         estimate D2E/DX2                !
 ! A181  A(57,59,60)           119.3136         estimate D2E/DX2                !
 ! A182  A(57,59,61)           120.2879         estimate D2E/DX2                !
 ! A183  A(60,59,61)           114.6446         estimate D2E/DX2                !
 ! A184  A(58,60,59)           120.9705         estimate D2E/DX2                !
 ! A185  A(58,60,62)           108.4513         estimate D2E/DX2                !
 ! A186  A(59,60,62)           122.1665         estimate D2E/DX2                !
 ! A187  A(25,61,59)           120.3525         estimate D2E/DX2                !
 ! A188  A(25,61,63)           106.601          estimate D2E/DX2                !
 ! A189  A(59,61,63)           122.4779         estimate D2E/DX2                !
 ! A190  A(24,62,60)           106.7415         estimate D2E/DX2                !
 ! A191  A(24,62,64)           120.6568         estimate D2E/DX2                !
 ! A192  A(60,62,64)           122.3978         estimate D2E/DX2                !
 ! A193  A(61,63,64)           122.0162         estimate D2E/DX2                !
 ! A194  A(61,63,65)           108.5532         estimate D2E/DX2                !
 ! A195  A(64,63,65)           120.6188         estimate D2E/DX2                !
 ! A196  A(62,64,63)           114.6563         estimate D2E/DX2                !
 ! A197  A(62,64,66)           120.3559         estimate D2E/DX2                !
 ! A198  A(63,64,66)           119.0974         estimate D2E/DX2                !
 ! A199  A(27,65,63)           108.252          estimate D2E/DX2                !
 ! A200  A(27,65,67)           122.0921         estimate D2E/DX2                !
 ! A201  A(63,65,67)           121.5147         estimate D2E/DX2                !
 ! A202  A(28,66,64)           116.9456         estimate D2E/DX2                !
 ! A203  A(28,66,68)           117.6658         estimate D2E/DX2                !
 ! A204  A(64,66,68)           120.2921         estimate D2E/DX2                !
 ! A205  A(65,67,68)           118.8742         estimate D2E/DX2                !
 ! A206  A(65,67,69)           115.0398         estimate D2E/DX2                !
 ! A207  A(68,67,69)           120.0278         estimate D2E/DX2                !
 ! A208  A(66,68,67)           119.5209         estimate D2E/DX2                !
 ! A209  A(66,68,70)           118.0767         estimate D2E/DX2                !
 ! A210  A(67,68,70)           117.0914         estimate D2E/DX2                !
 ! A211  A(31,69,67)           121.3957         estimate D2E/DX2                !
 ! A212  A(31,69,71)           107.4653         estimate D2E/DX2                !
 ! A213  A(67,69,71)           120.9297         estimate D2E/DX2                !
 ! A214  A(32,70,68)           121.7893         estimate D2E/DX2                !
 ! A215  A(32,70,72)           106.6221         estimate D2E/DX2                !
 ! A216  A(68,70,72)           122.249          estimate D2E/DX2                !
 ! A217  A(69,71,72)           119.4985         estimate D2E/DX2                !
 ! A218  A(69,71,73)           108.2858         estimate D2E/DX2                !
 ! A219  A(72,71,73)           119.6374         estimate D2E/DX2                !
 ! A220  A(70,72,71)           120.0177         estimate D2E/DX2                !
 ! A221  A(70,72,74)           108.5986         estimate D2E/DX2                !
 ! A222  A(71,72,74)           120.04           estimate D2E/DX2                !
 ! A223  A(33,73,71)           108.165          estimate D2E/DX2                !
 ! A224  A(33,73,75)           119.8079         estimate D2E/DX2                !
 ! A225  A(71,73,75)           119.5762         estimate D2E/DX2                !
 ! A226  A(34,74,72)           108.1182         estimate D2E/DX2                !
 ! A227  A(34,74,76)           120.6008         estimate D2E/DX2                !
 ! A228  A(72,74,76)           120.4227         estimate D2E/DX2                !
 ! A229  A(73,75,76)           121.0041         estimate D2E/DX2                !
 ! A230  A(73,75,77)           119.1572         estimate D2E/DX2                !
 ! A231  A(76,75,77)           109.0907         estimate D2E/DX2                !
 ! A232  A(74,76,75)           119.2035         estimate D2E/DX2                !
 ! A233  A(74,76,78)           121.4422         estimate D2E/DX2                !
 ! A234  A(75,76,78)           110.4535         estimate D2E/DX2                !
 ! A235  A(37,77,75)           121.7769         estimate D2E/DX2                !
 ! A236  A(37,77,81)           122.698          estimate D2E/DX2                !
 ! A237  A(75,77,81)           107.4696         estimate D2E/DX2                !
 ! A238  A(38,78,76)           112.4745         estimate D2E/DX2                !
 ! A239  A(38,78,81)           109.9484         estimate D2E/DX2                !
 ! A240  A(38,78,88)           107.8277         estimate D2E/DX2                !
 ! A241  A(76,78,81)           101.1908         estimate D2E/DX2                !
 ! A242  A(76,78,88)           112.217          estimate D2E/DX2                !
 ! A243  A(81,78,88)           113.1701         estimate D2E/DX2                !
 ! A244  A(39,79,40)           121.2688         estimate D2E/DX2                !
 ! A245  A(39,79,82)           121.5578         estimate D2E/DX2                !
 ! A246  A(40,79,82)           108.4573         estimate D2E/DX2                !
 ! A247  A(41,80,42)           112.0114         estimate D2E/DX2                !
 ! A248  A(41,80,82)           101.3283         estimate D2E/DX2                !
 ! A249  A(41,80,87)           111.0818         estimate D2E/DX2                !
 ! A250  A(42,80,82)           109.7242         estimate D2E/DX2                !
 ! A251  A(42,80,87)           109.277          estimate D2E/DX2                !
 ! A252  A(82,80,87)           113.2698         estimate D2E/DX2                !
 ! A253  A(77,81,78)           111.3023         estimate D2E/DX2                !
 ! A254  A(77,81,82)           119.8558         estimate D2E/DX2                !
 ! A255  A(78,81,82)           122.1663         estimate D2E/DX2                !
 ! A256  A(79,82,80)           110.6306         estimate D2E/DX2                !
 ! A257  A(79,82,81)           119.3817         estimate D2E/DX2                !
 ! A258  A(80,82,81)           122.7356         estimate D2E/DX2                !
 ! A259  A(55,83,57)           118.1845         estimate D2E/DX2                !
 ! A260  A(55,83,84)           117.1718         estimate D2E/DX2                !
 ! A261  A(57,83,84)           119.7035         estimate D2E/DX2                !
 ! A262  A(56,84,58)           114.707          estimate D2E/DX2                !
 ! A263  A(56,84,83)           120.5403         estimate D2E/DX2                !
 ! A264  A(58,84,83)           119.2541         estimate D2E/DX2                !
 ! D1    D(17,1,5,9)             0.2484         estimate D2E/DX2                !
 ! D2    D(17,1,5,29)         -153.211          estimate D2E/DX2                !
 ! D3    D(23,1,5,9)           140.4555         estimate D2E/DX2                !
 ! D4    D(23,1,5,29)          -13.0039         estimate D2E/DX2                !
 ! D5    D(5,1,17,15)           -2.0058         estimate D2E/DX2                !
 ! D6    D(5,1,17,19)          140.2975         estimate D2E/DX2                !
 ! D7    D(23,1,17,15)        -147.2689         estimate D2E/DX2                !
 ! D8    D(23,1,17,19)          -4.9655         estimate D2E/DX2                !
 ! D9    D(5,1,23,21)         -136.6592         estimate D2E/DX2                !
 ! D10   D(5,1,23,25)            8.2354         estimate D2E/DX2                !
 ! D11   D(17,1,23,21)           8.9821         estimate D2E/DX2                !
 ! D12   D(17,1,23,25)         153.8767         estimate D2E/DX2                !
 ! D13   D(43,2,6,10)         -144.9999         estimate D2E/DX2                !
 ! D14   D(43,2,6,15)           -2.4457         estimate D2E/DX2                !
 ! D15   D(44,2,6,10)            0.6899         estimate D2E/DX2                !
 ! D16   D(44,2,6,15)          143.2441         estimate D2E/DX2                !
 ! D17   D(6,2,43,13)            5.146          estimate D2E/DX2                !
 ! D18   D(6,2,43,39)          154.4155         estimate D2E/DX2                !
 ! D19   D(44,2,43,13)        -140.3957         estimate D2E/DX2                !
 ! D20   D(44,2,43,39)           8.8739         estimate D2E/DX2                !
 ! D21   D(6,2,44,40)         -155.3553         estimate D2E/DX2                !
 ! D22   D(6,2,44,47)           -2.7553         estimate D2E/DX2                !
 ! D23   D(43,2,44,40)         -14.4753         estimate D2E/DX2                !
 ! D24   D(43,2,44,47)         138.1247         estimate D2E/DX2                !
 ! D25   D(18,3,7,12)           24.9688         estimate D2E/DX2                !
 ! D26   D(18,3,7,30)          142.2086         estimate D2E/DX2                !
 ! D27   D(18,3,7,86)          -97.8633         estimate D2E/DX2                !
 ! D28   D(26,3,7,12)         -128.2792         estimate D2E/DX2                !
 ! D29   D(26,3,7,30)          -11.0394         estimate D2E/DX2                !
 ! D30   D(26,3,7,86)          108.8887         estimate D2E/DX2                !
 ! D31   D(7,3,18,16)            6.4851         estimate D2E/DX2                !
 ! D32   D(7,3,18,20)         -154.2885         estimate D2E/DX2                !
 ! D33   D(26,3,18,16)         156.7485         estimate D2E/DX2                !
 ! D34   D(26,3,18,20)          -4.025          estimate D2E/DX2                !
 ! D35   D(7,3,26,24)          158.7821         estimate D2E/DX2                !
 ! D36   D(7,3,26,28)           12.0802         estimate D2E/DX2                !
 ! D37   D(18,3,26,24)           4.0107         estimate D2E/DX2                !
 ! D38   D(18,3,26,28)        -142.6912         estimate D2E/DX2                !
 ! D39   D(45,4,8,11)           -1.972          estimate D2E/DX2                !
 ! D40   D(45,4,8,16)         -152.8716         estimate D2E/DX2                !
 ! D41   D(46,4,8,11)          143.8162         estimate D2E/DX2                !
 ! D42   D(46,4,8,16)           -7.0834         estimate D2E/DX2                !
 ! D43   D(8,4,45,41)          155.6789         estimate D2E/DX2                !
 ! D44   D(8,4,45,48)            2.3154         estimate D2E/DX2                !
 ! D45   D(46,4,45,41)          14.1052         estimate D2E/DX2                !
 ! D46   D(46,4,45,48)        -139.2583         estimate D2E/DX2                !
 ! D47   D(8,4,46,14)           -1.2117         estimate D2E/DX2                !
 ! D48   D(8,4,46,42)         -154.1905         estimate D2E/DX2                !
 ! D49   D(45,4,46,14)         145.3025         estimate D2E/DX2                !
 ! D50   D(45,4,46,42)          -7.6764         estimate D2E/DX2                !
 ! D51   D(1,5,9,13)             1.3654         estimate D2E/DX2                !
 ! D52   D(1,5,9,35)          -155.1797         estimate D2E/DX2                !
 ! D53   D(29,5,9,13)          154.2322         estimate D2E/DX2                !
 ! D54   D(29,5,9,35)           -2.3129         estimate D2E/DX2                !
 ! D55   D(1,5,29,27)            8.9132         estimate D2E/DX2                !
 ! D56   D(1,5,29,31)          161.2997         estimate D2E/DX2                !
 ! D57   D(9,5,29,27)         -144.3792         estimate D2E/DX2                !
 ! D58   D(9,5,29,31)            8.0073         estimate D2E/DX2                !
 ! D59   D(2,6,10,49)           -0.3683         estimate D2E/DX2                !
 ! D60   D(2,6,10,53)          137.9955         estimate D2E/DX2                !
 ! D61   D(15,6,10,49)        -138.2821         estimate D2E/DX2                !
 ! D62   D(15,6,10,53)           0.0817         estimate D2E/DX2                !
 ! D63   D(2,6,15,13)           -1.1543         estimate D2E/DX2                !
 ! D64   D(2,6,15,17)         -143.1891         estimate D2E/DX2                !
 ! D65   D(10,6,15,13)         140.8358         estimate D2E/DX2                !
 ! D66   D(10,6,15,17)          -1.199          estimate D2E/DX2                !
 ! D67   D(3,7,12,14)          -29.7401         estimate D2E/DX2                !
 ! D68   D(3,7,12,36)          135.1984         estimate D2E/DX2                !
 ! D69   D(30,7,12,14)        -141.2384         estimate D2E/DX2                !
 ! D70   D(30,7,12,36)          23.7001         estimate D2E/DX2                !
 ! D71   D(86,7,12,14)          94.2772         estimate D2E/DX2                !
 ! D72   D(86,7,12,36)        -100.7843         estimate D2E/DX2                !
 ! D73   D(3,7,30,28)            6.6724         estimate D2E/DX2                !
 ! D74   D(3,7,30,32)         -143.9739         estimate D2E/DX2                !
 ! D75   D(12,7,30,28)         124.3935         estimate D2E/DX2                !
 ! D76   D(12,7,30,32)         -26.2528         estimate D2E/DX2                !
 ! D77   D(86,7,30,28)        -112.7382         estimate D2E/DX2                !
 ! D78   D(86,7,30,32)          96.6155         estimate D2E/DX2                !
 ! D79   D(4,8,11,50)            3.8628         estimate D2E/DX2                !
 ! D80   D(4,8,11,54)         -137.2797         estimate D2E/DX2                !
 ! D81   D(16,8,11,50)         151.3306         estimate D2E/DX2                !
 ! D82   D(16,8,11,54)          10.1881         estimate D2E/DX2                !
 ! D83   D(4,8,16,14)           11.6537         estimate D2E/DX2                !
 ! D84   D(4,8,16,18)          129.7121         estimate D2E/DX2                !
 ! D85   D(4,8,16,85)         -105.9957         estimate D2E/DX2                !
 ! D86   D(11,8,16,14)        -137.9759         estimate D2E/DX2                !
 ! D87   D(11,8,16,18)         -19.9175         estimate D2E/DX2                !
 ! D88   D(11,8,16,85)         104.3747         estimate D2E/DX2                !
 ! D89   D(5,9,13,15)           -1.3103         estimate D2E/DX2                !
 ! D90   D(5,9,13,43)         -143.7499         estimate D2E/DX2                !
 ! D91   D(35,9,13,15)         156.0348         estimate D2E/DX2                !
 ! D92   D(35,9,13,43)          13.5953         estimate D2E/DX2                !
 ! D93   D(5,9,35,33)           -8.4146         estimate D2E/DX2                !
 ! D94   D(5,9,35,37)          148.0368         estimate D2E/DX2                !
 ! D95   D(13,9,35,33)        -165.1302         estimate D2E/DX2                !
 ! D96   D(13,9,35,37)          -8.6788         estimate D2E/DX2                !
 ! D97   D(6,10,49,47)           2.1992         estimate D2E/DX2                !
 ! D98   D(6,10,49,51)         147.2076         estimate D2E/DX2                !
 ! D99   D(53,10,49,47)       -140.2815         estimate D2E/DX2                !
 ! D100  D(53,10,49,51)          4.7269         estimate D2E/DX2                !
 ! D101  D(6,10,53,19)           0.4875         estimate D2E/DX2                !
 ! D102  D(6,10,53,55)        -141.847          estimate D2E/DX2                !
 ! D103  D(49,10,53,19)        143.2564         estimate D2E/DX2                !
 ! D104  D(49,10,53,55)          0.9218         estimate D2E/DX2                !
 ! D105  D(8,11,50,48)          -6.502          estimate D2E/DX2                !
 ! D106  D(8,11,50,52)        -152.2945         estimate D2E/DX2                !
 ! D107  D(54,11,50,48)        138.8007         estimate D2E/DX2                !
 ! D108  D(54,11,50,52)         -6.9917         estimate D2E/DX2                !
 ! D109  D(8,11,54,20)           2.7177         estimate D2E/DX2                !
 ! D110  D(8,11,54,56)         147.7174         estimate D2E/DX2                !
 ! D111  D(50,11,54,20)       -142.3682         estimate D2E/DX2                !
 ! D112  D(50,11,54,56)          2.6315         estimate D2E/DX2                !
 ! D113  D(7,12,14,16)           5.3225         estimate D2E/DX2                !
 ! D114  D(7,12,14,46)         160.7777         estimate D2E/DX2                !
 ! D115  D(36,12,14,16)       -160.0493         estimate D2E/DX2                !
 ! D116  D(36,12,14,46)         -4.5941         estimate D2E/DX2                !
 ! D117  D(7,12,36,34)          -3.4534         estimate D2E/DX2                !
 ! D118  D(7,12,36,38)        -162.5884         estimate D2E/DX2                !
 ! D119  D(14,12,36,34)        161.0972         estimate D2E/DX2                !
 ! D120  D(14,12,36,38)          1.9622         estimate D2E/DX2                !
 ! D121  D(9,13,15,6)         -142.7283         estimate D2E/DX2                !
 ! D122  D(9,13,15,17)          -0.4285         estimate D2E/DX2                !
 ! D123  D(43,13,15,6)           4.2611         estimate D2E/DX2                !
 ! D124  D(43,13,15,17)        146.561          estimate D2E/DX2                !
 ! D125  D(9,13,43,2)          141.6462         estimate D2E/DX2                !
 ! D126  D(9,13,43,39)          -8.0137         estimate D2E/DX2                !
 ! D127  D(15,13,43,2)          -5.8473         estimate D2E/DX2                !
 ! D128  D(15,13,43,39)       -155.5072         estimate D2E/DX2                !
 ! D129  D(12,14,16,8)         145.5746         estimate D2E/DX2                !
 ! D130  D(12,14,16,18)         26.0931         estimate D2E/DX2                !
 ! D131  D(12,14,16,85)        -96.4199         estimate D2E/DX2                !
 ! D132  D(46,14,16,8)         -12.172          estimate D2E/DX2                !
 ! D133  D(46,14,16,18)       -131.6534         estimate D2E/DX2                !
 ! D134  D(46,14,16,85)        105.8336         estimate D2E/DX2                !
 ! D135  D(12,14,46,4)        -150.1132         estimate D2E/DX2                !
 ! D136  D(12,14,46,42)          3.8167         estimate D2E/DX2                !
 ! D137  D(16,14,46,4)           8.9289         estimate D2E/DX2                !
 ! D138  D(16,14,46,42)        162.8588         estimate D2E/DX2                !
 ! D139  D(6,15,17,1)          139.9067         estimate D2E/DX2                !
 ! D140  D(6,15,17,19)           1.711          estimate D2E/DX2                !
 ! D141  D(13,15,17,1)           2.0628         estimate D2E/DX2                !
 ! D142  D(13,15,17,19)       -136.1328         estimate D2E/DX2                !
 ! D143  D(8,16,18,3)         -142.5234         estimate D2E/DX2                !
 ! D144  D(8,16,18,20)          18.1302         estimate D2E/DX2                !
 ! D145  D(14,16,18,3)         -30.6886         estimate D2E/DX2                !
 ! D146  D(14,16,18,20)        129.965          estimate D2E/DX2                !
 ! D147  D(85,16,18,3)          92.3881         estimate D2E/DX2                !
 ! D148  D(85,16,18,20)       -106.9583         estimate D2E/DX2                !
 ! D149  D(1,17,19,21)          -0.8157         estimate D2E/DX2                !
 ! D150  D(1,17,19,53)        -143.2899         estimate D2E/DX2                !
 ! D151  D(15,17,19,21)        141.3303         estimate D2E/DX2                !
 ! D152  D(15,17,19,53)         -1.1438         estimate D2E/DX2                !
 ! D153  D(3,18,20,22)           1.5155         estimate D2E/DX2                !
 ! D154  D(3,18,20,54)         152.7846         estimate D2E/DX2                !
 ! D155  D(16,18,20,22)       -158.5412         estimate D2E/DX2                !
 ! D156  D(16,18,20,54)         -7.272          estimate D2E/DX2                !
 ! D157  D(17,19,21,23)          6.2404         estimate D2E/DX2                !
 ! D158  D(17,19,21,57)       -139.0999         estimate D2E/DX2                !
 ! D159  D(53,19,21,23)        148.9613         estimate D2E/DX2                !
 ! D160  D(53,19,21,57)          3.6211         estimate D2E/DX2                !
 ! D161  D(17,19,53,10)          0.0315         estimate D2E/DX2                !
 ! D162  D(17,19,53,55)        138.4065         estimate D2E/DX2                !
 ! D163  D(21,19,53,10)       -138.3472         estimate D2E/DX2                !
 ! D164  D(21,19,53,55)          0.0278         estimate D2E/DX2                !
 ! D165  D(18,20,22,24)          1.0747         estimate D2E/DX2                !
 ! D166  D(18,20,22,58)        141.4438         estimate D2E/DX2                !
 ! D167  D(54,20,22,24)       -151.7118         estimate D2E/DX2                !
 ! D168  D(54,20,22,58)        -11.3427         estimate D2E/DX2                !
 ! D169  D(18,20,54,11)         -4.0151         estimate D2E/DX2                !
 ! D170  D(18,20,54,56)       -144.0975         estimate D2E/DX2                !
 ! D171  D(22,20,54,11)        148.3564         estimate D2E/DX2                !
 ! D172  D(22,20,54,56)          8.274          estimate D2E/DX2                !
 ! D173  D(19,21,23,1)          -9.4786         estimate D2E/DX2                !
 ! D174  D(19,21,23,25)       -154.344          estimate D2E/DX2                !
 ! D175  D(57,21,23,1)         136.2384         estimate D2E/DX2                !
 ! D176  D(57,21,23,25)         -8.627          estimate D2E/DX2                !
 ! D177  D(19,21,57,59)        150.8618         estimate D2E/DX2                !
 ! D178  D(19,21,57,83)         -3.5686         estimate D2E/DX2                !
 ! D179  D(23,21,57,59)         10.5949         estimate D2E/DX2                !
 ! D180  D(23,21,57,83)       -143.8354         estimate D2E/DX2                !
 ! D181  D(20,22,24,26)         -1.1256         estimate D2E/DX2                !
 ! D182  D(20,22,24,62)        143.0672         estimate D2E/DX2                !
 ! D183  D(58,22,24,26)       -147.0209         estimate D2E/DX2                !
 ! D184  D(58,22,24,62)         -2.8282         estimate D2E/DX2                !
 ! D185  D(20,22,58,60)       -143.521          estimate D2E/DX2                !
 ! D186  D(20,22,58,84)          4.2649         estimate D2E/DX2                !
 ! D187  D(24,22,58,60)          1.2902         estimate D2E/DX2                !
 ! D188  D(24,22,58,84)        149.0761         estimate D2E/DX2                !
 ! D189  D(1,23,25,27)           1.1493         estimate D2E/DX2                !
 ! D190  D(1,23,25,61)        -140.0591         estimate D2E/DX2                !
 ! D191  D(21,23,25,27)        142.3708         estimate D2E/DX2                !
 ! D192  D(21,23,25,61)          1.1624         estimate D2E/DX2                !
 ! D193  D(22,24,26,3)          -1.368          estimate D2E/DX2                !
 ! D194  D(22,24,26,28)        141.9595         estimate D2E/DX2                !
 ! D195  D(62,24,26,3)        -142.0092         estimate D2E/DX2                !
 ! D196  D(62,24,26,28)          1.3183         estimate D2E/DX2                !
 ! D197  D(22,24,62,60)          3.2671         estimate D2E/DX2                !
 ! D198  D(22,24,62,64)       -142.6995         estimate D2E/DX2                !
 ! D199  D(26,24,62,60)        147.5646         estimate D2E/DX2                !
 ! D200  D(26,24,62,64)          1.598          estimate D2E/DX2                !
 ! D201  D(23,25,27,29)         -5.1186         estimate D2E/DX2                !
 ! D202  D(23,25,27,65)       -149.5772         estimate D2E/DX2                !
 ! D203  D(61,25,27,29)        139.7614         estimate D2E/DX2                !
 ! D204  D(61,25,27,65)         -4.6972         estimate D2E/DX2                !
 ! D205  D(23,25,61,59)          3.7511         estimate D2E/DX2                !
 ! D206  D(23,25,61,63)        149.2295         estimate D2E/DX2                !
 ! D207  D(27,25,61,59)       -141.1054         estimate D2E/DX2                !
 ! D208  D(27,25,61,63)          4.373          estimate D2E/DX2                !
 ! D209  D(3,26,28,30)          -7.6361         estimate D2E/DX2                !
 ! D210  D(3,26,28,66)         141.0726         estimate D2E/DX2                !
 ! D211  D(24,26,28,30)       -154.4562         estimate D2E/DX2                !
 ! D212  D(24,26,28,66)         -5.7475         estimate D2E/DX2                !
 ! D213  D(25,27,29,5)          -0.0742         estimate D2E/DX2                !
 ! D214  D(25,27,29,31)       -153.4154         estimate D2E/DX2                !
 ! D215  D(65,27,29,5)         139.111          estimate D2E/DX2                !
 ! D216  D(65,27,29,31)        -14.2302         estimate D2E/DX2                !
 ! D217  D(25,27,65,63)          3.1677         estimate D2E/DX2                !
 ! D218  D(25,27,65,67)        152.0933         estimate D2E/DX2                !
 ! D219  D(29,27,65,63)       -140.7238         estimate D2E/DX2                !
 ! D220  D(29,27,65,67)          8.2017         estimate D2E/DX2                !
 ! D221  D(26,28,30,7)           0.1448         estimate D2E/DX2                !
 ! D222  D(26,28,30,32)        151.4544         estimate D2E/DX2                !
 ! D223  D(66,28,30,7)        -148.0877         estimate D2E/DX2                !
 ! D224  D(66,28,30,32)          3.222          estimate D2E/DX2                !
 ! D225  D(26,28,66,64)          6.8514         estimate D2E/DX2                !
 ! D226  D(26,28,66,68)       -148.0221         estimate D2E/DX2                !
 ! D227  D(30,28,66,64)        150.4078         estimate D2E/DX2                !
 ! D228  D(30,28,66,68)         -4.4657         estimate D2E/DX2                !
 ! D229  D(5,29,31,33)          -3.0311         estimate D2E/DX2                !
 ! D230  D(5,29,31,69)        -147.8648         estimate D2E/DX2                !
 ! D231  D(27,29,31,33)        150.717          estimate D2E/DX2                !
 ! D232  D(27,29,31,69)          5.8834         estimate D2E/DX2                !
 ! D233  D(7,30,32,34)           8.7671         estimate D2E/DX2                !
 ! D234  D(7,30,32,70)         152.1917         estimate D2E/DX2                !
 ! D235  D(28,30,32,34)       -139.9387         estimate D2E/DX2                !
 ! D236  D(28,30,32,70)          3.486          estimate D2E/DX2                !
 ! D237  D(29,31,33,35)         -8.2299         estimate D2E/DX2                !
 ! D238  D(29,31,33,73)       -155.3958         estimate D2E/DX2                !
 ! D239  D(69,31,33,35)        140.7751         estimate D2E/DX2                !
 ! D240  D(69,31,33,73)         -6.3908         estimate D2E/DX2                !
 ! D241  D(29,31,69,67)          9.0114         estimate D2E/DX2                !
 ! D242  D(29,31,69,71)        154.4246         estimate D2E/DX2                !
 ! D243  D(33,31,69,67)       -139.6637         estimate D2E/DX2                !
 ! D244  D(33,31,69,71)          5.7496         estimate D2E/DX2                !
 ! D245  D(30,32,34,36)         14.5707         estimate D2E/DX2                !
 ! D246  D(30,32,34,74)        155.227          estimate D2E/DX2                !
 ! D247  D(70,32,34,36)       -131.979          estimate D2E/DX2                !
 ! D248  D(70,32,34,74)          8.6773         estimate D2E/DX2                !
 ! D249  D(30,32,70,68)         -9.062          estimate D2E/DX2                !
 ! D250  D(30,32,70,72)       -156.22           estimate D2E/DX2                !
 ! D251  D(34,32,70,68)        138.298          estimate D2E/DX2                !
 ! D252  D(34,32,70,72)         -8.86           estimate D2E/DX2                !
 ! D253  D(31,33,35,9)          13.6768         estimate D2E/DX2                !
 ! D254  D(31,33,35,37)       -143.4326         estimate D2E/DX2                !
 ! D255  D(73,33,35,9)         155.9142         estimate D2E/DX2                !
 ! D256  D(73,33,35,37)         -1.1952         estimate D2E/DX2                !
 ! D257  D(31,33,73,71)          4.578          estimate D2E/DX2                !
 ! D258  D(31,33,73,75)        146.4511         estimate D2E/DX2                !
 ! D259  D(35,33,73,71)       -142.222          estimate D2E/DX2                !
 ! D260  D(35,33,73,75)         -0.349          estimate D2E/DX2                !
 ! D261  D(32,34,36,12)        -16.7435         estimate D2E/DX2                !
 ! D262  D(32,34,36,38)        142.3989         estimate D2E/DX2                !
 ! D263  D(74,34,36,12)       -151.5232         estimate D2E/DX2                !
 ! D264  D(74,34,36,38)          7.6192         estimate D2E/DX2                !
 ! D265  D(32,34,74,72)         -5.0985         estimate D2E/DX2                !
 ! D266  D(32,34,74,76)       -149.4404         estimate D2E/DX2                !
 ! D267  D(36,34,74,72)        134.7053         estimate D2E/DX2                !
 ! D268  D(36,34,74,76)         -9.6366         estimate D2E/DX2                !
 ! D269  D(9,35,37,39)          -1.8735         estimate D2E/DX2                !
 ! D270  D(9,35,37,77)        -154.8913         estimate D2E/DX2                !
 ! D271  D(33,35,37,39)        154.5032         estimate D2E/DX2                !
 ! D272  D(33,35,37,77)          1.4853         estimate D2E/DX2                !
 ! D273  D(12,36,38,42)          1.5628         estimate D2E/DX2                !
 ! D274  D(12,36,38,78)        169.7346         estimate D2E/DX2                !
 ! D275  D(34,36,38,42)       -157.3727         estimate D2E/DX2                !
 ! D276  D(34,36,38,78)         10.7991         estimate D2E/DX2                !
 ! D277  D(35,37,39,43)          7.7685         estimate D2E/DX2                !
 ! D278  D(35,37,39,79)       -145.5037         estimate D2E/DX2                !
 ! D279  D(77,37,39,43)        161.6268         estimate D2E/DX2                !
 ! D280  D(77,37,39,79)          8.3545         estimate D2E/DX2                !
 ! D281  D(35,37,77,75)         -0.2859         estimate D2E/DX2                !
 ! D282  D(35,37,77,81)        144.5287         estimate D2E/DX2                !
 ! D283  D(39,37,77,75)       -154.1772         estimate D2E/DX2                !
 ! D284  D(39,37,77,81)         -9.3626         estimate D2E/DX2                !
 ! D285  D(36,38,42,46)         -2.3889         estimate D2E/DX2                !
 ! D286  D(36,38,42,80)        163.0706         estimate D2E/DX2                !
 ! D287  D(78,38,42,46)       -170.64           estimate D2E/DX2                !
 ! D288  D(78,38,42,80)         -5.1805         estimate D2E/DX2                !
 ! D289  D(36,38,78,76)        -25.4248         estimate D2E/DX2                !
 ! D290  D(36,38,78,81)       -137.3617         estimate D2E/DX2                !
 ! D291  D(36,38,78,88)         98.8301         estimate D2E/DX2                !
 ! D292  D(42,38,78,76)        142.8563         estimate D2E/DX2                !
 ! D293  D(42,38,78,81)         30.9194         estimate D2E/DX2                !
 ! D294  D(42,38,78,88)        -92.8888         estimate D2E/DX2                !
 ! D295  D(37,39,43,2)        -148.7985         estimate D2E/DX2                !
 ! D296  D(37,39,43,13)         -3.0925         estimate D2E/DX2                !
 ! D297  D(79,39,43,2)           5.5471         estimate D2E/DX2                !
 ! D298  D(79,39,43,13)        151.2531         estimate D2E/DX2                !
 ! D299  D(37,39,79,40)        140.521          estimate D2E/DX2                !
 ! D300  D(37,39,79,82)         -3.3472         estimate D2E/DX2                !
 ! D301  D(43,39,79,40)        -13.6304         estimate D2E/DX2                !
 ! D302  D(43,39,79,82)       -157.4986         estimate D2E/DX2                !
 ! D303  D(44,40,41,45)         -5.4523         estimate D2E/DX2                !
 ! D304  D(44,40,41,80)       -160.4425         estimate D2E/DX2                !
 ! D305  D(79,40,41,45)        145.6497         estimate D2E/DX2                !
 ! D306  D(79,40,41,80)         -9.3405         estimate D2E/DX2                !
 ! D307  D(41,40,44,2)         153.7081         estimate D2E/DX2                !
 ! D308  D(41,40,44,47)          0.5849         estimate D2E/DX2                !
 ! D309  D(79,40,44,2)           6.3718         estimate D2E/DX2                !
 ! D310  D(79,40,44,47)       -146.7513         estimate D2E/DX2                !
 ! D311  D(41,40,79,39)       -143.3251         estimate D2E/DX2                !
 ! D312  D(41,40,79,82)          4.6904         estimate D2E/DX2                !
 ! D313  D(44,40,79,39)          7.8889         estimate D2E/DX2                !
 ! D314  D(44,40,79,82)        155.9044         estimate D2E/DX2                !
 ! D315  D(40,41,45,4)        -146.9688         estimate D2E/DX2                !
 ! D316  D(40,41,45,48)          6.3308         estimate D2E/DX2                !
 ! D317  D(80,41,45,4)           4.303          estimate D2E/DX2                !
 ! D318  D(80,41,45,48)        157.6027         estimate D2E/DX2                !
 ! D319  D(40,41,80,42)        126.6831         estimate D2E/DX2                !
 ! D320  D(40,41,80,82)          9.7951         estimate D2E/DX2                !
 ! D321  D(40,41,80,87)       -110.8049         estimate D2E/DX2                !
 ! D322  D(45,41,80,42)        -27.1483         estimate D2E/DX2                !
 ! D323  D(45,41,80,82)       -144.0362         estimate D2E/DX2                !
 ! D324  D(45,41,80,87)         95.3637         estimate D2E/DX2                !
 ! D325  D(38,42,46,4)         149.8795         estimate D2E/DX2                !
 ! D326  D(38,42,46,14)         -0.2051         estimate D2E/DX2                !
 ! D327  D(80,42,46,4)         -16.8075         estimate D2E/DX2                !
 ! D328  D(80,42,46,14)       -166.8921         estimate D2E/DX2                !
 ! D329  D(38,42,80,41)       -134.4329         estimate D2E/DX2                !
 ! D330  D(38,42,80,82)        -22.7162         estimate D2E/DX2                !
 ! D331  D(38,42,80,87)        102.0345         estimate D2E/DX2                !
 ! D332  D(46,42,80,41)         31.6125         estimate D2E/DX2                !
 ! D333  D(46,42,80,82)        143.3292         estimate D2E/DX2                !
 ! D334  D(46,42,80,87)        -91.9201         estimate D2E/DX2                !
 ! D335  D(2,44,47,48)        -148.5831         estimate D2E/DX2                !
 ! D336  D(2,44,47,49)           4.3414         estimate D2E/DX2                !
[...]
 Alpha virt. eigenvalues --    1.18991   1.19559   1.19895   1.19968   1.20381
 Alpha virt. eigenvalues --    1.20633   1.20824   1.21600   1.21766   1.21859
 Alpha virt. eigenvalues --    1.22343   1.22577   1.22772   1.22967   1.23546
 Alpha virt. eigenvalues --    1.23748   1.24040   1.24370   1.24443   1.24980
 Alpha virt. eigenvalues --    1.25218   1.25343   1.25890   1.26054   1.26313
 Alpha virt. eigenvalues --    1.26781   1.27137   1.27206   1.27533   1.28211
 Alpha virt. eigenvalues --    1.28463   1.28829   1.29037   1.29170   1.29383
 Alpha virt. eigenvalues --    1.29946   1.30089   1.30299   1.30563   1.30929
 Alpha virt. eigenvalues --    1.31198   1.31755   1.32030   1.32412   1.32734
 Alpha virt. eigenvalues --    1.33033   1.33371   1.33758   1.34291   1.34364
 Alpha virt. eigenvalues --    1.34555   1.34997   1.35510   1.36257   1.36439
 Alpha virt. eigenvalues --    1.36911   1.37206   1.38087   1.38407   1.38979
 Alpha virt. eigenvalues --    1.39390   1.39592   1.40346   1.40985   1.41373
 Alpha virt. eigenvalues --    1.42143   1.42623   1.43035   1.43462   1.43728
 Alpha virt. eigenvalues --    1.44089   1.44638   1.45317   1.46111   1.46894
 Alpha virt. eigenvalues --    1.47149   1.47890   1.48103   1.48593   1.48882
 Alpha virt. eigenvalues --    1.48989   1.50146   1.50470   1.51222   1.51663
 Alpha virt. eigenvalues --    1.52279   1.53188   1.53633   1.54063   1.54345
 Alpha virt. eigenvalues --    1.54602   1.55058   1.56002   1.56373   1.56792
 Alpha virt. eigenvalues --    1.57437   1.57462   1.57737   1.58096   1.58631
 Alpha virt. eigenvalues --    1.59566   1.59718   1.60028   1.60410   1.61577
 Alpha virt. eigenvalues --    1.62123   1.62804   1.63079   1.63242   1.63645
 Alpha virt. eigenvalues --    1.63739   1.64207   1.64886   1.65231   1.65451
 Alpha virt. eigenvalues --    1.65556   1.65722   1.66023   1.66182   1.66400
 Alpha virt. eigenvalues --    1.66443   1.67266   1.67437   1.67662   1.67835
 Alpha virt. eigenvalues --    1.68143   1.68484   1.68718   1.68990   1.69113
 Alpha virt. eigenvalues --    1.69611   1.69778   1.69932   1.70296   1.70431
 Alpha virt. eigenvalues --    1.70754   1.70967   1.71044   1.71498   1.71762
 Alpha virt. eigenvalues --    1.72002   1.72255   1.72320   1.72500   1.72753
 Alpha virt. eigenvalues --    1.72983   1.73186   1.73262   1.73671   1.73861
 Alpha virt. eigenvalues --    1.74057   1.74340   1.74445   1.74821   1.74906
 Alpha virt. eigenvalues --    1.75206   1.75652   1.75771   1.76142   1.76362
 Alpha virt. eigenvalues --    1.76669   1.76808   1.77101   1.77273   1.77413
 Alpha virt. eigenvalues --    1.77833   1.78084   1.78293   1.78638   1.78894
 Alpha virt. eigenvalues --    1.79012   1.79278   1.79555   1.79767   1.80399
 Alpha virt. eigenvalues --    1.80931   1.81272   1.81500   1.82129   1.82573
 Alpha virt. eigenvalues --    1.82707   1.83099   1.83617   1.84282   1.84664
 Alpha virt. eigenvalues --    1.85212   1.85246   1.85820   1.86260   1.86579
 Alpha virt. eigenvalues --    1.86778   1.87377   1.87756   1.88504   1.88732
 Alpha virt. eigenvalues --    1.89567   1.89928   1.90435   1.91020   1.91233
 Alpha virt. eigenvalues --    1.91533   1.92063   1.92602   1.92824   1.93097
 Alpha virt. eigenvalues --    1.93529   1.93785   1.94215   1.94789   1.94847
 Alpha virt. eigenvalues --    1.95186   1.95568   1.96042   1.96122   1.96492
 Alpha virt. eigenvalues --    1.96696   1.96905   1.97388   1.97615   1.98366
 Alpha virt. eigenvalues --    1.98405   1.98569   1.98762   1.99246   1.99469
 Alpha virt. eigenvalues --    1.99555   1.99737   2.00064   2.00363   2.00565
 Alpha virt. eigenvalues --    2.00711   2.00773   2.00937   2.01177   2.01286
 Alpha virt. eigenvalues --    2.01767   2.02013   2.02205   2.02383   2.02719
 Alpha virt. eigenvalues --    2.02880   2.02956   2.03342   2.03570   2.03781
 Alpha virt. eigenvalues --    2.03921   2.04137   2.04380   2.04636   2.05449
 Alpha virt. eigenvalues --    2.05683   2.06239   2.06320   2.06634   2.07184
 Alpha virt. eigenvalues --    2.07527   2.07642   2.07939   2.08181   2.09122
 Alpha virt. eigenvalues --    2.09292   2.09757   2.10150   2.10997   2.11530
 Alpha virt. eigenvalues --    2.12464   2.12502   2.13048   2.13147   2.13543
 Alpha virt. eigenvalues --    2.13635   2.13976   2.15122   2.15581   2.15973
 Alpha virt. eigenvalues --    2.16284   2.16656   2.16928   2.17611   2.18021
 Alpha virt. eigenvalues --    2.18735   2.19058   2.19172   2.19652   2.20112
 Alpha virt. eigenvalues --    2.20740   2.20898   2.21725   2.22055   2.22537
 Alpha virt. eigenvalues --    2.22788   2.22911   2.23560   2.23721   2.24291
 Alpha virt. eigenvalues --    2.24623   2.25038   2.25409   2.25667   2.26215
 Alpha virt. eigenvalues --    2.26395   2.26821   2.27383   2.27987   2.28049
 Alpha virt. eigenvalues --    2.28231   2.28519   2.28853   2.29177   2.29810
 Alpha virt. eigenvalues --    2.30465   2.30570   2.30913   2.31427   2.31553
 Alpha virt. eigenvalues --    2.32192   2.32480   2.33218   2.33649   2.34143
 Alpha virt. eigenvalues --    2.34506   2.35277   2.35637   2.36809   2.37450
 Alpha virt. eigenvalues --    2.37894   2.38241   2.39042   2.39842   2.40457
 Alpha virt. eigenvalues --    2.41037   2.41297   2.41738   2.41906   2.42909
 Alpha virt. eigenvalues --    2.43003   2.43378   2.44262   2.44523   2.45069
 Alpha virt. eigenvalues --    2.45212   2.45742   2.46438   2.46834   2.47061
 Alpha virt. eigenvalues --    2.48064   2.48969   2.49559   2.50432   2.50871
 Alpha virt. eigenvalues --    2.51174   2.51321   2.52101   2.52686   2.52971
 Alpha virt. eigenvalues --    2.53462   2.53650   2.54097   2.54365   2.54786
 Alpha virt. eigenvalues --    2.54950   2.55293   2.55958   2.56117   2.56373
 Alpha virt. eigenvalues --    2.56604   2.56921   2.57031   2.57431   2.57846
 Alpha virt. eigenvalues --    2.58501   2.58826   2.59144   2.59380   2.59467
 Alpha virt. eigenvalues --    2.59746   2.59807   2.60227   2.60545   2.60880
 Alpha virt. eigenvalues --    2.61442   2.61620   2.61818   2.62342   2.62788
 Alpha virt. eigenvalues --    2.63017   2.63465   2.63623   2.63993   2.64397
 Alpha virt. eigenvalues --    2.64602   2.64826   2.65244   2.65583   2.66003
 Alpha virt. eigenvalues --    2.66425   2.66858   2.67130   2.67275   2.67554
 Alpha virt. eigenvalues --    2.67895   2.68445   2.68627   2.68829   2.69050
 Alpha virt. eigenvalues --    2.69140   2.69631   2.70356   2.70953   2.71433
 Alpha virt. eigenvalues --    2.71873   2.72386   2.72697   2.72984   2.73836
 Alpha virt. eigenvalues --    2.73993   2.74838   2.75034   2.75900   2.76602
 Alpha virt. eigenvalues --    2.76817   2.77265   2.77435   2.78056   2.78331
 Alpha virt. eigenvalues --    2.79125   2.79898   2.79981   2.80419   2.80539
 Alpha virt. eigenvalues --    2.80772   2.81242   2.81699   2.81896   2.82511
 Alpha virt. eigenvalues --    2.83053   2.83141   2.83804   2.84402   2.84766
 Alpha virt. eigenvalues --    2.85263   2.85538   2.85884   2.85971   2.86341
 Alpha virt. eigenvalues --    2.87533   2.88165   2.88509   2.89641   2.89785
 Alpha virt. eigenvalues --    2.89868   2.90426   2.90579   2.91369   2.91445
 Alpha virt. eigenvalues --    2.91622   2.92045   2.92437   2.92905   2.93335
 Alpha virt. eigenvalues --    2.93734   2.94191   2.94849   2.95601   2.95812
 Alpha virt. eigenvalues --    2.96634   2.97417   2.97869   2.98647   2.99208
 Alpha virt. eigenvalues --    3.00556   3.01026   3.01789   3.02778   3.04539
 Alpha virt. eigenvalues --    3.04972   3.06605   3.07547   3.08852   3.09652
 Alpha virt. eigenvalues --    3.10508   3.11882   3.14014   3.14840   3.16340
 Alpha virt. eigenvalues --    3.17318   3.18796   3.20741   3.22114   3.22923
 Alpha virt. eigenvalues --    3.25371   3.27707   3.28711   3.30329   3.30982
 Alpha virt. eigenvalues --    3.33820   3.34746   3.34858   3.35900   3.37619
 Alpha virt. eigenvalues --    3.38531   3.40902   3.42364   3.43952   3.45894
 Alpha virt. eigenvalues --    3.48112   3.50957   3.51446   3.52861   3.54075
 Alpha virt. eigenvalues --    3.56882   3.60773   4.01008   4.01331   4.02011
 Alpha virt. eigenvalues --    4.02038   4.03660   4.04032   4.04295   4.04923
 Alpha virt. eigenvalues --    4.05222   4.06116   4.06892   4.07003   4.07568
 Alpha virt. eigenvalues --    4.07623   4.08106   4.09046   4.09799   4.10182
 Alpha virt. eigenvalues --    4.11378   4.12314   4.13055   4.13182   4.14211
 Alpha virt. eigenvalues --    4.14727   4.15655   4.17372   4.18201   4.19194
 Alpha virt. eigenvalues --    4.20163   4.21006   4.21456   4.21615   4.22021
 Alpha virt. eigenvalues --    4.22915   4.23518   4.24039   4.26710   4.27786
 Alpha virt. eigenvalues --    4.28336   4.28664   4.28992   4.29202   4.29869
 Alpha virt. eigenvalues --    4.31330   4.32099   4.33170   4.35570   4.37516
 Alpha virt. eigenvalues --    4.39282   4.40260   4.41067   4.41394   4.43404
 Alpha virt. eigenvalues --    4.44097   4.45193   4.48250   4.49534   4.50380
 Alpha virt. eigenvalues --    4.51907   4.52459   4.54778   4.56400   4.56724
 Alpha virt. eigenvalues --    4.58659   4.59917   4.62742   4.65078   4.66176
 Alpha virt. eigenvalues --    4.67286   4.68040   4.68873   4.73246   4.77308
 Alpha virt. eigenvalues --    4.80837   4.82932   4.84526   4.86462   4.89468
 Alpha virt. eigenvalues --    4.92262   4.92810   4.95347   5.04164   5.06535
 Alpha virt. eigenvalues --    5.09105   5.15671   5.17356   5.21429   5.24623
          Condensed to atoms (all electrons):
 Mulliken charges:
               1
     1  C   -0.024467
     2  C   -0.017390
     3  C    0.079684
     4  C   -0.003793
     5  C    0.044502
     6  C   -0.008827
     7  C   -0.364290
     8  C    0.079542
     9  C    0.040626
    10  C    0.005935
    11  C    0.003721
    12  C    0.119423
    13  C   -0.024520
    14  C    0.080101
    15  C   -0.009479
    16  C   -0.367283
    17  C    0.000212
    18  C    0.123860
    19  C   -0.001045
    20  C    0.084910
    21  C   -0.024220
    22  C   -0.028114
    23  C   -0.001021
    24  C   -0.027536
    25  C   -0.023938
    26  C    0.027774
    27  C   -0.020989
    28  C    0.011926
    29  C    0.051804
    30  C    0.077669
    31  C   -0.035860
    32  C    0.006215
    33  C   -0.030333
    34  C   -0.059792
    35  C    0.046702
    36  C    0.099266
    37  C    0.037323
    38  C    0.101328
    39  C    0.046022
    40  C    0.010830
    41  C    0.044486
    42  C    0.127581
    43  C   -0.032911
    44  C    0.042207
    45  C    0.059500
    46  C    0.043650
    47  C    0.043724
    48  C    0.042942
    49  C   -0.023915
    50  C   -0.020217
    51  C   -0.010006
    52  C   -0.016877
    53  C   -0.008648
    54  C   -0.043352
    55  C   -0.024660
    56  C   -0.014414
    57  C    0.043277
    58  C   -0.031352
    59  C    0.055176
    60  C   -0.033158
    61  C   -0.021713
    62  C   -0.017535
    63  C   -0.036426
    64  C    0.055538
    65  C   -0.030953
    66  C    0.035366
    67  C    0.051438
    68  C    0.041785
    69  C   -0.024368
    70  C   -0.022272
    71  C   -0.010531
    72  C    0.003192
    73  C   -0.022418
    74  C    0.016296
    75  C    0.029824
    76  C    0.077629
    77  C   -0.001940
    78  C   -0.356491
    79  C    0.007716
    80  C   -0.365360
    81  C    0.092934
    82  C    0.089652
    83  C    0.046658
    84  C    0.053921
    85  Cl  -0.005258
    86  Cl  -0.018033
    87  Cl  -0.004732
    88  Cl  -0.013432
 Sum of Mulliken charges =  -0.00000
 Mulliken charges with hydrogens summed into heavy atoms:
               1
     1  C   -0.024467
     2  C   -0.017390
     3  C    0.079684
     4  C   -0.003793
     5  C    0.044502
     6  C   -0.008827
     7  C   -0.364290
     8  C    0.079542
     9  C    0.040626
    10  C    0.005935
    11  C    0.003721
    12  C    0.119423
    13  C   -0.024520
    14  C    0.080101
    15  C   -0.009479
    16  C   -0.367283
    17  C    0.000212
    18  C    0.123860
    19  C   -0.001045
    20  C    0.084910
    21  C   -0.024220
    22  C   -0.028114
    23  C   -0.001021
    24  C   -0.027536
    25  C   -0.023938
    26  C    0.027774
    27  C   -0.020989
    28  C    0.011926
    29  C    0.051804
    30  C    0.077669
    31  C   -0.035860
    32  C    0.006215
    33  C   -0.030333
    34  C   -0.059792
    35  C    0.046702
    36  C    0.099266
    37  C    0.037323
    38  C    0.101328
    39  C    0.046022
    40  C    0.010830
    41  C    0.044486
    42  C    0.127581
    43  C   -0.032911
    44  C    0.042207
    45  C    0.059500
    46  C    0.043650
    47  C    0.043724
    48  C    0.042942
    49  C   -0.023915
    50  C   -0.020217
    51  C   -0.010006
    52  C   -0.016877
    53  C   -0.008648
    54  C   -0.043352
    55  C   -0.024660
    56  C   -0.014414
    57  C    0.043277
    58  C   -0.031352
    59  C    0.055176
    60  C   -0.033158
    61  C   -0.021713
    62  C   -0.017535
    63  C   -0.036426
    64  C    0.055538
    65  C   -0.030953
    66  C    0.035366
    67  C    0.051438
    68  C    0.041785
    69  C   -0.024368
    70  C   -0.022272
    71  C   -0.010531
    72  C    0.003192
    73  C   -0.022418
    74  C    0.016296
    75  C    0.029824
    76  C    0.077629
    77  C   -0.001940
    78  C   -0.356491
    79  C    0.007716
    80  C   -0.365360
    81  C    0.092934
    82  C    0.089652
    83  C    0.046658
    84  C    0.053921
    85  Cl  -0.005258
    86  Cl  -0.018033
    87  Cl  -0.004732
    88  Cl  -0.013432
 Electronic spatial extent (au):  <R**2>=          42053.7574
 Charge=             -0.0000 electrons
 Dipole moment (field-independent basis, Debye):
    X=              4.9077    Y=             -0.7172    Z=             -0.0189  Tot=              4.9599
 Quadrupole moment (field-independent basis, Debye-Ang):
   XX=           -527.0388   YY=           -513.5831   ZZ=           -505.6897
   XY=             -0.0917   XZ=             -6.0931   YZ=             -0.9877
 Traceless Quadrupole moment (field-independent basis, Debye-Ang):
   XX=            -11.6016   YY=              1.8541   ZZ=              9.7475
   XY=             -0.0917   XZ=             -6.0931   YZ=             -0.9877
 Octapole moment (field-independent basis, Debye-Ang**2):
  XXX=              3.3373  YYY=            -12.1809  ZZZ=            -19.0256  XYY=             30.1821
  XXY=             -8.1547  XXZ=             -8.2630  XZZ=            -23.9307  YZZ=              3.4671
  YYZ=              0.5094  XYZ=              8.8807
 Hexadecapole moment (field-independent basis, Debye-Ang**3):
 XXXX=         -24070.8310 YYYY=         -19710.6670 ZZZZ=         -17925.5243 XXXY=             11.3518
 XXXZ=             34.5039 YYYX=            -28.3248 YYYZ=             49.1455 ZZZX=             -8.0740
 ZZZY=             33.7709 XXYY=          -7493.7642 XXZZ=          -7030.6300 YYZZ=          -6296.5434
 XXYZ=            -26.0488 YYXZ=            -16.6165 ZZXY=             -6.4270
 N-N= 1.715141997340D+04 E-N=-4.608114076700D+04  KE= 5.006201088113D+03
 No NMR shielding tensors so no spin-rotation constants.
 Leave Link  601 at Thu Jun 30 13:00:31 2022, MaxMem=  1342177280 cpu:              54.7 elap:               1.4
 (Enter /home/mkliu/g16/l9999.exe)
 1\1\GINC-NODE05\FOpt\RB3LYP\6-31G(d,p)\C84Cl4\MKLIU\30-Jun-2022\0\\#P 
 opt b3lyp/6-31G(d, p) empiricaldispersion=GD3\\force\\0,1\C,8.49280595
 46,18.8273705813,10.7798526678\C,12.3848316524,20.1244345863,8.9536588
 675\C,8.2840215272,26.9044652899,10.5738392471\C,12.2577984738,25.5753
 442727,8.9755239204\C,8.008532936,19.0503182422,9.4611470385\C,12.0549
 437821,19.4885532831,10.1973229933\C,7.8834236102,27.125863235,9.11555
 5455\C,11.8820610726,26.1699707202,10.2096852812\C,8.9801590295,19.147
 2063266,8.3710165584\C,12.3305489811,20.1362510766,11.3876234358\C,12.
 1251766857,25.5040192564,11.3773282218\C,8.9689893446,26.6648192619,8.
 1580287008\C,10.3473490206,18.9888146038,8.6845964517\C,10.25762186,26
 .7101250765,8.6106051911\C,10.8040844482,18.7704756541,10.0245383546\C
 ,10.6833878546,27.0823928351,10.0301396104\C,9.8870531818,18.712626193
 2,11.0619086896\C,9.5764132717,26.8088426431,11.0328676123\C,10.169354
 8703,19.4038808684,12.31486025\C,9.8544318462,26.0614848521,12.2533577
 376\C,8.9480666406,19.9674586586,12.8029348055\C,8.7766485421,25.43120
 76411,12.9282900819\C,7.8934266197,19.4978021036,11.9190753327\C,7.451
 4075854,25.5006175991,12.3903965062\C,6.7438323105,20.2272446096,11.76
 40064871\C,7.2182199888,26.2050271821,11.2344631703\C,6.1103726438,20.
 3102895073,10.4775335097\C,6.2759619191,25.711470389,10.2516929376\C,6
 .7264644137,19.7365189081,9.3305262335\C,6.6584189248,26.2459079362,9.
 0075464735\C,6.3908426764,20.3212724039,8.0947678887\C,6.3675790033,25
 .5630032936,7.8505360674\C,7.3194776271,20.3224228016,6.9834199848\C,7
 .3185778153,25.4843077963,6.760562047\C,8.6460464062,19.8824149151,7.1
 426635412\C,8.655115679,25.8803224269,6.9716965356\C,9.6971687907,20.5
 847243285,6.3993398597\C,9.7213539017,25.1227502388,6.3281618081\C,11.
 0537912186,20.5750669549,6.9046620983\C,12.7750981477,22.1679125422,7.
 7457639031\C,12.8015518802,23.5831966515,7.7384475733\C,11.00557379,25
 .1357639662,6.8606572458\C,11.3709260106,19.7619574073,8.0045367544\C,
 12.9925929873,21.4126300675,8.927449989\C,12.9455275515,24.3038491205,
 8.9186499973\C,11.2812480789,25.926996683,8.0009233431\C,13.2492152539
 ,22.1249470997,10.1696573157\C,13.1991148387,23.5835195506,10.16652584
 04\C,12.9517957135,21.4392274354,11.3845714847\C,12.843879589,24.24245
 25079,11.3670620279\C,12.4347991553,22.1421866516,12.5201380222\C,12.3
 87570774,23.5170212652,12.5056667001\C,11.3595508402,20.0943460899,12.
 47439538\C,11.1281586232,25.4616411519,12.441059497\C,11.3557532854,21
 .3718163233,13.1222528065\C,11.2667382373,24.2132940637,13.1055372415\
 C,8.8980477193,21.2643063004,13.3790861417\C,8.9084570814,24.141583599
 2,13.5415373537\C,7.6425808067,22.010058473,13.2438263998\C,7.66272458
 67,23.418304794,13.3575013646\C,6.5816396226,21.4763952433,12.45951033
 37\C,6.7738779923,24.2454269347,12.6091962701\C,5.7555648334,22.304049
 7869,11.6343096072\C,5.8856692305,23.7093813222,11.6287922299\C,5.4602
 755536,21.5831743449,10.4136123209\C,5.6480606549,24.4382522764,10.385
 6679909\C,5.2550413183,22.2530280871,9.1879308978\C,5.317287596,23.718
 1937149,9.1652252021\C,5.5944769026,21.5134919132,8.0154406215\C,5.616
 5513344,24.3382825748,7.9217602524\C,5.9357348704,22.1840925424,6.7898
 200526\C,5.9496802753,23.570646409,6.7483765728\C,6.9831863086,21.4423
 977921,6.1436089165\C,6.9952669993,24.2679893898,6.0266915603\C,7.9868
 894701,22.1276404122,5.4672088132\C,7.9705330627,23.5590976272,5.37250
 92001\C,9.34070896,21.6869841882,5.58064581\C,9.3760902942,24.09703081
 93,5.2372605922\C,11.8777811248,21.7220294761,6.716186696\C,12.0667154
 802,24.1084887681,6.5023203526\C,10.1973503104,22.8328200591,5.4132611
 149\C,11.4340109263,22.846651335,5.9715049308\C,10.1578972095,21.99743
 41552,13.5454140495\C,10.1421475567,23.4677731739,13.5884815428\Cl,11.
 2088506912,28.8590200646,10.1153287925\Cl,7.4536814469,28.9075497468,8
 .7885729433\Cl,13.2751855127,24.8576031908,5.3110638971\Cl,9.636503493
 6,24.8961725647,3.5768120788\\Version=ES64L-G16RevA.03\State=1-A\HF=-5
 041.8038195\RMSD=4.499e-09\RMSF=7.808e-05\Dipole=-0.0869309,-1.7405086
 ,0.8780289\Quadrupole=6.2155675,-5.4074351,-0.8081324,-3.6755406,4.394
 9196,4.2879739\PG=C01 [X(C84Cl4)]\\@


 NO HUMAN INVESTIGATION CAN BECOME REAL SCIENCE
 WITHOUT GOING THROUGH MATHEMATICAL PEOPLE.
 -- LEONARDO DA VINCI, IN "PENSIERI" CA. 1492
 Job cpu time:       1 days  6 hours 25 minutes 26.1 seconds.
 Elapsed time:       0 days  0 hours 38 minutes  8.4 seconds.
 File lengths (MBytes):  RWF=   1098 Int=      0 D2E=      0 Chk=    138 Scr=      1
 Normal termination of Gaussian 16 at Thu Jun 30 13:00:33 2022.
