63
 energy: -142.079168549280 gnorm: 0.141406634158 xtb: 6.4.1 (a3dbbd7)
C        -1.29585809770389    0.00401118895665    3.54517689253707
C        -0.36796043462932   -1.17243305037605    3.30515820978008
C         0.98298838983527   -0.72191219207564    3.27512267938171
C         0.98156472667820    0.71960753568128    3.26971969810914
C        -0.37066843460465    1.17924059903467    3.30150764336582
C         2.33648296603916   -2.58548060331365    0.57950289353032
C         3.18657767574002   -1.41946403927647    0.57781419519059
C         2.94957050639235   -0.69854930596759    1.80123308070154
C         1.95308396824160   -1.41752165468763    2.55613481575760
C         1.57961582989334   -2.57968580837377    1.80518673242103
C         3.18767024140451    1.40991878522763    0.57593180000620
C         2.33807592116844    2.57402574447607    0.57591940981122
C         1.57683795432701    2.56605672107525    1.79975339071644
C         1.95304946465436    1.40835201077487    2.55205927518980
C         2.95072023087345    0.68875745016373    1.80098024572921
C        -0.36516779407368    3.42666371337356    0.57921714423118
C        -1.72924376763824    3.01648005769000    0.58287705261872
C        -2.09463355992581    2.46231283092052    1.94730853815858
C        -0.73027134402217    2.28553619303067    2.58224921102021
C         0.24829448349984    2.97593693112150    1.80334175266563
C        -3.37466967425340    0.70300551354290    0.57574930054980
C        -3.39003092747716   -0.73268815647906    0.56838248265369
C        -2.76818811332164   -1.16356142379097    1.78871572221350
C        -2.38904763706855    0.02437925876362    2.53264263719760
C        -2.74834472563595    1.12995086275151    1.81420011519069
C        -1.73481952350512   -3.00995345714269    0.57938225060336
C        -0.36149853481650   -3.44686666227317    0.58178847315895
C         0.25217194581416   -2.99475012292755    1.80551621994623
C        -0.72930832442940   -2.27346636839910    2.56467955448571
C        -1.97147545426586   -2.28746259170963    1.79868366133100
C        -0.24419850626392   -3.01431906333444   -1.82647673840836
C         0.74940205407495   -2.29291975825760   -2.58286291053874
C         1.97453700933417   -2.29239152843074   -1.82543977586922
C         1.74139873400736   -3.01127177410490   -0.59946235558356
C         0.36858334367966   -3.45436466613801   -0.59762914044760
C         2.79442417392884   -1.17031401259636   -1.82833550603033
C         2.41574661888024   -0.00512369156855   -2.58546959716668
C         2.79806943075341    1.16104826420258   -1.83045397172065
C         3.41356646771945    0.71553904943849   -0.60565027142670
C         3.41126633561149   -0.72579612454708   -0.60436594395851
C         1.98256115248497    2.28538932455247   -1.82964816243281
C         0.75350030257848    2.28551308199782   -2.58573232036207
C        -0.23508280213456    3.00436687409655   -1.82344140492918
C         0.37359850932028    3.44286488622179   -0.60220138863872
C         1.74684322376492    3.00246743943424   -0.60372642363492
C        -1.55566653231806    2.56818250386052   -1.80941223575869
C        -1.93859434646944    1.40592010794080   -2.57168095880615
C        -2.93551210457882    0.68461262535792   -1.82146846772098
C        -3.16898901542976    1.39767486975662   -0.59605965548237
C        -2.30435127723071    2.57332623923171   -0.58497549467516
C        -2.94114405309208   -0.70773319324488   -1.83440725641731
C        -1.94505174577217   -1.42387954875747   -2.59102123506710
C        -1.56548890447542   -2.59170746585215   -1.83211639425372
C        -2.32839595515909   -2.59312664323360   -0.60918315818311
C        -3.17773883494341   -1.43218193772331   -0.61434027474195
C        -0.98775846759569   -0.72638522820754   -3.31322849837523
C        -0.98659864719709    0.71557045430270   -3.30737103326374
C         0.38544609985482    1.16109326139683   -3.31071431261235
C         1.23106807703669   -0.00470839638716   -3.31198800126459
C         0.38446650889097   -1.17000629330740   -3.31255499443923
Cl       -1.95494402230001   -0.00808767739961    5.23350834621500
Cl       -3.13453400437008    3.62205440029917    2.87428256883422
Cl       -1.11502996537753   -3.47359277675433    3.86353113171563
63
 energy: -142.103848318042 gnorm: 0.062272384873 xtb: 6.4.1 (a3dbbd7)
C        -1.29218370940491    0.01659154750440    3.54589546555934
C        -0.36154176167092   -1.15693129937055    3.32752466051210
C         0.97411384065813   -0.70990798552448    3.26363579986509
C         0.98153772955835    0.73373589574059    3.27085383677410
C        -0.36947747307524    1.19388271921917    3.30448039948161
C         2.33999171889117   -2.58774676154941    0.57023361934518
C         3.18565934392914   -1.41988415866658    0.57394895782164
C         2.94550146859588   -0.69874744775920    1.79894952062882
C         1.95329201607735   -1.41489009677310    2.55037164650644
C         1.57812623936823   -2.57573658765574    1.78960546962886
C         3.18719304678241    1.41075393331824    0.57660558650740
C         2.33764341917154    2.57608006808914    0.57503753547441
C         1.57675389925335    2.57198541932871    1.79860588042222
C         1.95320637315113    1.41603404513725    2.55173881476954
C         2.95059484131713    0.69251766524453    1.79995300446405
C        -0.36564753871225    3.43040726475503    0.57788337788437
C        -1.72962067931049    3.01946319839335    0.58172042715359
C        -2.09526256623205    2.46726278928149    1.94673150215021
C        -0.73075254713324    2.29662349916526    2.58292360018301
C         0.24807535630406    2.98346228238883    1.80239820250853
C        -3.37241198886828    0.70488714673359    0.57449512226735
C        -3.39169564878544   -0.73046955916435    0.56570644377084
C        -2.75705182708844   -1.15580326784300    1.77952228452283
C        -2.38182489462184    0.02955544655972    2.53005433095142
C        -2.74552038361364    1.13336274435934    1.81254950328177
C        -1.72932995861524   -3.00371679025575    0.57183277723337
C        -0.35538067204794   -3.44294881675715    0.57290936646618
C         0.26036246422666   -2.99928077690280    1.78718121170164
C        -0.75283585800116   -2.34969383867633    2.63852102172837
C        -1.96756374800581   -2.28009694303135    1.78379694871823
C        -0.24218568566188   -3.01531314649159   -1.83306220327519
C         0.75121276737448   -2.29288062522351   -2.58892716511815
C         1.97692876507587   -2.29288991845758   -1.83258136026659
C         1.74520802345094   -3.01530001836352   -0.60928133301964
C         0.37451217890477   -3.45781539502716   -0.60913708387830
C         2.79542846266095   -1.17025260525078   -1.83189855449864
C         2.41620813547407   -0.00459833042445   -2.58686346085726
C         2.79837759098412    1.16115146990918   -1.83041369035812
C         3.41365606404680    0.71594527354980   -0.60681099534270
C         3.41093726669793   -0.72558261725079   -0.60673223513098
C         1.98248498525575    2.28605076482762   -1.83048901486767
C         0.75433675038600    2.28590616566306   -2.58596542321822
C        -0.23487121835962    3.00514627134134   -1.82395745388497
C         0.37352342695871    3.44448589107642   -0.60326945669630
C         1.74651345652209    3.00344050590240   -0.60434407561549
C        -1.55526416502172    2.56920197531866   -1.81001667642291
C        -1.93843644859553    1.40656987996108   -2.57211967695102
C        -2.93494388301890    0.68570565245450   -1.82249348225873
C        -3.16828649858497    1.39908577769418   -0.59730674831351
C        -2.30407425368665    2.57499278480507   -0.58591743212087
C        -2.94088068573837   -0.70718526910084   -1.83605545906946
C        -1.94467275809917   -1.42350742130182   -2.59343200341993
C        -1.56451936507668   -2.59187601775971   -1.83712518495426
C        -2.32814775177619   -2.59119317772354   -0.61493926904744
C        -3.17873243324527   -1.43126727168003   -0.61746235387663
C        -0.98723945899381   -0.72541503958631   -3.31481155125505
C        -0.98580635520314    0.71604352333088   -3.30802746865068
C         0.38585195496816    1.16157006507635   -3.31162745943613
C         1.23164596634242   -0.00378848697109   -3.31363790403152
C         0.38524824599652   -1.16902323022659   -3.31548646868125
Cl       -1.95577666370321    0.00294282468399    5.23523106746003
Cl       -3.13619484310988    3.62505279176600    2.87379648435816
Cl       -1.15507526091903   -3.57800081977351    3.96533801722468
63
 energy: -142.110609885022 gnorm: 0.016128586234 xtb: 6.4.1 (a3dbbd7)
C        -1.28768951170124    0.01744604476710    3.54331716472490
C        -0.35844087450975   -1.15295524453071    3.32733871042762
C         0.95810583851419   -0.70953949871255    3.24715322961048
C         0.97657299649591    0.73776882201661    3.26253551419135
C        -0.37113775744695    1.19986856699653    3.30272447477732
C         2.33526881370595   -2.58526406647210    0.56505127391427
C         3.18232296930850   -1.41931063277372    0.56948077096079
C         2.93704753815579   -0.69948980755184    1.79592763654683
C         1.95367274518233   -1.41683390681769    2.54681017946661
C         1.57257644792396   -2.57813170421210    1.78450189759754
C         3.18495401410023    1.41174269295085    0.57556982220544
C         2.33685258750454    2.57945716349523    0.57301715548526
C         1.57639754214981    2.57807006265516    1.79698997120106
C         1.94969033721003    1.41971962129882    2.54753053876479
C         2.94815911503127    0.69541250099776    1.79639388247565
C        -0.36577457975073    3.43590155092339    0.57598518427913
C        -1.72981265015165    3.02477572954521    0.57980851979176
C        -2.09559636224162    2.47369448163467    1.94556538624462
C        -0.73163823759049    2.30508860696140    2.58272189119391
C         0.24741242236468    2.99129702338120    1.80158954151913
C        -3.36589841293015    0.70682888759649    0.57404878095384
C        -3.37945545261985   -0.72813863502920    0.56642811283396
C        -2.74317251097924   -1.15551631039786    1.77998060449603
C        -2.37506764733000    0.03287504897810    2.52996561901242
C        -2.73984803077557    1.13610357132416    1.81250488539214
C        -1.72209977550874   -2.99496109048452    0.57380390501785
C        -0.34937672251273   -3.43691195579824    0.57512742654091
C         0.26350915842640   -3.01099517458708    1.78744942224484
C        -0.77349891099148   -2.42244153177689    2.70597568727833
C        -1.96256791666040   -2.28095257746157    1.78545095448352
C        -0.23987485885415   -3.01414012790373   -1.83691447292454
C         0.75266580869105   -2.29177045499676   -2.59508760509735
C         1.97916611081853   -2.29314204350115   -1.83976704763409
C         1.74527728981684   -3.01541494587518   -0.61603846772749
C         0.37749272614422   -3.45641714157567   -0.61344705748295
C         2.79617819265922   -1.16946922232582   -1.83673149391338
C         2.41655584596098   -0.00291493321125   -2.58974608037354
C         2.79824361212242    1.16259305849081   -1.83184018525447
C         3.41288977810180    0.71740443694433   -0.60967427762984
C         3.40979085313601   -0.72463121663107   -0.60990969703625
C         1.98233006324344    2.28830234930838   -1.83269438187110
C         0.75527724285602    2.28798743197146   -2.58758404872636
C        -0.23430704871333    3.00780143195911   -1.82563452427287
C         0.37363180974032    3.44796189107152   -0.60532127069544
C         1.74636283660465    3.00615865835768   -0.60620191423961
C        -1.55440182105635    2.57186675018851   -1.81154445533180
C        -1.93737840383032    1.40859935474391   -2.57323063127051
C        -2.93308246345492    0.68790388657486   -1.82371787840658
C        -3.16609439492557    1.40137434639072   -0.59825080332010
C        -2.30343023576611    2.57869902534015   -0.58765185239236
C        -2.93874729578879   -0.70551577514780   -1.83752647823437
C        -1.94252567951511   -1.42185343948823   -2.59596261924087
C        -1.56186299227969   -2.58985628643326   -1.84017293391050
C        -2.32187828342249   -2.58614990168360   -0.61490720951685
C        -3.17146268442044   -1.42801384854732   -0.61797422223557
C        -0.98601388327550   -0.72289233936356   -3.31810735638720
C        -0.98446728919842    0.71813300978849   -3.30985285290692
C         0.38662858392826    1.16388679329814   -3.31412763876134
C         1.23244767736491   -0.00140548852904   -3.31719089701083
C         0.38642424931574   -1.16688077226170   -3.32010409757301
Cl       -1.96069218096211    0.01209318965282    5.23193360803167
Cl       -3.13976671053926    3.62870673497279    2.87117314662571
Cl       -1.18592681247162   -3.65545908845862    4.04889879589614
63
 energy: -142.111038992164 gnorm: 0.009414811150 xtb: 6.4.1 (a3dbbd7)
C        -1.28725466577123    0.01550154166590    3.54363587287351
C        -0.36002378341489   -1.15635915967889    3.32423806388813
C         0.95145425839065   -0.71312944415987    3.24188984261460
C         0.97351596548018    0.73625239890023    3.25639950966426
C        -0.37222042385658    1.19976951169068    3.30137249273589
C         2.33121458300911   -2.58397401183340    0.56435605900562
C         3.17902706528369   -1.41869563861492    0.56726081355855
C         2.93296355090172   -0.69980427110096    1.79410019966643
C         1.95458842022663   -1.41906696499014    2.54619432404097
C         1.57075584514919   -2.58236981537100    1.78682067922065
C         3.18335437381120    1.41199945842276    0.57397511955700
C         2.33642811273408    2.58104492405932    0.57172032739798
C         1.57601331811841    2.58012520281548    1.79601106232790
C         1.94720475763734    1.41969015266162    2.54429096224027
C         2.94613481256062    0.69579905326575    1.79353005516549
C        -0.36578418204158    3.43893468984267    0.57537842360003
C        -1.72976304579288    3.02751611402468    0.57920493071952
C        -2.09555008012278    2.47644692650272    1.94541802563281
C        -0.73184566788870    2.30797668963428    2.58313616102152
C         0.24695444883305    2.99419797617379    1.80153078443182
C        -3.36064793057084    0.70698056476903    0.57426575454773
C        -3.37009926503377   -0.72770399049985    0.56774435017008
C        -2.73801647192695   -1.15785304845107    1.78356106871715
C        -2.37403724314689    0.03383747923657    2.53140704850017
C        -2.73719395919123    1.13702857558517    1.81332106170056
C        -1.71906437294834   -2.99328633870528    0.57732747527921
C        -0.34719379960036   -3.43731748020699    0.57889312243744
C         0.26297094917311   -3.02161702960864    1.79622824628435
C        -0.77952839023325   -2.44380981619456    2.72392871559416
C        -1.96163303857945   -2.28672557784230    1.79357941867941
C        -0.23849516422600   -3.01251980808024   -1.83711479362643
C         0.75342601221035   -2.29099756820114   -2.59748547966226
C         1.98004320278461   -2.29291617525032   -1.84249407019771
C         1.74462506861678   -3.01469482836077   -0.61768453446569
C         0.37760141234425   -3.45483696203022   -0.61282378983809
C         2.79616064104496   -1.16863377251154   -1.83936375381772
C         2.41682366360730   -0.00172203031842   -2.59212672115158
C         2.79807219118055    1.16373573665673   -1.83349884442892
C         3.41225098011740    0.71824661618937   -0.61180541920655
C         3.40830615574056   -0.72393944032667   -0.61166289252117
C         1.98227892225792    2.28987328250389   -1.83422426922782
C         0.75548722884958    2.28955905746415   -2.58878476714897
C        -0.23405163577182    3.00982343977358   -1.82664059031797
C         0.37365520679458    3.45031586190652   -0.60626981981975
C         1.74635229341145    3.00791441956046   -0.60742710058210
C        -1.55405798020543    2.57380812807472   -1.81245436605171
C        -1.93668718401890    1.41020935710250   -2.57406231447007
C        -2.93130735685141    0.68918237219104   -1.82390308967549
C        -3.16395128557140    1.40229613327517   -0.59816159854603
C        -2.30298304001807    2.58093140240632   -0.58834270147859
C        -2.93660061777839   -0.70428256998810   -1.83751385520708
C        -1.94097653574680   -1.42065543386836   -2.59659692037956
C        -1.55966420463765   -2.58792769264819   -1.84008828420960
C        -2.31667474630150   -2.58373804623930   -0.61275466782606
C        -3.16568863748106   -1.42630427368614   -0.61694337486885
C        -0.98535710535807   -0.72141344322152   -3.31991750785985
C        -0.98395869667937    0.71962309098549   -3.31122661452097
C         0.38695202942384    1.16551023078956   -3.31585140641152
C         1.23286280072688    0.00003452978145   -3.31980412017624
C         0.38712080813143   -1.16580295908160   -3.32263386937059
Cl       -1.96303840121958    0.01441723861422    5.23210532846970
Cl       -3.14359147477578    3.63084093252173    2.86689263037254
Cl       -1.19674187738728   -3.66917193594058    4.06578284975722
63
 energy: -142.111159456965 gnorm: 0.005449232153 xtb: 6.4.1 (a3dbbd7)
C        -1.28778061529822    0.01451781544194    3.54405512992845
C        -0.36116968242578   -1.15808260970366    3.32105650465937
C         0.94846121560702   -0.71546216663055    3.23941369711815
C         0.97210203262938    0.73503919209195    3.25288865192578
C        -0.37251614993708    1.19902672048774    3.30080041714845
C         2.32931010717109   -2.58343365168758    0.56428060005251
C         3.17744013596739   -1.41835873569364    0.56631682619882
C         2.93167645727403   -0.69987228859826    1.79340148189355
C         1.95627067100418   -1.42009599257713    2.54612998073967
C         1.57022117562933   -2.58393875982140    1.78819936944462
C         3.18283407792061    1.41194672135745    0.57328547469147
C         2.33637471508019    2.58156734487484    0.57136520630793
C         1.57584448385142    2.58063150663470    1.79578175560632
C         1.94624037480563    1.41937280136621    2.54285655104327
C         2.94556936455902    0.69587091980971    1.79212684075014
C        -0.36593095910857    3.43982099105545    0.57539720683545
C        -1.72985853277200    3.02827326673350    0.57914991233633
C        -2.09578791667573    2.47759633357356    1.94582451898732
C        -0.73199239419391    2.30909843008362    2.58380058063167
C         0.24658251474274    2.99482788658373    1.80184952482027
C        -3.35815821115898    0.70696775754217    0.57426168645136
C        -3.36535042364684   -0.72750102574533    0.56802317293697
C        -2.73527438821034   -1.15842916805530    1.78484459587993
C        -2.37486533271729    0.03476049204210    2.53242513115919
C        -2.73687994097111    1.13768210838011    1.81392250622074
C        -1.71729862824933   -2.99165929609247    0.57879595844163
C        -0.34592549483377   -3.43694858085884    0.58083938175566
C         0.26269012736123   -3.02653293107146    1.80172317062068
C        -0.78210798713021   -2.45153818281148    2.73054620585864
C        -1.96044713708174   -2.28881545298426    1.79811138231889
C        -0.23791038903372   -3.01149560146914   -1.83671181641430
C         0.75389603520524   -2.29083649291971   -2.59828238434515
C         1.98063912911963   -2.29288012977748   -1.84357469964822
C         1.74460353043307   -3.01436804660858   -0.61814705287194
C         0.37745221711633   -3.45347303210571   -0.61208267620415
C         2.79621997059741   -1.16830621358312   -1.84040471445672
C         2.41706078976897   -0.00140968966626   -2.59321842418187
C         2.79810827243644    1.16399728196816   -1.83419247432275
C         3.41228303126696    0.71849889014418   -0.61275281530211
C         3.40787438430777   -0.72373936539923   -0.61230696701157
C         1.98218677649358    2.29017578215559   -1.83469099103867
C         0.75540453794077    2.28973786422796   -2.58896081062946
C        -0.23410211366966    3.01028592838024   -1.82676296968404
C         0.37353300994396    3.45091274185594   -0.60637571444275
C         1.74631961658139    3.00832254386893   -0.60771284813812
C        -1.55418073599580    2.57445181323553   -1.81274943923616
C        -1.93664013977362    1.41078852612110   -2.57447018891530
C        -2.93075340469042    0.68967664964945   -1.82403597332712
C        -3.16345348329883    1.40269360486856   -0.59816292142191
C        -2.30310176767694    2.58178877606569   -0.58852982219400
C        -2.93599870583847   -0.70373392326574   -1.83776318036940
C        -1.94068602902328   -1.42025146243055   -2.59694678858274
C        -1.55869224935650   -2.58686267486350   -1.83984784364747
C        -2.31393827489455   -2.58234012745239   -0.61162270669363
C        -3.16331932591686   -1.42546623431438   -0.61659731824029
C        -0.98529576705646   -0.72104952327769   -3.32075344502602
C        -0.98395358387726    0.71996022397440   -3.31176599173594
C         0.38693416282166    1.16582749440259   -3.31641284540665
C         1.23299651647464    0.00031431951042   -3.32088146434789
C         0.38736406466706   -1.16567403237252   -3.32363997960684
Cl       -1.96219072349023    0.01291907343419    5.23322431842934
Cl       -3.14604960816858    3.63181271860801    2.86444719709220
Cl       -1.20196658820284   -3.66845556665586    4.06705157196616
63
 energy: -142.111211426631 gnorm: 0.002938586729 xtb: 6.4.1 (a3dbbd7)
C        -1.28804629730934    0.01418991633302    3.54402550406505
C        -0.36144721206581   -1.15853933848918    3.31841113424838
C         0.94740611755105   -0.71645492498466    3.23833235613890
C         0.97156015733541    0.73459414248899    3.25151715115945
C        -0.37250795128829    1.19860667264097    3.30064995795088
C         2.32877346336331   -2.58336767485723    0.56436198356233
C         3.17708817970978   -1.41832143183833    0.56618514173645
C         2.93173255002993   -0.69991460853892    1.79345799844117
C         1.95770880744240   -1.42041302426778    2.54629290258824
C         1.57010267561689   -2.58390536738843    1.78846872777849
C         3.18277990723372    1.41181151231057    0.57329809267005
C         2.33635674751092    2.58158140754714    0.57148685358745
C         1.57568582499008    2.58052899952636    1.79589699831293
C         1.94603415114542    1.41921827153009    2.54263686783138
C         2.94571177674956    0.69587813572407    1.79180715634773
C        -0.36614187470653    3.43972564126005    0.57550099894772
C        -1.73004858151251    3.02825890262984    0.57917070007467
C        -2.09620511284051    2.47803428749134    1.94617391103914
C        -0.73222863793262    2.30941621732258    2.58415107267625
C         0.24623398049487    2.99457531522442    1.80211014248355
C        -3.35753960516823    0.70700001532854    0.57421564886456
C        -3.36376618047466   -0.72737901299190    0.56786585261711
C        -2.73403877526461   -1.15808616630845    1.78473203667191
C        -2.37576698077679    0.03538792208945    2.53286825471032
C        -2.73741923453962    1.13809234828087    1.81423294183956
C        -1.71637341483149   -2.99031682231089    0.57891195914300
C        -0.34524092892147   -3.43624635458032    0.58142546887466
C         0.26276146286431   -3.02773577272220    1.80384047359915
C        -0.78328032579562   -2.45384410033016    2.73292810348971
C        -1.95915741244866   -2.28839194736536    1.79941247722947
C        -0.23778045644397   -3.01116571063211   -1.83626340858092
C         0.75411630316312   -2.29097100372834   -2.59823996307991
C         1.98097533334640   -2.29300560057852   -1.84378423454789
C         1.74487842610712   -3.01440318192368   -0.61816092677830
C         0.37734849963945   -3.45284908991029   -0.61168300797465
C         2.79626472080431   -1.16830441902241   -1.84046935066214
C         2.41715025114446   -0.00151890221461   -2.59332233737682
C         2.79817954398901    1.16386625609013   -1.83418078678865
C         3.41251391480939    0.71846311478796   -0.61286961191512
C         3.40801847617468   -0.72381615735783   -0.61225651293038
C         1.98208207828138    2.28995033516902   -1.83458511183945
C         0.75526642595672    2.28938182673886   -2.58868317785748
C        -0.23425025033220    3.01003282816539   -1.82653649281055
C         0.37337301039163    3.45072395777029   -0.60621741009225
C         1.74623279639328    3.00813194047571   -0.60755595834872
C        -1.55441995260705    2.57441353538501   -1.81272315559740
C        -1.93684210778526    1.41075966922505   -2.57450921926888
C        -2.93086462874697    0.68968378226724   -1.82409012926811
C        -3.16383913717895    1.40283214313863   -0.59821736309900
C        -2.30346899966196    2.58198291578951   -0.58854644803346
C        -2.93622275596032   -0.70369504993366   -1.83805198954671
C        -1.94094703322207   -1.42033007148075   -2.59706632401305
C        -1.55851513558241   -2.58660336158058   -1.83970154803584
C        -2.31304609140666   -2.58185453792828   -0.61129288201312
C        -3.16304328362178   -1.42523903160585   -0.61662466112064
C        -0.98543509904790   -0.72119994880721   -3.32086487081360
C        -0.98408907486427    0.71974250500116   -3.31171028216824
C         0.38680775578334    1.16559952692075   -3.31631547973957
C         1.23294994848258    0.00010435143000   -3.32088830431552
C         0.38736928744232   -1.16590370018398   -3.32367625944156
Cl       -1.95974058897794    0.00967989792341    5.23390081386072
Cl       -3.14673597420368    3.63235969705020    2.86376043194127
Cl       -1.20409666402350   -3.66267811515818    4.06289633638401
63
 energy: -142.111226935449 gnorm: 0.001745925951 xtb: 6.4.1 (a3dbbd7)
C        -1.28796042181651    0.01427123381826    3.54375638116779
C        -0.36105178057962   -1.15816566358947    3.31739653549694
C         0.94775881769542   -0.71624189371445    3.23838315986467
C         0.97168039588998    0.73480295674549    3.25189960675264
C        -0.37242927543820    1.19861285548025    3.30074389660234
C         2.32905814013804   -2.58349729373988    0.56443299995320
C         3.17747681738673   -1.41845012967193    0.56642136022336
C         2.93225859390371   -0.69998558999028    1.79378075663481
C         1.95816145555540   -1.42034136781790    2.54648899223548
C         1.57018053734797   -2.58340940205128    1.78816830402026
C         3.18290541420698    1.41173055958361    0.57357280524033
C         2.33632068069443    2.58140533547175    0.57168045940284
C         1.57562933487733    2.58029384089643    1.79605318337340
C         1.94624276138190    1.41924421942664    2.54301011899288
C         2.94605489872634    0.69585521555485    1.79210502227620
C        -0.36625086660024    3.43936426717635    0.57555074223813
C        -1.73016895629154    3.02802619379071    0.57918275670730
C        -2.09644500086893    2.47794785821013    1.94624268341536
C        -0.73236709721881    2.30919639127816    2.58406458903021
C         0.24611323379930    2.99419995578308    1.80216629236672
C        -3.35806503210329    0.70704226934136    0.57419927295884
C        -3.36441116401173   -0.72736462149619    0.56767898440178
C        -2.73428787121223   -1.15771601339933    1.78424328902639
C        -2.37604092313328    0.03544652696388    2.53280692933792
C        -2.73786753479051    1.13811624193852    1.81420757493692
C        -1.71633026342491   -2.99001215569083    0.57850006569528
C        -0.34518182384030   -3.43598145457834    0.58119318577449
C         0.26299409647956   -3.02699577232999    1.80330442617696
C        -0.78349920027478   -2.45349727247052    2.73306885438764
C        -1.95864901347382   -2.28725784666895    1.79854732223327
C        -0.23787708325000   -3.01134437946276   -1.83609860781901
C         0.75408614316566   -2.29109759704347   -2.59792946115344
C         1.98097843348551   -2.29311483876074   -1.84356189252548
C         1.74506894469067   -3.01454488794328   -0.61802955064695
C         0.37736809776324   -3.45301327268874   -0.61168724010923
C         2.79625204232175   -1.16841435678444   -1.84015681744011
C         2.41709888998143   -0.00167590434978   -2.59298224974322
C         2.79819522513063    1.16371840260226   -1.83391316626759
C         3.41264978473547    0.71836659238725   -0.61262967825858
C         3.40825924643279   -0.72393033318391   -0.61200364502349
C         1.98203251688746    2.28973910861004   -1.83435780188033
C         0.75520658579536    2.28913627994588   -2.58844715444907
C        -0.23433708575831    3.00973686788378   -1.82634713115627
C         0.37329271534089    3.45041378613087   -0.60608389109712
C         1.74616031612481    3.00787826255586   -0.60735674800403
C        -1.55452610877402    2.57417458033506   -1.81259454755576
C        -1.93698120896393    1.41053582878792   -2.57436515779923
C        -2.93112718198650    0.68949827992042   -1.82407170656895
C        -3.16429676991332    1.40278188375394   -0.59826372426981
C        -2.30368524440862    2.58183196034361   -0.58850382234094
C        -2.93656437791599   -0.70389816305831   -1.83814466326990
C        -1.94117964559623   -1.42053396933403   -2.59701243741787
C        -1.55872689642775   -2.58684921493775   -1.83970168689172
C        -2.31342067250267   -2.58206952731219   -0.61146127866774
C        -3.16369639740624   -1.42539902506805   -0.61675321244161
C        -0.98551772026393   -0.72139358122052   -3.32061228517192
C        -0.98416175868619    0.71950099703352   -3.31146390129461
C         0.38673279324219    1.16538497305108   -3.31605753322517
C         1.23286228576386   -0.00009316735565   -3.32049388106399
C         0.38729310195867   -1.16606033995726   -3.32332559513506
Cl       -1.95823845244074    0.00749008217706    5.23379084485055
Cl       -3.14617726237325    3.63238240995867    2.86425889242314