63
 energy: -142.082370439846 gnorm: 0.136801945040 xtb: 6.4.1 (a3dbbd7)
C        -1.29585809763920    0.00401118881931    3.54517689231029
C        -0.36796043466059   -1.17243305044266    3.30515820987539
C         0.98298838984909   -0.72191219210780    3.27512267957929
C         0.98156472691728    0.71960753564614    3.26971969840148
C        -0.37066843430553    1.17924059866277    3.30150764324135
C         2.33648296598357   -2.58548060321166    0.57950289371033
C         3.18657767566203   -1.41946403917212    0.57781419536533
C         2.94957050634668   -0.69854930588343    1.80123308089156
C         1.95308396825138   -1.41752165469557    2.55613481597303
C         1.57961582984989   -2.57968580834158    1.80518673258983
C         3.18767024138397    1.40991878537575    0.57593180017933
C         2.33807592119235    2.57402574463448    0.57591940987423
C         1.57683795447400    2.56605672116665    1.79975339077111
C         1.95304946478205    1.40835201085528    2.55205927541471
C         2.95072023090319    0.68875745027160    1.80098024590342
C        -0.36516779392141    3.42666371311492    0.57921714402649
C        -1.72924376731069    3.01648005687427    0.58287705229366
C        -2.09463355901587    2.46231282969886    1.94730853737491
C        -0.73027134368917    2.28553619224850    2.58224921046650
C         0.24829448370074    2.97593693088527    1.80334175247540
C        -3.37466967439567    0.70300551329579    0.57574930039426
C        -3.39003092771629   -0.73268815670587    0.56838248256510
C        -2.76818811346571   -1.16356142396752    1.78871572205038
C        -2.38904763717889    0.02437925858140    2.53264263708558
C        -2.74834472581071    1.12995086235998    1.81420011509538
C        -1.73481952354600   -3.00995345707075    0.57938225067925
C        -0.36149853487188   -3.44686666226009    0.58178847329193
C         0.25217194576597   -2.99475012297255    1.80551622011247
C        -0.72930832450935   -2.27346636848304    2.56467955460776
C        -1.97147545437730   -2.28746259180062    1.79868366143107
C        -0.24419850633136   -3.01431906314620   -1.82647673825261
C         0.74940205395547   -2.29291975806330   -2.58286291039202
C         1.97453700920709   -2.29239152825096   -1.82543977569151
C         1.74139873391846   -3.01127177396538   -0.59946235539016
C         0.36858334361035   -3.45436466601281   -0.59762914030018
C         2.79442417375665   -1.17031401238235   -1.82833550582627
C         2.41574661868216   -0.00512369138436   -2.58546959698227
C         2.79806943058290    1.16104826437995   -1.83045397159780
C         3.41356646756867    0.71553904959985   -0.60565027126811
C         3.41126633543504   -0.72579612437446   -0.60436594375932
C         1.98256115237360    2.28538932475628   -1.82964816243890
C         0.75350030248264    2.28551308222168   -2.58573232043658
C        -0.23508280223273    3.00436687434747   -1.82344140510130
C         0.37359850933878    3.44286488634390   -0.60220138875814
C         1.74684322375821    3.00246743965493   -0.60372642363152
C        -1.55566653240424    2.56818250404503   -1.80941223602174
C        -1.93859434660526    1.40592010808590   -2.57168095899201
C        -2.93551210472019    0.68461262540438   -1.82146846795257
C        -3.16898901543324    1.39767486955451   -0.59605965569985
C        -2.30435127708354    2.57332623889815   -0.58497549494069
C        -2.94114405324375   -0.70773319319533   -1.83440725651199
C        -1.94505174587464   -1.42387954866205   -2.59102123509086
C        -1.56548890453788   -2.59170746569988   -1.83211639417485
C        -2.32839595521473   -2.59312664308342   -0.60918315809929
C        -3.17773883520354   -1.43218193780650   -0.61434027481289
C        -0.98775846768414   -0.72638522805960   -3.31322849835342
C        -0.98659864734294    0.71557045446948   -3.30737103344774
C         0.38544609972999    1.16109326157285   -3.31071431262535
C         1.23106807690940   -0.00470839623161   -3.31198800118088
C         0.38446650877846   -1.17000629315169   -3.31255499434049
Cl       -1.95494402211016   -0.00808767691631    5.23350834623694
Cl       -3.13453400293270    3.62205440046694    2.87428256889563
Cl        4.23483920608212    1.74143062991212   -2.76584101554871
63
 energy: -142.106399796073 gnorm: 0.058794616413 xtb: 6.4.1 (a3dbbd7)
C        -1.29629154167847    0.00385925874055    3.54519703601973
C        -0.36888793629795   -1.17304294065030    3.30554718237537
C         0.98172851839170   -0.72338901127957    3.27594552778046
C         0.98020564657753    0.71846763370672    3.26968238946330
C        -0.37127838334509    1.17931235115257    3.30246247014666
C         2.33448437191642   -2.58964818207901    0.58271568206153
C         3.18536327140345   -1.42455460798379    0.58536050110290
C         2.95072231605617   -0.70426601932539    1.80672587788767
C         1.95186175000157   -1.42094593418369    2.55877410775565
C         1.57814590370866   -2.58343922192756    1.80802402599950
C         3.17736368636691    1.40077734732921    0.57996599477613
C         2.33201921475642    2.57355304780301    0.57751137306744
C         1.57475830636201    2.56529161417502    1.79835574218535
C         1.95160782489371    1.40636012423477    2.55169242989889
C         2.95073702128470    0.68476139215169    1.80668309492461
C        -0.37219696915431    3.43148337788126    0.58292339002536
C        -1.73464943437193    3.01812747346427    0.58572235713714
C        -2.09706522564570    2.46265493079728    1.94975139515628
C        -0.73174817396305    2.28684528416185    2.58319789698063
C         0.24432340190798    2.97838078815168    1.80507899725776
C        -3.37575022238369    0.70260386373177    0.57650791283748
C        -3.39043240218535   -0.73334725835808    0.56879478482089
C        -2.76888892956103   -1.16395972247085    1.78863464156871
C        -2.38949282775174    0.02403485452591    2.53277796904275
C        -2.74918479591810    1.12970510023464    1.81511040736395
C        -1.73601320224538   -3.01110810061354    0.58019501029261
C        -0.36345305145689   -3.44894570087575    0.58322717125524
C         0.25024165444628   -2.99683131237271    1.80723671128014
C        -0.73075488554971   -2.27463349312675    2.56513694384859
C        -1.97248063674180   -2.28853994951650    1.79919112371203
C        -0.24608156259807   -3.01887045984077   -1.82519890738485
C         0.74759994395537   -2.30106418739956   -2.58298220084773
C         1.96962524540645   -2.30046240139867   -1.82504795886581
C         1.73900118617033   -3.01576585782386   -0.59725037521967
C         0.36645830368694   -3.45862623257333   -0.59600866343902
C         2.78330965655787   -1.17146599681335   -1.82308737911279
C         2.40549824431616   -0.01817295116646   -2.58224117043599
C         2.88518492027097    1.19481065386243   -1.88672356925986
C         3.40815224382523    0.70631114149588   -0.59293420191965
C         3.40107286240037   -0.72663601346029   -0.59787895372736
C         1.97272812798108    2.30951004166477   -1.83391964795506
C         0.74549453415112    2.28651167022071   -2.57334342606240
C        -0.24616583458223    3.01180453194647   -1.81894569504382
C         0.36156505578609    3.45016039363155   -0.59947769891793
C         1.73243977828034    2.99924066694774   -0.60356533974100
C        -1.56343602723178    2.57160145602021   -1.80731966363503
C        -1.94287390242571    1.40718598130473   -2.56999154008737
C        -2.93705651842504    0.68506561672657   -1.82102994441009
C        -3.17158223027197    1.39733910371886   -0.59473590144436
C        -2.30968979437190    2.57479480255768   -0.58230839540022
C        -2.94252042145806   -0.70863448581019   -1.83415785994033
C        -1.94567945720507   -1.42487578841130   -2.58960055665623
C        -1.56655259369432   -2.59358728977863   -1.83106896497163
C        -2.32917889748112   -2.59418967029733   -0.60886386475825
C        -3.17807286385953   -1.43236367766915   -0.61441627856340
C        -0.98828812424714   -0.72805557681811   -3.31118758081595
C        -0.98666150847151    0.71548059131886   -3.30482486466282
C         0.38037173260906    1.16056331471628   -3.30685995821030
C         1.22382092723340   -0.01201722523333   -3.30154549513988
C         0.38124499151952   -1.17670005288017   -3.31286502447309
Cl       -1.95533632737823   -0.00813954039333    5.23343778274715
Cl       -3.13686698744056    3.62203200946953    2.87667081003171
Cl        4.35826701303150    1.78082541338976   -2.84239056415832
63
 energy: -142.112304475634 gnorm: 0.013417612528 xtb: 6.4.1 (a3dbbd7)
C        -1.29891851531347    0.00297029121849    3.54647259361318
C        -0.37147390108124   -1.17388617751091    3.30653087397522
C         0.97917044615733   -0.72503379717975    3.27747907721844
C         0.97727998042120    0.71721889723756    3.26949688397330
C        -0.37393571063862    1.17831324649919    3.30383433158814
C         2.33104025093640   -2.59030226504311    0.58481786374698
C         3.18081915696435   -1.42397314110846    0.58735657435516
C         2.94655586931430   -0.70712432251176    1.80684695134596
C         1.94961648545404   -1.42374343319457    2.56164614389890
C         1.57512610751085   -2.58594552939167    1.81035013610438
C         3.17493546394684    1.39657434601745    0.57483560163573
C         2.33138938808757    2.57495543591846    0.57760011500032
C         1.57208299811246    2.56303615392403    1.79420945611158
C         1.94772788646685    1.40409904798744    2.54915494625981
C         2.94389725236318    0.68228687491203    1.80194691529275
C        -0.37621893506079    3.43090159652767    0.58480255917609
C        -1.73942935638783    3.01908491161285    0.58843523031631
C        -2.10107975157996    2.46237107562582    1.95238622102594
C        -0.73451897091704    2.28650596965404    2.58412028895474
C         0.24019697914030    2.97832782325548    1.80665166279396
C        -3.37869500942044    0.70175054962152    0.57842325487353
C        -3.39295963690460   -0.73449890381427    0.57076807458046
C        -2.77132215092829   -1.16486757210734    1.78983857430235
C        -2.39223783896180    0.02323725261845    2.53443425424720
C        -2.75219747827501    1.12898617735739    1.81744440879200
C        -1.73894359222389   -3.01284155547114    0.58236415141782
C        -0.36691516510969   -3.45142473025390    0.58571055673431
C         0.24678950015874   -2.99911899263593    1.80986780398932
C        -0.73386438175753   -2.27630599292763    2.56681155805365
C        -1.97538423834921   -2.29001961739199    1.80105916881937
C        -0.24898333903840   -3.02281426978335   -1.82351191563404
C         0.74537924515337   -2.30282868798953   -2.57851731062650
C         1.96475582889453   -2.29999518816375   -1.82262794881625
C         1.73548743568653   -3.01647300072246   -0.59529463871340
C         0.36339783660510   -3.46146192064245   -0.59353443240871
C         2.77386005343771   -1.16361504974793   -1.82107139940248
C         2.40812040496797   -0.02007798635399   -2.58544879714898
C         2.96279075888958    1.22163300364179   -1.93573749798863
C         3.41277848287573    0.70601227615041   -0.59267708831631
C         3.39207087034801   -0.71904205824225   -0.59601911648403
C         1.96817202226124    2.31078697553082   -1.83267266890043
C         0.74891643438488    2.28187710649147   -2.56435456617101
C        -0.24869544807743    3.00885903685155   -1.81467829255648
C         0.35776732837693    3.44684228961566   -0.59755142437891
C         1.72937797939399    2.99043349299417   -0.60732216428631
C        -1.56650785288495    2.57055152008524   -1.80399500180927
C        -1.94641707273119    1.40665429251426   -2.56720133146367
C        -2.93892347806179    0.68460901023191   -1.81920292850429
C        -3.17522030012639    1.39662779690287   -0.59234527792946
C        -2.31442559907572    2.57537789684041   -0.57987386099175
C        -2.94510784595554   -0.70997058486241   -1.83216092474730
C        -1.94721096827868   -1.42566749205307   -2.58704712499769
C        -1.56902887465832   -2.59572293386786   -1.82914394049117
C        -2.33134811162672   -2.59535023399774   -0.60718258178239
C        -3.18019938974433   -1.43301777804036   -0.61284971263306
C        -0.98871933472694   -0.72833714405931   -3.30636452012126
C        -0.98463890090760    0.71578122331492   -3.29995437402367
C         0.37928699001019    1.16083590277624   -3.30732411362312
C         1.22671471269952   -0.01263337783973   -3.29551783484734
C         0.38078162939537   -1.17509433129935   -3.30474899797935
Cl       -1.95746202391789   -0.00894057386457    5.23498096063236
Cl       -3.14038086368056    3.62027411021922    2.88146035637010
Cl        4.44586424384964    1.81553002662670   -2.89973866587872
63
 energy: -142.112606904439 gnorm: 0.008006069219 xtb: 6.4.1 (a3dbbd7)
C        -1.30044039529654    0.00256772383083    3.54731931992204
C        -0.37312933880324   -1.17448639953616    3.30744589350887
C         0.97747264266899   -0.72558747248998    3.27779276668153
C         0.97568820288175    0.71670145072702    3.26863474121999
C        -0.37532146755228    1.17788907124907    3.30460241307764
C         2.32878450380378   -2.58918212991749    0.58525653658384
C         3.17793246147433   -1.42232948429180    0.58597483486399
C         2.94379887235845   -0.70713595243703    1.80533466826735
C         1.94806831579471   -1.42425093554064    2.56232260676360
C         1.57338445619703   -2.58642651335983    1.81118540140943
C         3.17781408392764    1.39752122627342    0.57131764008303
C         2.33307199485633    2.57659163996688    0.57795708079984
C         1.57130018710549    2.56255477860224    1.79263801695446
C         1.94552562117160    1.40299398932764    2.54662136805817
C         2.94043847779474    0.68180624185311    1.79740292957179
C        -0.37677202197898    3.42935720454926    0.58491184062259
C        -1.74064256127573    3.01922512142032    0.58933117704538
C        -2.10252199645868    2.46238297384099    1.95354002065666
C        -0.73548677927074    2.28623751785301    2.58474573087619
C         0.23914095855844    2.97781176367584    1.80723030935948
C        -3.38017632278735    0.70148600576830    0.57917457898619
C        -3.39452806705575   -0.73495550309639    0.57179889157175
C        -2.77285947076266   -1.16531475738838    1.79071372377260
C        -2.39377471599386    0.02293084654480    2.53530895813102
C        -2.75351902468445    1.12877752962347    1.81832800557432
C        -1.74081644089755   -3.01399007055715    0.58371002190650
C        -0.36876087698849   -3.45273973918640    0.58704071953795
C         0.24502211878526   -3.00025115906620    1.81133871066542
C        -0.73567183243795   -2.27734152333101    2.56815060608069
C        -1.97721676133191   -2.29080709388604    1.80230545275992
C        -0.25033884232960   -3.02358587885440   -1.82237653928018
C         0.74461678309448   -2.30171281113394   -2.57585832304890
C         1.96329491443002   -2.29731896439811   -1.82066278930168
C         1.73344131165067   -3.01523677167915   -0.59435743699423
C         0.36181220341023   -3.46211401667067   -0.59226031087931
C         2.77287613849181   -1.15990798248852   -1.82199232025153
C         2.41553940652352   -0.01746796853173   -2.59119240564844
C         2.98234791785097    1.22659973232817   -1.94758155251626
C         3.42094259396245    0.70922745214888   -0.59717952598058
C         3.39123836090744   -0.71536306061321   -0.59700639029310
C         1.96981555019952    2.30625902887016   -1.83210417428614
C         0.75294995461929    2.27964335948830   -2.56376847731562
C        -0.24746134003604    3.00510867830640   -1.81329109169201
C         0.35850115073260    3.44293826412921   -0.59702910660103
C         1.73216343131306    2.98766328527686   -0.60940867562106
C        -1.56620268729791    2.56904780411497   -1.80252720295327
C        -1.94714655819549    1.40583649633001   -2.56612077645058
C        -2.93954309462488    0.68409768669821   -1.81835640667991
C        -3.17663501196844    1.39638224901611   -0.59154229029147
C        -2.31542826326929    2.57515608475207   -0.57912185499196
C        -2.94627067502820   -0.71059387030362   -1.83105254764130
C        -1.94749652221449   -1.42568535947308   -2.58536525721766
C        -1.57024418843130   -2.59630697154237   -1.82773310959072
C        -2.33290700602503   -2.59612776103106   -0.60602856646427
C        -3.18161184537671   -1.43352464699726   -0.61185855469115
C        -0.98811658874286   -0.72783848230237   -3.30314672022428
C        -0.98381826689461    0.71599001792889   -3.29836879815408
C         0.37953345124867    1.16097773021843   -3.30961256398731
C         1.23064336872311   -0.01116077035411   -3.29679986259887
C         0.38190307396961   -1.17269445225205   -3.30018914151191
Cl       -1.95938654072565   -0.00984533180744    5.23578325210617
Cl       -3.14242137161341    3.61779424095703    2.88513727001630
Cl        4.45839035370701    1.82490360755062   -2.90999561873254
63
 energy: -142.112702583461 gnorm: 0.004601609395 xtb: 6.4.1 (a3dbbd7)
C        -1.30086263745745    0.00252633690656    3.54768263732056
C        -0.37369752969298   -1.17472763837109    3.30796060755915
C         0.97680200520249   -0.72578152017444    3.27791678472989
C         0.97517194378246    0.71656214733033    3.26829993319919
C        -0.37567028686314    1.17786644366864    3.30513367796463
C         2.32754522112873   -2.58850946584973    0.58546976234670
C         3.17597452187505   -1.42141244179174    0.58508014268279
C         2.94253886556925   -0.70706233071946    1.80472013663991
C         1.94744213423558   -1.42453613268248    2.56286533187261
C         1.57275926044726   -2.58668568535778    1.81178230708957
C         3.17919407928995    1.39815189453336    0.56974661272201
C         2.33425391367422    2.57792764297976    0.57897860832304
C         1.57126430168212    2.56277700776123    1.79243367387540
C         1.94449771658897    1.40243894447643    2.54521400466856
C         2.93873608379183    0.68145662261553    1.79493797314962
C        -0.37670434394139    3.42868021629598    0.58488504303163
C        -1.74081960945368    3.01955721770983    0.58958357104713
C        -2.10271328561428    2.46273328844407    1.95396465402253
C        -0.73550953381813    2.28636869658792    2.58516000840586
C         0.23902112449746    2.97780901097939    1.80775888178606
C        -3.38036308830524    0.70153293506057    0.57913020961610
C        -3.39486208920664   -0.73502139869921    0.57200465511862
C        -2.77309818307832   -1.16533948613043    1.79083979639433
C        -2.39392540747878    0.02300148668755    2.53534993395383
C        -2.75340272484247    1.12884770940411    1.81824802815100
C        -1.74151966769796   -3.01458115443812    0.58422637974727
C        -0.36947583097879   -3.45354026902196    0.58759214756502
C         0.24442642658115   -3.00093369823903    1.81210446561326
C        -0.73624544436617   -2.27782825844628    2.56877623957382
C        -1.97777562044212   -2.29108778189860    1.80275509222912
C        -0.25108402624224   -3.02407894571641   -1.82194208574790
C         0.74415239141630   -2.30116438365326   -2.57469826599118
C         1.96234173329709   -2.29565664270190   -1.81927123195021
C         1.73231235448391   -3.01447606316064   -0.59385486775667
C         0.36104220778342   -3.46257810728510   -0.59182695925025
C         2.77188485115670   -1.15796342394245   -1.82228230682999
C         2.41950687743182   -0.01559594923505   -2.59430927716877
C         2.99053870413322    1.22830686727554   -1.95243529984064
C         3.42520716953703    0.71132268166202   -0.59982287945397
C         3.39033293608506   -0.71343543514587   -0.59729122558774
C         1.97029531074225    2.30181907831316   -1.83085521322952
C         0.75534059403887    2.27796230002216   -2.56378151042091
C        -0.24653520010877    3.00262351575746   -1.81245025937082
C         0.35912101559920    3.44034634549440   -0.59672050162027
C         1.73419600933912    2.98597636661842   -0.61023919673466
C        -1.56577586722733    2.56829777819597   -1.80202458472126
C        -1.94750565486733    1.40538805425235   -2.56604098907189
C        -2.93971239501331    0.68388029647905   -1.81835100381811
C        -3.17704018399974    1.39645076099100   -0.59156833033263
C        -2.31541336260870    2.57509830850522   -0.57901878096275
C        -2.94672801656553   -0.71087621648805   -1.83083171094614
C        -1.94758566679246   -1.42573009949981   -2.58485343397116
C        -1.57077339284154   -2.59653968118307   -1.82713245565002
C        -2.33360175727361   -2.59656134971475   -0.60561501733767
C        -3.18212621230157   -1.43375035540914   -0.61161913768495
C        -0.98769357314498   -0.72754468872831   -3.30153245770172
C        -0.98372423702400    0.71609002892045   -3.29827355694319
C         0.37911016770944    1.16091331829911   -3.31164519528247
C         1.23238121022416   -0.01036301143171   -3.29762803578538
C         0.38262195538215   -1.17148938898126   -3.29783328795248
Cl       -1.96063767167971   -0.01030914729488    5.23591948541579
Cl       -3.14353547888916    3.61612308119232    2.88695916463596
Cl        4.45689087897410    1.82950073667504   -2.91126379579227
63
 energy: -142.112741711420 gnorm: 0.002434101245 xtb: 6.4.1 (a3dbbd7)
C        -1.30071077006734    0.00268299934857    3.54764793252908
C        -0.37361863437834   -1.17465441441718    3.30803090502978
C         0.97681446624758   -0.72576133727844    3.27787356857185
C         0.97532150549547    0.71664707041283    3.26831997379625
C        -0.37546563297912    1.17799981700122    3.30529097347812
C         2.32726029800850   -2.58837092143422    0.58554088692950
C         3.17529107197851   -1.42128002158869    0.58482692640735
C         2.94243387985586   -0.70710941072704    1.80477059366858
C         1.94746657254662   -1.42470617443865    2.56318032905889
C         1.57280946412955   -2.58678948090690    1.81205522723437
C         3.17924686170926    1.39811242471807    0.56951974269509
C         2.33472798332143    2.57849977874553    0.57980995749347
C         1.57163784080775    2.56315264130907    1.79280249324515
C         1.94445467834949    1.40233060537254    2.54489866639155
C         2.93841541684779    0.68120944516119    1.79427973958634
C        -0.37642918652490    3.42868181431126    0.58482897370880
C        -1.74050495607537    3.01980164040335    0.58951662482508
C        -2.10241086448583    2.46303566958631    1.95392343922288
C        -0.73515108832969    2.28660262791799    2.58521343458845
C         0.23932120999356    2.97801175002892    1.80804904411236
C        -3.37995798924534    0.70168919087749    0.57882303702327
C        -3.39458188854721   -0.73488298961043    0.57182121980417
C        -2.77279307329725   -1.16516361128759    1.79063034411544
C        -2.39354707413530    0.02320984638617    2.53506816096212
C        -2.75286869138053    1.12898407621551    1.81788320734610
C        -1.74148010446401   -3.01462315707284    0.58421206456383
C        -0.36949742742033   -3.45374445626165    0.58762392013001
C         0.24446725746323   -3.00109549010007    1.81226804000350
C        -0.73614529412767   -2.27782405532655    2.56881045294352
C        -1.97766451125283   -2.29101290079649    1.80271524844262
C        -0.25126507169347   -3.02438045588650   -1.82196837174279
C         0.74401863275675   -2.30120485948296   -2.57460171818244
C         1.96201982520986   -2.29524611795471   -1.81872237454484
C         1.73204060753994   -3.01430978772571   -0.59373711457373
C         0.36090027455780   -3.46281933757499   -0.59187949633635
C         2.77107039834087   -1.15744906609589   -1.82210903239108
C         2.42020790345912   -0.01497318121640   -2.59483026436334
C         2.99286899873762    1.22884960199021   -1.95383531866868
C         3.42587983619750    0.71189412035523   -0.60046841594351
C         3.38955656586052   -0.71293962819458   -0.59708751755764
C         1.96974169600995    2.29890590590869   -1.82955641682452
C         0.75609814727469    2.27695582085665   -2.56360229568415
C        -0.24617468884944    3.00175973353812   -1.81209970183201
C         0.35934367007056    3.43942671792758   -0.59664782425193
C         1.73485582031244    2.98500101115551   -0.61027262740917
C        -1.56552577053106    2.56820965557793   -1.80210319285453
C        -1.94762674253302    1.40528369619976   -2.56640604983387
C        -2.93961347901378    0.68391866556444   -1.81868058229666
C        -3.17688882059396    1.39662734729742   -0.59185716780781
C        -2.31499859169036    2.57512177479948   -0.57917406798560
C        -2.94668400036436   -0.71087879943369   -1.83104172907003
C        -1.94752146243210   -1.42576293872307   -2.58503250761431
C        -1.57076761255108   -2.59653832606198   -1.82707975780172
C        -2.33362604488635   -2.59659782872889   -0.60566262128690
C        -3.18204397312216   -1.43370242928910   -0.61176751871417
C        -0.98749967966107   -0.72750921281696   -3.30130523012115
C        -0.98385901819780    0.71609127848495   -3.29882509558866
C         0.37860935760008    1.16073810659454   -3.31266786381714
C         1.23253796214623   -0.01029569448915   -3.29761613574591
C         0.38292475259405   -1.17130909553703   -3.29724790026357
Cl       -1.96114230752566   -0.01034024053131    5.23567061452799
Cl       -3.14372229156610    3.61553633467757    2.88723233543113
Cl        4.45022977236315    1.83148122096851   -2.90878507121510
63
 energy: -142.112753622153 gnorm: 0.001300225109 xtb: 6.4.1 (a3dbbd7)
C        -1.30047981886753    0.00281302645057    3.54750084339518
C        -0.37339435048872   -1.17452262445490    3.30790407075895
C         0.97704239025653   -0.72570210347507    3.27780129448088
C         0.97560105632391    0.71674976125898    3.26845144632559
C        -0.37521460591253    1.17810069770270    3.30522676481957
C         2.32750363977994   -2.58855229638974    0.58552934280607
C         3.17557301434353   -1.42155858024712    0.58498813161365
C         2.94280644511300   -0.70721139890103    1.80502830921256
C         1.94769524830783   -1.42476483233100    2.56321087722717
C         1.57302457427051   -2.58679567497786    1.81203396935722
C         3.17891231717647    1.39780929830437    0.56988331563537
C         2.33471237378035    2.57841833055499    0.58001938939481
C         1.57197732401527    2.56332704926028    1.79312333031001
C         1.94483571490888    1.40245514848021    2.54522437442503
C         2.93879473121941    0.68113498927101    1.79466848970089
C        -0.37623915766650    3.42893006914170    0.58480416424335
C        -1.74022617486998    3.01986825279208    0.58937005596228
C        -2.10215588350479    2.46312812257436    1.95373146993731
C        -0.73489366124534    2.28672089334391    2.58507948696258
C         0.23958202873337    2.97815177203302    1.80806923785624
C        -3.37962932035940    0.70180647923065    0.57863634567125
C        -3.39431215305871   -0.73474244039194    0.57163936279847
C        -2.77256190278727   -1.16502318110942    1.79046489698361
C        -2.39328488464752    0.02334458686478    2.53488974412890
C        -2.75258775983444    1.12907085355067    1.81768212760363
C        -1.74125271152473   -3.01443817168982    0.58404029078204
C        -0.36931305228487   -3.45359938655856    0.58747454193901
C         0.24464537526248   -3.00096489135096    1.81212019549264
C        -0.73592948480422   -2.27765939094359    2.56862477559993
C        -1.97745403564613   -2.29086697772681    1.80255346945778
C        -0.25113858668336   -3.02445776935661   -1.82212433740478
C         0.74409493135308   -2.30147950149382   -2.57492212696075
C         1.96216912015088   -2.29561789581363   -1.81885852859093
C         1.73224910517808   -3.01450628626500   -0.59382263340059
C         0.36104670529184   -3.46283953744824   -0.59203699803629
C         2.77091523361848   -1.15779842156178   -1.82192440259848
C         2.41939234368154   -0.01529814160485   -2.59414906011033
C         2.99257089791225    1.22900938221049   -1.95372042119857
C         3.42498017744047    0.71149123150668   -0.59997039963661
C         3.38942055859824   -0.71328281300435   -0.59685707792300
C         1.96902870495713    2.29817641128940   -1.82891398043124
C         0.75580353240415    2.27675097593457   -2.56337657308941
C        -0.24621813280910    3.00209698507181   -1.81217504857772
C         0.35929122102059    3.43976748265116   -0.59673411764328
C         1.73455340132800    2.98479362068206   -0.60999129439273
C        -1.56546205568060    2.56841111330279   -1.80236020032906
C        -1.94750370928139    1.40534335354938   -2.56669163250463
C        -2.93942966439014    0.68404326636672   -1.81892033885505
C        -3.17662002505467    1.39673994506817   -0.59204055304991
C        -2.31470622097930    2.57517835060501   -0.57933745792960
C        -2.94652512133252   -0.71077488604050   -1.83127092109370
C        -1.94749923303724   -1.42579291153453   -2.58536012178520
C        -1.57060442181409   -2.59647927559806   -1.82724997541432
C        -2.33342875601515   -2.59645703997209   -0.60583399787427
C        -3.18183539025650   -1.43356377437116   -0.61195117685157
C        -0.98752649887309   -0.72764929365874   -3.30177940411330
C        -0.98388807774092    0.71601328416260   -3.29928283715608
C         0.37849231871210    1.16059931507101   -3.31271605294513
C         1.23215532176948   -0.01060418492779   -3.29734878899820
C         0.38290796130436   -1.17163856649573   -3.29764631329337
Cl       -1.96102564918061   -0.01016118100041    5.23548215886772
Cl       -3.14335846796073    3.61578853885863    2.88674002303088