108
 energy: -314.479222776324 gnorm: 5.879337561803 xtb: 6.4.1 (a3dbbd7)
C        -1.23626340000000    0.00000000000000    3.32997640000000
C        -0.38202640000000   -1.17575640000000    3.32997640000000
C         1.00015810000000   -0.72665740000000    3.32997640000000
C         1.00015810000000    0.72665740000000    3.32997640000000
C        -0.38202640000000    1.17575640000000    3.32997640000000
C         2.34433560000000   -2.60145750000000    0.59464210000000
C         3.19857260000000   -1.42570110000000    0.59464210000000
C         2.96246730000000   -0.69904370000000    1.83090550000000
C         1.96230920000000   -1.42570110000000    2.59495830000000
C         1.58028280000000   -2.60145750000000    1.83090550000000
C         3.19857260000000    1.42570110000000    0.59464210000000
C         2.34433560000000    2.60145750000000    0.59464210000000
C         1.58028280000000    2.60145750000000    1.83090550000000
C         1.96230920000000    1.42570110000000    2.59495830000000
C         2.96246730000000    0.69904370000000    1.83090550000000
C        -0.36750900000000    3.48258920000000    0.59464210000000
C        -1.74969350000000    3.03349030000000    0.59464210000000
C        -1.98579880000000    2.30683290000000    1.83090550000000
C        -0.74953540000000    2.30683290000000    2.59495830000000
C         0.25062270000000    3.03349030000000    1.83090550000000
C        -3.42570570000000    0.72665740000000    0.59464210000000
C        -3.42570570000000   -0.72665740000000    0.59464210000000
C        -2.80757400000000   -1.17575640000000    1.83090550000000
C        -2.42554760000000    0.00000000000000    2.59495830000000
C        -2.80757400000000    1.17575640000000    1.83090550000000
C        -1.74969350000000   -3.03349030000000    0.59464210000000
C        -0.36750900000000   -3.48258920000000    0.59464210000000
C         0.25062270000000   -3.03349030000000    1.83090550000000
C        -0.74953540000000   -2.30683290000000    2.59495830000000
C        -1.98579880000000   -2.30683290000000    1.83090550000000
C        -0.25062270000000   -3.03349030000000   -1.83090550000000
C         0.74953540000000   -2.30683290000000   -2.59495830000000
C         1.98579880000000   -2.30683290000000   -1.83090550000000
C         1.74969350000000   -3.03349030000000   -0.59464210000000
C         0.36750900000000   -3.48258920000000   -0.59464210000000
C         2.80757400000000   -1.17575640000000   -1.83090550000000
C         2.42554760000000    0.00000000000000   -2.59495830000000
C         2.80757400000000    1.17575640000000   -1.83090550000000
C         3.42570570000000    0.72665740000000   -0.59464210000000
C         3.42570570000000   -0.72665740000000   -0.59464210000000
C         1.98579880000000    2.30683290000000   -1.83090550000000
C         0.74953540000000    2.30683290000000   -2.59495830000000
C        -0.25062270000000    3.03349030000000   -1.83090550000000
C         0.36750900000000    3.48258920000000   -0.59464210000000
C         1.74969350000000    3.03349030000000   -0.59464210000000
C        -1.58028280000000    2.60145750000000   -1.83090550000000
C        -1.96230920000000    1.42570110000000   -2.59495830000000
C        -2.96246730000000    0.69904370000000   -1.83090550000000
C        -3.19857260000000    1.42570110000000   -0.59464210000000
C        -2.34433560000000    2.60145750000000   -0.59464210000000
C        -2.96246730000000   -0.69904370000000   -1.83090550000000
C        -1.96230920000000   -1.42570110000000   -2.59495830000000
C        -1.58028280000000   -2.60145750000000   -1.83090550000000
C        -2.34433560000000   -2.60145750000000   -0.59464210000000
C        -3.19857260000000   -1.42570110000000   -0.59464210000000
C        -1.00015810000000   -0.72665740000000   -3.32997640000000
C        -1.00015810000000    0.72665740000000   -3.32997640000000
C         0.38202640000000    1.17575640000000   -3.32997640000000
C         1.23626340000000    0.00000000000000   -3.32997640000000
C         0.38202640000000   -1.17575640000000   -3.32997640000000
C        -1.76086815247998    0.00000000000000    4.78849957557021
F        -0.76911826531252    0.00000000000000    5.67468926254662
F        -2.50968386795825   -1.06794314680471    5.04863888333743
F        -2.50968386795825    1.06794314680471    5.04863888333743
C        -0.54413818249354   -1.67468516033722    4.78849957845317
F        -0.23767107904745   -0.73147481112462    5.67468925997942
F        -1.79120914301982   -2.05683909935453    5.04863874564184
F         0.24013968171955   -2.71686350152345    5.04863903502921
C         1.42457227037960   -1.03501233722714    4.78849957248258
F         0.62223011468481   -0.45207589682711    5.67468926529602
F         1.40265511061956   -2.33913928186680    5.04863905501621
F         2.65809836182651   -0.61117154425495    5.04863869666890
C         4.92005227074660   -1.03501232949151   -0.86730592957069
F         5.35386609588658   -0.45207588830481   -1.98125865327758
F         5.14292645153878   -2.33913927311179   -1.00324714649869
F         5.70437742108406   -0.61117153086585    0.11965558739362
C         1.08016271022039    3.32439912180418   -3.71645041587937
F         1.46215754230407    4.50005299330749   -3.22571838851551
F         2.06425285383526    2.89718320022386   -4.50255037491024
F         0.03290491502764    3.55721032900471   -4.50254840735999
C        -0.34440953624153    4.35941144868709   -2.62817404748705
F         0.83992598883967    4.95213069234126   -2.75037577510431
F        -0.80829780400759    4.16837989546168   -3.85992670963205
F        -1.15529636597892    5.23632261667420   -2.04303359185445
C         2.28376457660886    3.72927671755932    2.62817408867206
F         3.59030321655004    3.51265997057976    2.75037870097715
F         2.14318168460923    4.91533956626619    2.04303190988612
F         1.79618325340524    3.84739782561575    3.85992562899767
C        -1.08016271022039    3.32439912180418    3.71645041587937
F        -1.46215754230407    4.50005299330749    3.22571838851551
F        -2.06425285383526    2.89718320022386    4.50255037491024
F        -0.03290491502764    3.55721032900471    4.50254840735999
C        -4.58877084110522   -2.05459160147071   -0.86730597290559
F        -4.59709252483521   -2.78118520641283   -1.98125951001435
F        -5.53562669678859   -1.13053295630600   -1.00324569798425
F        -4.97417519512416   -2.85850196315549    0.11965482382298
C        -1.42457227037960   -1.03501233722714   -4.78849957248258
F        -0.62223011468481   -0.45207589682711   -5.67468926529602
F        -2.65809836182651   -0.61117154425495   -5.04863869666891
F        -1.40265511061956   -2.33913928186680   -5.04863905501621
C         0.54413818249354   -1.67468516033722   -4.78849957845317
F         0.23767107904745   -0.73147481112462   -5.67468925997942
F        -0.24013968171955   -2.71686350152345   -5.04863903502921
F         1.79120914301982   -2.05683909935453   -5.04863874564184
C         1.08016271022039   -3.32439912180418   -3.71645041587937
F         1.46215754230406   -4.50005299330749   -3.22571838851551
F         0.03290491502765   -3.55721032900471   -4.50254840736000
F         2.06425285383526   -2.89718320022386   -4.50255037491024
108
 energy: -317.770581214492 gnorm: 3.636869885746 xtb: 6.4.1 (a3dbbd7)
C        -1.23635797477914    0.00245030046172    3.32335449031688
C        -0.38295509606480   -1.17927683294275    3.31934893483004
C         1.00266897081513   -0.72458136952581    3.32229898777917
C         1.00194709818593    0.72960321216170    3.33156549803373
C        -0.37921698511753    1.17188711653495    3.33212558821473
C         2.34420968090935   -2.59940936159188    0.59563330181430
C         3.19348810893315   -1.42874648266158    0.60185741870626
C         2.96122122640431   -0.70029987418091    1.82881607222157
C         1.96611347614210   -1.42850415057287    2.59065635900851
C         1.58013487595086   -2.60068459835153    1.82982870616742
C         3.19633577600127    1.42635399708102    0.59456931109475
C         2.34637892991883    2.60175740972509    0.58947799050669
C         1.58545657618498    2.60362256706413    1.83298091464675
C         1.96317710334676    1.41976113994194    2.59355206795800
C         2.96164091215101    0.70010923639838    1.83096971705803
C        -0.36689602102868    3.48050808366678    0.59807195905065
C        -1.75002485925715    3.03258173035186    0.59606463790705
C        -1.98860062470304    2.30802475530364    1.82517678550904
C        -0.75199765920766    2.31063098951554    2.59731207404655
C         0.24502814654577    3.03493579990771    1.82559771370999
C        -3.42539586033202    0.72515884155776    0.59558268325775
C        -3.42288300267674   -0.72144480872595    0.60172752122501
C        -2.80709090722199   -1.17353424549880    1.82891738555010
C        -2.43048172051974   -0.00009328248283    2.59118647918060
C        -2.80673756239027    1.17561801935677    1.82973238898629
C        -1.74813898531827   -3.03277116517649    0.59547952771102
C        -0.36773775668563   -3.48179170303756    0.59566391751915
C         0.25073680521981   -3.03334581824702    1.82917053780491
C        -0.75096988733601   -2.31019048117666    2.59052884294334
C        -1.98515499504656   -2.30822515086130    1.82937690915389
C        -0.25211190912936   -3.03609627657483   -1.82771885809766
C         0.74960424521835   -2.30511897399130   -2.58130175125479
C         1.98729906476261   -2.30794849411614   -1.82809543486004
C         1.74811706991207   -3.03437963829891   -0.59434401459007
C         0.36907496561436   -3.48172305405450   -0.59387414118332
C         2.80330005139981   -1.17390642178740   -1.83407471909152
C         2.42713309954534   -0.00079043834232   -2.59246964486002
C         2.80716433903669    1.17413779128513   -1.82924414725056
C         3.42726378130834    0.73122356551830   -0.59612284831102
C         3.43010525421456   -0.72715751548001   -0.59688844773206
C         1.98938999974015    2.30807121150725   -1.82712499431522
C         0.75199827793739    2.30299567983270   -2.59491740081046
C        -0.25246472294258    3.03473744515484   -1.82646843058321
C         0.37045648797024    3.48194782021983   -0.59159310065709
C         1.74849997276417    3.03116128401819   -0.59446410796128
C        -1.58673228325394    2.59679899703490   -1.83184359256707
C        -1.96210624926276    1.42606536865775   -2.59212450206371
C        -2.96190326975445    0.69880903827466   -1.83036927134216
C        -3.19780947829528    1.42682025125044   -0.59513343789104
C        -2.34507374537339    2.59979826931020   -0.59503974755908
C        -2.95842337704745   -0.69559041557365   -1.83280682810510
C        -1.96681086069012   -1.42777980988563   -2.58996704917897
C        -1.58111708520834   -2.60024580566609   -1.82806596700940
C        -2.33925854476760   -2.60259611811157   -0.59632716431413
C        -3.20526412692879   -1.42978054126881   -0.59687343420836
C        -1.00306896584320   -0.72288500128443   -3.32296214782455
C        -1.00122615808891    0.72992958598363   -3.33162817742551
C         0.38054943654977    1.17170760734706   -3.33162835109981
C         1.23707823118795    0.00139633914392   -3.33294666531583
C         0.38252136316101   -1.16631367368569   -3.31565497320849
C        -1.78788803501578    0.00925655493486    4.76520881108212
F        -0.81779359789644    0.07070241042947    5.70262808705144
F        -2.58602093989600   -0.97580742622506    5.05265859090546
F        -2.51408533686984    1.06874018126068    5.05253125335718
C        -0.55129529877503   -1.69791604194752    4.76375958770825
F        -0.25852989208495   -0.79605972391599    5.70868999226598
F        -1.73099747401880   -2.15677810911920    5.05234360673247
F         0.13299139007069   -2.76286816515936    5.05172256582143
C         1.44884436883926   -1.04806404001562    4.76461448578730
F         0.70416769523204   -0.42024085407193    5.70308269981870
F         1.51927805709942   -2.30955789899721    5.05290395789115
F         2.66382605933332   -0.60753157914947    5.05080815171868
C         4.92044398880462   -1.03463892861067   -0.86660148382930
F         5.35565349237841   -0.45165042152743   -1.98331715062068
F         5.14410478532691   -2.34078050433093   -1.00394066261849
F         5.70611002917799   -0.61091360133531    0.12028893454880
C         1.07901204868564    3.30638969882165   -3.72390609930087
F         1.52741472608916    4.47595333174745   -3.26564330891598
F         2.07022551461441    2.89557568506898   -4.50653716531367
F         0.11439559389623    3.49818092486735   -4.57206868262430
C        -0.36399669219643    4.35446105780395   -2.62178899857741
F         0.79776114537258    5.00624848582587   -2.70833342415363
F        -0.89435691529908    4.23155746007650   -3.80137718260502
F        -1.15809813267254    5.24075468640709   -2.03982376664151
C         2.28451609315199    3.72946825400543    2.62800262077546
F         3.59266041160788    3.51347414131491    2.75111756030570
F         2.14347346003847    4.91732773573398    2.04261443995727
F         1.80173797222718    3.84898167820442    3.86031769859843
C        -1.08027981490094    3.32638374083110    3.71416958457376
F        -1.46282006658511    4.50209475864268    3.22621547234607
F        -2.06475058071246    2.90230105739375    4.50368291774213
F        -0.03741595411927    3.55668919376379    4.50713479394050
C        -4.58925413561392   -2.05455026498411   -0.86712874743841
F        -4.59811873191691   -2.78269473270893   -1.98291446008143
F        -5.53727003920277   -1.13021892103065   -1.00356707195663
F        -4.97525350990625   -2.85972126389890    0.12038420988295
C        -1.43835803511283   -1.03973276154824   -4.77137825129375
F        -0.69018488689526   -0.41037025183184   -5.70424232190213
F        -2.66289968958021   -0.60788416887796   -5.05122072237193
F        -1.53131180832172   -2.31262952562436   -5.05829836501348
C         0.53273066117853   -1.69091454402177   -4.73172832761974
F         0.31540744260790   -0.72230272568239   -5.71222463894625
F        -0.16777646957349   -2.73701646979920   -5.08984803037780
F         1.83142196547626   -2.01648092873862   -5.09391378211259
C         1.08428704871032   -3.32277053528278   -3.68788677108886
F         1.46290459642162   -4.50318799928409   -3.22631158190961
F         0.02504359435419   -3.61615486513487   -4.49392837957326
F         2.10729710657654   -2.93546537131724   -4.49261529361798
108
 energy: -320.232144151473 gnorm: 2.727736390797 xtb: 6.4.1 (a3dbbd7)
C        -1.23933362264643    0.00766593149980    3.32811068052383
C        -0.38491814064232   -1.18484782931707    3.32425565703370
C         1.01012101318570   -0.72368714398721    3.33053198449171
C         0.99854017679067    0.73584992354631    3.32088559389316
C        -0.37016248556793    1.16740871621321    3.33208647234231
C         2.34541979094131   -2.59543912483098    0.59734252792805
C         3.18585136190295   -1.43396613890321    0.61039895618894
C         2.95792371258558   -0.70281685028832    1.82575895771336
C         1.97246153331076   -1.43317651166075    2.58158488548559
C         1.58052493650878   -2.59832176958164    1.82901805271540
C         3.19282039318743    1.42693849731706    0.59373498340413
C         2.34872528732256    2.59488736381197    0.58347459770042
C         1.59418908564158    2.61459293632958    1.84034888791932
C         1.96469201653171    1.41233659583858    2.59079318005474
C         2.95988932597549    0.70124300947766    1.83166707499147
C        -0.36567220858959    3.47242508374133    0.60340935759424
C        -1.75068588528184    3.03000026698653    0.59944620352101
C        -1.99156663064265    2.30510383701778    1.81652344411251
C        -0.75569648409237    2.32252402462102    2.60284224083327
C         0.23722384240218    3.03691924161558    1.81312169947656
C        -3.42361624418718    0.72324568094754    0.59642490175017
C        -3.42013830076367   -0.71458357931933    0.61128429480973
C        -2.80713368999132   -1.16907529642370    1.82588018783594
C        -2.43872392598350    0.00089827547202    2.58198412215873
C        -2.80574799770971    1.17289964386068    1.82772222192519
C        -1.74560778143061   -3.03262962111616    0.59605648471255
C        -0.36853632960205   -3.48144343925948    0.59758908021806
C         0.24937643217833   -3.03299041066932    1.82648475799130
C        -0.75483672753654   -2.31809635928729    2.58043343327834
C        -1.98156284182542   -2.30824096253065    1.82770313689342
C        -0.25496103764573   -3.03874920533001   -1.82168962748145
C         0.75243877738649   -2.31322523332728   -2.56960932279060
C         1.98953221945163   -2.30679864058968   -1.82078025068019
C         1.74595898769147   -3.03524838537935   -0.59497267757078
C         0.37138695780148   -3.47979354536308   -0.59365864042283
C         2.79709021843364   -1.17135216867727   -1.83861801945458
C         2.42842562779089   -0.00237371904066   -2.58788469311078
C         2.80636903908045    1.17100378147617   -1.82463890447370
C         3.41988518104393    0.73698260653499   -0.59688524834847
C         3.44642269694850   -0.72859965265747   -0.60165192751028
C         1.99468394229454    2.30707167390800   -1.82273599509465
C         0.75748390678478    2.30334121761776   -2.59782982493805
C        -0.25462816281252    3.04007474562995   -1.82370912966617
C         0.37538495843796    3.48573352972430   -0.58825699218755
C         1.74621112846603    3.02692845538103   -0.59333798584930
C        -1.59679922910122    2.59107834029748   -1.82919422476155
C        -1.96256554009697    1.42749088723788   -2.58739111397856
C        -2.96144762538653    0.69903705247022   -1.83027108105751
C        -3.19675686129316    1.42799924648648   -0.59541978545418
C        -2.34638839913306    2.59552591791108   -0.59579871295801
C        -2.95105582699175   -0.69056464543285   -1.83505470055305
C        -1.97479630726328   -1.43039821039550   -2.58270720149227
C        -1.58177412017817   -2.59742318337581   -1.82271412687111
C        -2.33170169187930   -2.60551311836114   -0.59692028654779
C        -3.21609801002351   -1.43629864584215   -0.60130084016223
C        -1.01106986564869   -0.71806541729528   -3.32241650747076
C        -0.99994472981473    0.73662399764814   -3.32808520841149
C         0.37720608657333    1.16273468105061   -3.33489901406470
C         1.23950062487670    0.00720422296485   -3.33055195550584
C         0.38478914020533   -1.16181506955183   -3.31993526316055
C        -1.81671881224489    0.01122689570332    4.74058600734070
F        -0.87986201540742    0.19635166530679    5.73067315382581
F        -2.62607317782445   -0.93424141504158    5.05753825477783
F        -2.51858399651189    1.06524261600769    5.05538440832645
C        -0.55888564364931   -1.71787513741896    4.74673691906352
F        -0.30894814481155   -0.94914463085945    5.73287633382420
F        -1.70841063569121   -2.20830691370693    5.05365042298171
F         0.08473811198288   -2.78988888969542    5.05322297408383
C         1.47465202181459   -1.06185776770995    4.73843262364512
F         0.83018946796918   -0.35211419684973    5.73386127679322
F         1.57613754152434   -2.29833112406163    5.05700385319776
F         2.66895427859045   -0.60379694914610    5.05098273728149
C         4.92288936420225   -1.03471894951940   -0.86602850728193
F         5.35809624348895   -0.45108793384152   -1.98592504496298
F         5.14554802973659   -2.34277596311908   -1.00474828094477
F         5.70837288128756   -0.61058966696999    0.12116338676317
C         1.07272926022078    3.28441561023655   -3.73245252767934
F         1.56980753753569    4.47730436818620   -3.28435172181777
F         2.07412193790286    2.89532569365313   -4.50769756939426
F         0.14794484713633    3.47521288103612   -4.60683868291419
C        -0.38789627129606    4.34344021312642   -2.61777588219635
F         0.78796650539525    5.04669704727485   -2.68674114262301
F        -0.93334837696770    4.26159358758532   -3.78138349597410
F        -1.15842907408606    5.24355228494853   -2.03740609477633
C         2.28645228721252    3.73086290362569    2.62918085465864
F         3.59605608813387    3.51454677452462    2.75191266205961
F         2.14392441879870    4.92014858382271    2.04185083096106
F         1.81026202827291    3.85138843437082    3.86049954918930
C        -1.08092319614793    3.32975453788681    3.71288150857005
F        -1.46363703511466    4.50502274618524    3.22661146853407
F        -2.06521225423602    2.91081577626926    4.50409086873071
F        -0.04462104615396    3.55584841278905    4.51318473171124
C        -4.59064751638926   -2.05485555038433   -0.86703883588186
F        -4.59954710113459   -2.78453676901567   -1.98514482556260
F        -5.53922560059150   -1.12979201655810   -1.00411591692045
F        -4.97652103418252   -2.86107998696445    0.12105533881008
C        -1.45094269409304   -1.04854315562681   -4.74996479964089
F        -0.73024950785622   -0.37589642328958   -5.72968376540520
F        -2.66505313072582   -0.60475559420488   -5.05270263193959
F        -1.59757803890082   -2.29849099647445   -5.06072828537306
C         0.50745240066477   -1.71452230871638   -4.66824284350785
F         0.36848063386316   -0.68656634322682   -5.77303934407272
F        -0.12372248019121   -2.71420901742020   -5.14608382605951
F         1.83478805275982   -1.92631432554160   -5.17473263818717
C         1.09579985558619   -3.31289436556489   -3.65131680360994
F         1.46281601561089   -4.50989458043296   -3.22751179998383
F         0.00095952731178   -3.70896622679367   -4.47336393236808
F         2.17033161210154   -3.02790897785089   -4.44745303997279
108
 energy: -322.015973595305 gnorm: 1.715965041858 xtb: 6.4.1 (a3dbbd7)
C        -1.24487143106622    0.00953050141510    3.34557548950244
C        -0.38691138294820   -1.19196096861141    3.34045588910567
C         1.01647092468610   -0.72504568816778    3.34990759094201
C         0.98819082671604    0.74257655953647    3.31264481083609
C        -0.35346984219182    1.16082366866884    3.32469155409328
C         2.34634465845657   -2.59292136401963    0.59793994538905
C         3.17822980403979   -1.43697169520650    0.61822350980470
C         2.95566412506735   -0.70767774844758    1.82324464823134
C         1.97853676454045   -1.43879894272071    2.56877831169972
C         1.58174260682805   -2.59439851896223    1.82965705022449
C         3.18891537919391    1.42879371739786    0.59229663508082
C         2.35172593725678    2.58943968128876    0.57782521554918
C         1.60326759707562    2.62421690701793    1.84646901636633
C         1.96963836827055    1.40544258490607    2.58683952668266
C         2.95473309209390    0.70420280117205    1.83335406126205
C        -0.36430142432168    3.46579941269319    0.60801741313980
C        -1.75146111897869    3.02801578094263    0.60256338259935
C        -1.99449293252405    2.30255915491504    1.80767273431820
C        -0.76044963541562    2.33545680015027    2.61283449887841
C         0.23070579197032    3.03720367685449    1.80058978303697
C        -3.42331481770755    0.72052983588373    0.59680683277700
C        -3.41630033713274   -0.70646920949586    0.61952660263138
C        -2.80635162097200   -1.16352400916876    1.82491587715312
C        -2.44653832988198    0.00163528524382    2.56982106700092
C        -2.80477020278940    1.17026605589804    1.82632274639835
C        -1.74441452836323   -3.03196490137414    0.59376505440681
C        -0.36802743624863   -3.48236276456572    0.59900055814403
C         0.24618891228731   -3.03279293566871    1.82357487834332
C        -0.76010629762944   -2.32578902642847    2.56300563396834
C        -1.97660148449169   -2.30904340041977    1.82901819582042
C        -0.26020466816198   -3.04017691983463   -1.81054992111854
C         0.75813835429663   -2.33340932930254   -2.57906194613922
C         1.99439687800424   -2.30455061683460   -1.81100969240261
C         1.74603333449164   -3.03283505963910   -0.59611651530628
C         0.36987772746486   -3.47781607612194   -0.59474956622321
C         2.78822814436352   -1.16956633985111   -1.84194079739781
C         2.42860489600456   -0.00310065276746   -2.58524397435591
C         2.80607982943776    1.16866977200893   -1.82012891351470
C         3.41487586338521    0.74251147941856   -0.59850202724141
C         3.46206728164303   -0.72999518674093   -0.60621012267525
C         1.99981202938918    2.30550816503467   -1.81643039241913
C         0.76545368631117    2.31001274357096   -2.60637525457139
C        -0.25679157224708    3.05135968926981   -1.82445020885387
C         0.38088863498219    3.48716959390500   -0.58274728242147
C         1.74291245683145    3.02319554988616   -0.59332968229100
C        -1.60727077767428    2.58396341290291   -1.82626130364717
C        -1.96247351678666    1.42899307854238   -2.58288804930937
C        -2.96134684674615    0.70003553355355   -1.82946583257379
C        -3.19588964779493    1.42816338227398   -0.59645882053537
C        -2.34723162516723    2.59179971426423   -0.59686498692630
C        -2.94260202801926   -0.68716873981721   -1.83739738060950
C        -1.98250093298866   -1.43358799030976   -2.57268402188827
C        -1.58006224177687   -2.59485524832432   -1.81901027357590
C        -2.32314578911443   -2.60766943043765   -0.59374184526727
C        -3.22894283785766   -1.44368535710863   -0.60532662064056
C        -1.01752698112039   -0.71635007307887   -3.33242398023148
C        -0.99731146855651    0.74402857288318   -3.32456816978008
C         0.37494559387632    1.14774542095973   -3.33418895484251
C         1.24106130415541    0.01832000226716   -3.32458176974028
C         0.38947164481624   -1.16383786650639   -3.33642772791572
C        -1.82467813583532    0.01983869420459    4.74149991097935
F        -0.93693511011273    0.31238649458340    5.73673216490396
F        -2.66125715772203   -0.89182729146417    5.05968434529020
F        -2.52820357090617    1.06604209823931    5.05423180436579
C        -0.56393879257610   -1.73352737799950    4.73918974089846
F        -0.36148253239624   -1.11133776031109    5.74627199893470
F        -1.69591243216328   -2.25953207671863    5.04908832299719
F         0.04536682340617   -2.82443129285699    5.04882205588201
C         1.48663752308937   -1.05768914120762    4.74037939631921
F         0.94596274791370   -0.29169328093835    5.73945853246416
F         1.63040951956711   -2.28415135635163    5.05929597996778
F         2.68012816532389   -0.59950854547082    5.04600767358513
C         4.92721698382704   -1.03567962790219   -0.86675110719807
F         5.35961529040425   -0.45043340424918   -1.98731356069599
F         5.14639392673389   -2.34372425225400   -1.00511864625176
F         5.70965624258720   -0.61004772188250    0.12167154285146
C         1.07160791858483    3.25941923539074   -3.74417438750501
F         1.63706838030473    4.45849252613776   -3.32303705142409
F         2.08135499152771    2.89156812477869   -4.50946813242351
F         0.18145329038000    3.45068418315067   -4.64269359363922
C        -0.41658869739920    4.33414727757072   -2.60967903320758
F         0.75207326079510    5.10662764228491   -2.64547602779715
F        -0.97449482985754    4.29151996705388   -3.76078045109568
F        -1.16170293122735    5.24744139256818   -2.03067205577008
C         2.28874597803973    3.73348912443120    2.63191114339937
F         3.59831594782202    3.51534183261270    2.75179728273858
F         2.14408254760221    4.92198348554566    2.04086199240526
F         1.81938141808394    3.85368053134778    3.85932167849400
C        -1.08289774260028    3.33389870442383    3.71623628999480
F        -1.46414821012456    4.50764864484755    3.22622797454080
F        -2.06564676296147    2.92060945745732    4.50291697523842
F        -0.05228123960905    3.55499762591675    4.51818796268627
C        -4.59460300371834   -2.05661451021024   -0.86709192897186
F        -4.60051613553192   -2.78604831197300   -1.98678218943704
F        -5.54057288774830   -1.12950987631950   -1.00449047839117
F        -4.97729612392507   -2.86231932915154    0.12171005941667
C        -1.47129798324709   -1.05711300112849   -4.73320640636278
F        -0.78161216619317   -0.34681726110690   -5.74649092816050
F        -2.66999286953748   -0.59841747924563   -5.05182307756228
F        -1.65632081123392   -2.27829806517412   -5.06143561444481
C         0.51266582776095   -1.73885457617215   -4.64675328754104
F         0.42960356387817   -0.65082182061792   -5.83498320682781
F        -0.06009800356690   -2.61829036688828   -5.22474965337005
F         1.78891834510125   -1.80892175291820   -5.24481985565027
C         1.11621334148924   -3.33325625628423   -3.64028510460660
F         1.46321353051831   -4.51753924944445   -3.21745213165259
F         0.01187856252208   -3.83723163172821   -4.39417982307611
F         2.18803117453570   -3.14279253599441   -4.36911285071428
108
 energy: -322.938070437875 gnorm: 1.024314108267 xtb: 6.4.1 (a3dbbd7)
C        -1.25366065972241    0.01220272475074    3.36733054070805
C        -0.39019245223809   -1.20246768530397    3.36122435524011
C         1.02619771665221   -0.72903204046069    3.37347137266319
C         0.97660736140855    0.74716099984856    3.29921280347291
C        -0.33636933263289    1.15472251125359    3.31154759921297
C         2.34608438559815   -2.59296863593241    0.59903496182789
C         3.16985611322139   -1.43891678853611    0.62471263608175
C         2.95318031561948   -0.71275672373953    1.81999540028001
C         1.98144282527526   -1.44168912177239    2.55199277373083
C         1.58212789022761   -2.59253124153695    1.82944165490108