156
 energy: -486.271610001825 gnorm: 9.424661374938 xtb: 6.4.1 (a3dbbd7)
C        -1.23626340000000    0.00000000000000    3.32997640000000
C        -0.38202640000000   -1.17575640000000    3.32997640000000
C         1.00015810000000   -0.72665740000000    3.32997640000000
C         1.00015810000000    0.72665740000000    3.32997640000000
C        -0.38202640000000    1.17575640000000    3.32997640000000
C         2.34433560000000   -2.60145750000000    0.59464210000000
C         3.19857260000000   -1.42570110000000    0.59464210000000
C         2.96246730000000   -0.69904370000000    1.83090550000000
C         1.96230920000000   -1.42570110000000    2.59495830000000
C         1.58028280000000   -2.60145750000000    1.83090550000000
C         3.19857260000000    1.42570110000000    0.59464210000000
C         2.34433560000000    2.60145750000000    0.59464210000000
C         1.58028280000000    2.60145750000000    1.83090550000000
C         1.96230920000000    1.42570110000000    2.59495830000000
C         2.96246730000000    0.69904370000000    1.83090550000000
C        -0.36750900000000    3.48258920000000    0.59464210000000
C        -1.74969350000000    3.03349030000000    0.59464210000000
C        -1.98579880000000    2.30683290000000    1.83090550000000
C        -0.74953540000000    2.30683290000000    2.59495830000000
C         0.25062270000000    3.03349030000000    1.83090550000000
C        -3.42570570000000    0.72665740000000    0.59464210000000
C        -3.42570570000000   -0.72665740000000    0.59464210000000
C        -2.80757400000000   -1.17575640000000    1.83090550000000
C        -2.42554760000000    0.00000000000000    2.59495830000000
C        -2.80757400000000    1.17575640000000    1.83090550000000
C        -1.74969350000000   -3.03349030000000    0.59464210000000
C        -0.36750900000000   -3.48258920000000    0.59464210000000
C         0.25062270000000   -3.03349030000000    1.83090550000000
C        -0.74953540000000   -2.30683290000000    2.59495830000000
C        -1.98579880000000   -2.30683290000000    1.83090550000000
C        -0.25062270000000   -3.03349030000000   -1.83090550000000
C         0.74953540000000   -2.30683290000000   -2.59495830000000
C         1.98579880000000   -2.30683290000000   -1.83090550000000
C         1.74969350000000   -3.03349030000000   -0.59464210000000
C         0.36750900000000   -3.48258920000000   -0.59464210000000
C         2.80757400000000   -1.17575640000000   -1.83090550000000
C         2.42554760000000    0.00000000000000   -2.59495830000000
C         2.80757400000000    1.17575640000000   -1.83090550000000
C         3.42570570000000    0.72665740000000   -0.59464210000000
C         3.42570570000000   -0.72665740000000   -0.59464210000000
C         1.98579880000000    2.30683290000000   -1.83090550000000
C         0.74953540000000    2.30683290000000   -2.59495830000000
C        -0.25062270000000    3.03349030000000   -1.83090550000000
C         0.36750900000000    3.48258920000000   -0.59464210000000
C         1.74969350000000    3.03349030000000   -0.59464210000000
C        -1.58028280000000    2.60145750000000   -1.83090550000000
C        -1.96230920000000    1.42570110000000   -2.59495830000000
C        -2.96246730000000    0.69904370000000   -1.83090550000000
C        -3.19857260000000    1.42570110000000   -0.59464210000000
C        -2.34433560000000    2.60145750000000   -0.59464210000000
C        -2.96246730000000   -0.69904370000000   -1.83090550000000
C        -1.96230920000000   -1.42570110000000   -2.59495830000000
C        -1.58028280000000   -2.60145750000000   -1.83090550000000
C        -2.34433560000000   -2.60145750000000   -0.59464210000000
C        -3.19857260000000   -1.42570110000000   -0.59464210000000
C        -1.00015810000000   -0.72665740000000   -3.32997640000000
C        -1.00015810000000    0.72665740000000   -3.32997640000000
C         0.38202640000000    1.17575640000000   -3.32997640000000
C         1.23626340000000    0.00000000000000   -3.32997640000000
C         0.38202640000000   -1.17575640000000   -3.32997640000000
C        -1.76086815247998    0.00000000000000    4.78849957557021
F        -0.76911826531252    0.00000000000000    5.67468926254662
F        -2.50968386795825   -1.06794314680471    5.04863888333743
F        -2.50968386795825    1.06794314680471    5.04863888333743
C        -0.54413818249354   -1.67468516033722    4.78849957845317
F        -0.23767107904745   -0.73147481112462    5.67468925997942
F        -1.79120914301982   -2.05683909935453    5.04863874564184
F         0.24013968171955   -2.71686350152345    5.04863903502921
C         1.42457227037960   -1.03501233722714    4.78849957248258
F         0.62223011468481   -0.45207589682711    5.67468926529602
F         1.40265511061956   -2.33913928186680    5.04863905501621
F         2.65809836182651   -0.61117154425495    5.04863869666890
C         1.42457227037960    1.03501233722714    4.78849957248258
F         0.62223011468481    0.45207589682711    5.67468926529602
F         2.65809836182651    0.61117154425495    5.04863869666891
F         1.40265511061956    2.33913928186680    5.04863905501621
C         3.37204091334889   -3.72927672645244    0.86730596148276
F         4.06564647311729   -3.51265957144658    1.98125763710227
F         4.25569947457670   -3.84739838595791   -0.11965645964809
F         2.78580317558591   -4.91533944031226    1.00324916143780
C         4.58877084110522   -2.05459160147071    0.86730597290559
F         4.59709252483521   -2.78118520641283    1.98125951001435
F         4.97417519512416   -2.85850196315549   -0.11965482382298
F         5.53562669678859   -1.13053295630600    1.00324569798425
C         3.37204091334889    3.72927672645244    0.86730596148276
F         4.06564647311729    3.51265957144658    1.98125763710227
F         4.25569947457670    3.84739838595791   -0.11965645964809
F         2.78580317558591    4.91533944031226    1.00324916143780
C        -2.50473491433418    4.35941144902977    0.86730593917895
F        -2.08438487052912    4.95213043104453    1.98125838386969
F        -2.34400857369757    5.23632280881804   -0.11965581818547
F        -3.81390519137296    4.16837996597314    1.00324768478856
C        -2.84103082519036    3.32439911178427    2.62817407941587
F        -2.23127406184889    4.50005340761388    2.75037746012490
F        -4.01248672303644    3.55720929213524    2.04303264409738
F        -3.10404037880939    2.89718378306489    3.85992609894428
C         0.34440953624153    4.35941144868709    2.62817404748705
F        -0.83992598883967    4.95213069234126    2.75037577510431
F         1.15529636597892    5.23632261667420    2.04303359185445
F         0.80829780400759    4.16837989546168    3.85992670963205
C        -4.92005227074660   -1.03501232949151    0.86730592957069
F        -5.35386609588658   -0.45207588830481    1.98125865327758
F        -5.70437742108406   -0.61117153086585   -0.11965558739362
F        -5.14292645153878   -2.33913927311179    1.00324714649869
C        -3.49548004549360    0.00000000000000    3.71645041414084
F        -4.73163621497510    0.00000000000000    3.22571838476757
F        -3.39327517264965   -1.06794314680471    4.50254938956302
F        -3.39327517264965    1.06794314680471    4.50254938956303
C        -4.03961820246674    1.67468514775899    2.62817407948106
F        -4.96930660042402    0.73147479244130    2.75037763231443
F        -4.62303373288713    2.71686348978892    2.04303253910982
F        -3.71458666614023    2.05683907990834    3.85992603200073
C        -2.50473491433418   -4.35941144902977    0.86730593917895
F        -2.08438487052912   -4.95213043104453    1.98125838386969
F        -2.34400857369757   -5.23632280881804   -0.11965581818547
F        -3.81390519137296   -4.16837996597314    1.00324768478856
C        -0.34440953624153   -4.35941144868709   -2.62817404748705
F         0.83992598883967   -4.95213069234126   -2.75037577510431
F        -0.80829780400759   -4.16837989546168   -3.85992670963205
F        -1.15529636597892   -5.23632261667420   -2.04303359185445
C         2.84103082519036   -3.32439911178427   -2.62817407941587
F         2.23127406184888   -4.50005340761388   -2.75037746012495
F         3.10404037880944   -2.89718378306489   -3.85992609894426
F         4.01248672303643   -3.55720929213529   -2.04303264409737
C         2.50473491433418   -4.35941144902977   -0.86730593917895
F         2.08438487052912   -4.95213043104453   -1.98125838386969
F         3.81390519137296   -4.16837996597314   -1.00324768478856
F         2.34400857369757   -5.23632280881804    0.11965581818547
C         4.03961820246674   -1.67468514775899   -2.62817407948106
F         4.96930660042402   -0.73147479244130   -2.75037763231443
F         3.71458666614023   -2.05683907990834   -3.85992603200073
F         4.62303373288713   -2.71686348978893   -2.04303253910982
C         4.03961820246674    1.67468514775899   -2.62817407948106
F         4.96930660042402    0.73147479244129   -2.75037763231441
F         3.71458666614022    2.05683907990832   -3.85992603200073
F         4.62303373288711    2.71686348978894   -2.04303253910982
C         4.92005227074660   -1.03501232949151   -0.86730592957069
F         5.35386609588658   -0.45207588830481   -1.98125865327758
F         5.14292645153878   -2.33913927311179   -1.00324714649869
F         5.70437742108406   -0.61117153086585    0.11965558739362
C        -2.82790274436383    2.05459160758554   -3.71645040671519
F        -3.82797483682855    2.78118494419178   -3.22571836876305
F        -2.11749631416700    2.85850222732984   -4.50254863174647
F        -3.37293748548841    1.13053297859378   -4.50255013394648
C        -2.82790274436383   -2.05459160758554   -3.71645040671519
F        -3.82797483682855   -2.78118494419178   -3.22571836876305
F        -3.37293748548841   -1.13053297859378   -4.50255013394648
F        -2.11749631416700   -2.85850222732984   -4.50254863174647
C        -2.28376457660886   -3.72927671755932   -2.62817408867206
F        -3.59030321655004   -3.51265997057978   -2.75037870097715
F        -1.79618325340526   -3.84739782561576   -3.85992562899768
F        -2.14318168460923   -4.91533956626621   -2.04303190988614
C         1.76086815247998    0.00000000000000   -4.78849957557021
F         0.76911826531252    0.00000000000000   -5.67468926254662
F         2.50968386795825    1.06794314680471   -5.04863888333743
F         2.50968386795825   -1.06794314680471   -5.04863888333743
156
 energy: -493.450825846670 gnorm: 7.927661867701 xtb: 6.4.1 (a3dbbd7)
C        -1.22935498725460    0.00001779845050    3.31877347427154
C        -0.38242364974453   -1.17750324968542    3.32053215785911
C         1.00214761094472   -0.72812426473246    3.32135816270815
C         1.00043360347594    0.72832668756394    3.32509103193446
C        -0.38206272644343    1.17428558108710    3.33284343094107
C         2.33471097953376   -2.59225695163172    0.59731323451018
C         3.18790006474494   -1.41902446739363    0.59724155818406
C         2.96148852055276   -0.69843874391622    1.83154235031899
C         1.96471022167976   -1.42709890758427    2.59294579202615
C         1.57908015263955   -2.60203614279542    1.83158739039976
C         3.19816145334131    1.42280201428943    0.59743915614620
C         2.34753161730908    2.60297947898955    0.59579324545999
C         1.58209470707531    2.59946243749582    1.83309855103724
C         1.96367630487959    1.42707796962769    2.59147961390457
C         2.96246901523091    0.70085554258902    1.82984954182853
C        -0.36704054589534    3.48180352966799    0.59271982875647
C        -1.74636360006704    3.03199256929007    0.59082933114327
C        -1.97770387290345    2.30407436350347    1.82718643943334
C        -0.75158354184853    2.30872526207459    2.59499445213083
C         0.25029261520023    3.03501761669990    1.83076337917892
C        -3.42695633117268    0.72777849141785    0.59375803121541
C        -3.42646119769120   -0.72688897811137    0.59496866769332
C        -2.80693382846595   -1.17683785975714    1.83113719830918
C        -2.41894461079867   -0.00020247896252    2.58339928535422
C        -2.80182232129193    1.17054270808882    1.82118206041625
C        -1.74986540010631   -3.03595395766140    0.59615155910977
C        -0.36604345656686   -3.48283735392654    0.59858639119595
C         0.24934909078930   -3.03296139925652    1.82952211669343
C        -0.75068699251843   -2.30942060036106    2.59147925667618
C        -1.98389884634943   -2.30620621917010    1.83266316183155
C        -0.24430607014552   -3.02866899982909   -1.82665586463976
C         0.74903962697555   -2.30778659044107   -2.59575202031200
C         1.97528890094080   -2.29954836386236   -1.82767843859802
C         1.74042028924396   -3.02531470094867   -0.59301110642577
C         0.36782705738970   -3.48336474863687   -0.59530927335272
C         2.79879959136047   -1.16796028956672   -1.82777257508184
C         2.42669017550776   -0.00024026232976   -2.59357317690956
C         2.81006798662333    1.17613380297387   -1.83090992080831
C         3.42607642062014    0.72659252126368   -0.59291851088470
C         3.41524015022694   -0.71976200060621   -0.59276475657200
C         1.98045096854948    2.30984720766665   -1.83113543516692
C         0.74998167666404    2.30731859432918   -2.59395805888451
C        -0.25061116837759    3.03334345086592   -1.83089677728245
C         0.36892725689451    3.48214527818728   -0.59574975938899
C         1.74575997090048    3.03314401694698   -0.59909392346100
C        -1.57834450461425    2.60252950710821   -1.82774454091239
C        -1.96589730350918    1.42806463412921   -2.59773404412500
C        -2.96340680929307    0.69883364929277   -1.82733159762844
C        -3.19685264249077    1.42502676098007   -0.59736429133562
C        -2.34499764671859    2.59921870070114   -0.59874864003092
C        -2.96315563344328   -0.69832407756506   -1.82831055942091
C        -1.96137863216812   -1.42138659778291   -2.59454834109799
C        -1.57991235098409   -2.59599523101742   -1.82471674361180
C        -2.34564006995539   -2.60008059423085   -0.59689315121511
C        -3.19734386479495   -1.42614506636960   -0.59875779208253
C        -0.99663817578690   -0.72433500691875   -3.33080651248498
C        -0.99469332069449    0.72471865181038   -3.33020100950871
C         0.37834491197597    1.17667644663500   -3.33039337181387
C         1.23534858588801    0.00020298703194   -3.33023278027808
C         0.37879189426557   -1.17541006211158   -3.33159699304978
C        -1.77652367608767   -0.00020498792118    4.74146891041687
F        -0.79710519415400    0.04233515200988    5.71309569300196
F        -2.53686235181655   -1.03263585037023    5.08069489106202
F        -2.46956405344949    1.08771400943636    5.09397485628596
C        -0.54910704491243   -1.69797199260501    4.75697489288602
F        -0.26238299184635   -0.77937089104198    5.71678592062934
F        -1.75168730455915   -2.13188191153860    5.05221939479098
F         0.16893816880179   -2.74875736327282    5.05155896212539
C         1.44487221345166   -1.05055661355660    4.75720145342165
F         0.67018111378356   -0.47222944125609    5.71359916935495
F         1.47910316655481   -2.32295544708003    5.05155477929520
F         2.66422787396751   -0.68881001011489    5.05098593759841
C         1.44607219774562    1.04748175708232    4.76162503341623
F         0.62746198552605    0.51129295112076    5.70421207989324
F         2.66584568183532    0.69096562213822    5.05098494719278
F         1.40120065427888    2.34265694851008    5.05192274640038
C         3.34801284513829   -3.70480629483300    0.85438927374355
F         4.04626798749018   -3.56202008407985    2.01287447540908
F         4.26621450512963   -3.90612811961358   -0.07835191203651
F         2.79069159047628   -4.93018566804514    1.04748548237109
C         4.55910867803402   -2.03936841706148    0.85391385233519
F         4.63830111842221   -2.74806040375232    2.01429251783256
F         5.03267445728288   -2.84954114883855   -0.07523590608263
F         5.55004171575947   -1.13159178591192    1.04593339472666
C         3.37117800499376    3.72910366392505    0.86686553572462
F         4.06717898423673    3.51318135467911    1.98258830245925
F         4.25715221922911    3.84845280948371   -0.11973491895806
F         2.78878517196586    4.91639717017678    1.00159304853369
C        -2.50574185146934    4.35245063384153    0.85579315425747
F        -2.08675896464338    4.98922416276790    1.93815328422305
F        -2.34356926286966    5.23958468399522   -0.12147499210651
F        -3.80961141036957    4.21240394558787    0.92900720295109
C        -2.84144056447396    3.29665701146793    2.59993849154726
F        -2.24818499505832    4.49437861027325    2.80454048201883
F        -4.02223615857250    3.55886503581098    2.10173592751436
F        -3.06780970883383    2.94517562287925    3.89834477966203
C         0.35004218505695    4.35739518608202    2.62662746238244
F        -0.80958654801158    4.96288603247978    2.76250771780535
F         1.15307726697969    5.23854037418865    2.04489940552738
F         0.80853885613562    4.16950400056863    3.86214728790776
C        -4.91834530444657   -1.03775005217518    0.86262321053595
F        -5.37234171032444   -0.47259477954908    1.95889667400101
F        -5.70638225977598   -0.61107124014863   -0.12075655426666
F        -5.14471982031605   -2.34051270398920    1.00351475711777
C        -3.46926843299223   -0.00372562490889    3.69592346314894
F        -4.74124641595735   -0.03522184141744    3.26254231755907
F        -3.43543729475047   -1.08670702665861    4.49567436785937
F        -3.42663767343018    1.03546800551323    4.54170185421312
C        -4.00858835087157    1.66714735082664    2.61263358612776
F        -5.00510572603198    0.77272944473675    2.73325892339702
F        -4.66365643614991    2.70329014434107    2.02908733831155
F        -3.77040392977815    2.08962441318047    3.85601962089245
C        -2.50460942168286   -4.35755625619702    0.86911523594778
F        -2.08441554423809   -4.95408165770740    1.98276822163616
F        -2.34451038226791   -5.24007103257042   -0.11819841507586
F        -3.81525199928165   -4.17001900206181    1.00349926633038
C        -0.34395433174746   -4.34104310088810   -2.61480905363645
F         0.81132570832575   -4.96662260135272   -2.76464133070213
F        -0.77129660828696   -4.17981302272584   -3.88986980632212
F        -1.12833857678663   -5.27029759674674   -2.02883805732818
C         2.82575846303796   -3.29662846818431   -2.61083119658606
F         2.24567802668392   -4.49598880125558   -2.80566995039519
F         3.08394829761497   -2.92047789825069   -3.89037265143952
F         4.02035887897519   -3.58940725254983   -2.10676380579510
C         2.49674068774935   -4.32473855717271   -0.85716582776403
F         2.08133326392533   -5.00092623970088   -1.95031409766351
F         3.80284264310959   -4.24028560315698   -0.99737833260070
F         2.31862064539702   -5.27436577822826    0.10562032654798
C         4.01175801579379   -1.66948705775257   -2.61035785592295
F         4.96842934684138   -0.74724755442347   -2.80295445993833
F         3.73262120185176   -2.03239774341745   -3.88966220737533
F         4.65404691276763   -2.71047338624994   -2.10810613173633
C         4.03488131948246    1.67970787702568   -2.62780531768460
F         4.96919889210111    0.76451291836359   -2.76453698180422
F         3.71713516095984    2.05935249029893   -3.85948247108554
F         4.62458687613702    2.71781905100570   -2.04356679228496
C         4.88688061975059   -1.03691788412646   -0.85927421615901
F         5.39731181302187   -0.43477556842129   -1.94892690980910
F         5.20791305081954   -2.30221293741828   -0.99932455422226
F         5.73160122589069   -0.57633872555148    0.10527081404140
C        -2.82707018650437    2.05444706999893   -3.71578613884030
F        -3.82963659762794    2.78214968994015   -3.22598366902740
F        -2.11764622480325    2.85930079007313   -4.50369345495132
F        -3.37402058690594    1.13063386415404   -4.50376114363646
C        -2.81455221470873   -2.04553384953603   -3.71724353741446
F        -3.86167613439445   -2.74217754848811   -3.25174591663984
F        -3.37600470218272   -1.12982676298572   -4.50466143335970
F        -2.13614235804734   -2.79305628897996   -4.55565244085000
C        -2.24479763421485   -3.70638172420843   -2.62541736365759
F        -3.61452973636860   -3.56346368164829   -2.72077329865830
F        -1.81182278946207   -3.90192212390915   -3.83847214643041
F        -2.18702891387836   -4.93323853583062   -2.02793313342484
C         1.75853538623044    0.00203294007084   -4.78804060467940
F         0.76868204871055   -0.00006722388496   -5.67661324458646
F         2.50864956163052    1.06663919573912   -5.05195016544045
F         2.50989424756717   -1.06895348026884   -5.05244138052994
156
 energy: -500.619598792591 gnorm: 7.078470583968 xtb: 6.4.1 (a3dbbd7)
C        -1.22398272724538    0.00178768128104    3.31398166048865
C        -0.38269380996923   -1.17998878865074    3.31437457110505
C         1.00418903696622   -0.72977624637266    3.31669011258485
C         1.00003652696195    0.73037339305146    3.32457537343662
C        -0.38237532080895    1.17233987550976    3.33569983768621
C         2.32952812907591   -2.58818473144835    0.60071286269822
C         3.18164347942710   -1.41459301677904    0.60070452749196
C         2.96202017404258   -0.69836775509040    1.83297298827038
C         1.96666834640769   -1.42875234780048    2.59159960530479
C         1.57833277197271   -2.60211101310538    1.83340641441182
C         3.19725613343055    1.41945561374197    0.60001691139324
C         2.35171085692582    2.60626544297923    0.59801086484041
C         1.58409166582981    2.59405594462222    1.83457128786610
C         1.96539986523699    1.42961005397872    2.58584499589865
C         2.96178258801338    0.70346550188799    1.82769614657421
C        -0.36593959137081    3.48240150548389    0.59004737916975
C        -1.74335203653463    3.03270185485695    0.58735150849030
C        -1.97077954072665    2.30388306264940    1.82655894955018
C        -0.75362407904487    2.31117665652387    2.59448512503197
C         0.24987748400508    3.03804034738764    1.83260912661133
C        -3.42716726318789    0.72929990934188    0.59274833828290
C        -3.43068620694480   -0.72716841948298    0.59626837089320
C        -2.80563573335078   -1.17744109037721    1.83183835169279
C        -2.41736524485429   -0.00539546938805    2.57449146865287
C        -2.80182589874874    1.16648427611198    1.81653120077069
C        -1.75108418208570   -3.03991858564776    0.59852537930579
C        -0.36368098004677   -3.48148187962927    0.60238085718844
C         0.24727664477749   -3.03284104978665    1.82646435303155
C        -0.75238610862527   -2.31188243948891    2.58780928213424
C        -1.98152347584036   -2.30529634705025    1.83468039013927
C        -0.23778819394436   -3.02864553052129   -1.82476331641365
C         0.74948870997939   -2.30734584605227   -2.59670323473088
C         1.96878529576981   -2.29909155174191   -1.82756550349762
C         1.73347676505790   -3.02173359865307   -0.59293848485144
C         0.36829240349004   -3.48365847476630   -0.59417252457547
C         2.79521611193793   -1.16112928284771   -1.82742102625915
C         2.42793418911715   -0.00135477065021   -2.59184828438719
C         2.81401856191367    1.17696263008718   -1.83309520512708
C         3.42593323052206    0.72672474054200   -0.59085272776208
C         3.40993647448866   -0.71369101947645   -0.59246350439384
C         1.97464739686911    2.31313956161678   -1.82887590121001
C         0.75063317802630    2.30747890908033   -2.59292989701375
C        -0.25073114875137    3.03345645703396   -1.83103960959870
C         0.37010413209010    3.47976211931555   -0.59672508293179
C         1.74178821846737    3.03228529616063   -0.60420452815661
C        -1.57604080314894    2.60305076249099   -1.82393318408144
C        -1.97009771401262    1.43092300571556   -2.60123819840651
C        -2.96430314926746    0.69917682765302   -1.82345000011545
C        -3.19425254841030    1.42437930850374   -0.60007903390077
C        -2.34572784427465    2.59732265186124   -0.60377682717517
C        -2.96443705992130   -0.69765556827050   -1.82424964510872
C        -1.96331697082775   -1.41854322210999   -2.59654042398969
C        -1.58229003268626   -2.59498882989583   -1.82200984337689
C        -2.34779188335514   -2.59771552450710   -0.59889673257610
C        -3.19412375224185   -1.42641745608463   -0.60402090244737
C        -0.99141033769011   -0.72130002446714   -3.33098814862653
C        -0.98881019015449    0.72259011509659   -3.33079892203866
C         0.37434555228348    1.17794773648847   -3.32773200801985
C         1.23513686549437    0.00001578695418   -3.33615091913825
C         0.37452994439232   -1.17478565852190   -3.33051064425979
C        -1.79768469743138   -0.01296362204901    4.69695039142783
F        -0.82359287262976    0.10430989824864    5.75264851619278
F        -2.53140957010455   -0.99094530966214    5.12018798359070
F        -2.39280561639957    1.10910814014956    5.14786473766876
C        -0.55204681517253   -1.71841921877540    4.72610727595634
F        -0.33386276251008   -0.85105407625326    5.75124341589077
F        -1.72391391566263   -2.17818973055441    5.05368233657339
F         0.12449020157940   -2.76852947132128    5.05321550838385
C         1.46017190379510   -1.06496539008505    4.72976029081590
F         0.77541440814412   -0.49479435255550    5.74451369591528
F         1.52620312366737   -2.31232625113554    5.05331108910275
F         2.66683739998183   -0.73536793165307    5.05311002257744
C         1.46363847083285    1.05634815882504    4.73867976663164
F         0.62204384151599    0.58484755657922    5.72786842533640
F         2.66943211167532    0.73887299923179    5.05332133711388
F         1.39978794872030    2.34376427438262    5.05445408203305
C         3.32822634036543   -3.68314947653818    0.82152457272118
F         4.03759546775854   -3.60233171958540    2.04509614194291
F         4.27539996594979   -3.94580794912854   -0.00762801436100
F         2.81528929474572   -4.92791401525767    1.11900468564791
C         4.53271223458684   -2.02760522274767    0.82030755866388
F         4.67418639777567   -2.72788498094059    2.04800353013121
F         5.07273926531848   -2.84758318435350   -0.00080092451042
F         5.55577182809979   -1.15291641373684    1.11155141351342
C         3.37065512757112    3.72888686926934    0.86665362706574
F         4.06849824294361    3.51349936951872    1.98379392969444
F         4.25826487646140    3.84926954529882   -0.11950809282774
F         2.79208524973547    4.91704127691009    0.99979056493639
C        -2.50808622282737    4.34494309439652    0.84654342769144
F        -2.09267306842287    5.01575877278673    1.90827052718453
F        -2.34321108903911    5.24175581294990   -0.12214114473956
F        -3.80707564733463    4.23877971012418    0.88229506612862
C        -2.84317371534977    3.27097943550013    2.56704176579475
F        -2.26227250416788    4.49637401339886    2.84758229272388
F        -4.01097172271712    3.58151138652973    2.15009321608811
F        -3.01388649695716    3.00857071679763    3.93341747027033
C         0.35520471652801    4.35578846178098    2.62543580126542
F        -0.77936910922011    4.97227515229473    2.77354474999051
F         1.15069841862698    5.24069004165235    2.04685744020265
F         0.80876949104808    4.17047835198719    3.86401127714022
C        -4.91658098181674   -1.04006895536669    0.85855442469396
F        -5.38827949733006   -0.49297047215844    1.93595741796185
F        -5.70813328726166   -0.61070373851096   -0.12190734380236
F        -5.14642186476337   -2.34156041438747    1.00369293730324
C        -3.43316091719520    0.01359951191819    3.68059050961618
F        -4.75200935383945   -0.06723658498418    3.29696037066430
F        -3.48928707879517   -1.11891364072395    4.47898268882721
F        -3.49401883040820    0.98525609724965    4.55112371808545
C        -3.96179888642631    1.65942922804246    2.61752633031809
F        -5.03827105729797    0.80704999939953    2.72342168340136
F        -4.72274159484946    2.68256383191598    2.00722725728182
F        -3.84695552216796    2.08959705894453    3.82592663163016
C        -2.50440524160062   -4.35618859549657    0.87061959961892
F        -2.08458727204662   -4.95562812746780    1.98401041878255
F        -2.34512762929138   -5.24301210687485   -0.11573000227038
F        -3.81639892004132   -4.17135240718399    1.00359908393791
C        -0.34619135222153   -4.32362169677893   -2.59647295889128
F         0.78091997824643   -4.97953739138531   -2.77919841475423
F        -0.71681558887359   -4.19010226780020   -3.92676986085811
F        -1.07323615802335   -5.30899917183541   -2.01524177372351
C         2.82591776448537   -3.26334022866502   -2.57838520507307
F         2.26180331401040   -4.49834019617726   -2.85191129633877
F         3.04996402873918   -2.96747087430072   -3.92117594883365
F         3.99164727333910   -3.64087088187177   -2.16841637637894
C         2.50242327075564   -4.28309646607506   -0.84407030247736
F         2.08267773292289   -5.04523758800210   -1.92770848220652
F         3.76460319987280   -4.31175107442389   -1.01459932028598
F         2.28058490178767   -5.32236429155190    0.05819232250691
C         3.98289646983229   -1.68007567288232   -2.57778338665201
F         4.97467657160922   -0.76150016268014   -2.84849830239586
F         3.77016291752123   -1.98825062701174   -3.91856968878607
F         4.69037292879648   -2.66547820567106   -2.17106050363267