156
 energy: -520.263267963517 gnorm: 0.000358525624 xtb: 6.4.1 (a3dbbd7)
C        -1.34403093034189   -0.03328181467801    3.70754084860614
C        -0.38165628591018   -1.33732428046271    3.62249193150702
C         1.13615425253079   -0.80864393887625    3.57081642580164
C         1.04686895825036    0.77272899320151    3.51959606225329
C        -0.42689970927018    1.07696717054060    3.20576619129937
C         2.56843507567869   -2.81202387592414    0.54635781448452
C         3.50513058060648   -1.52088212795071    0.57898460095222
C         2.87763394084900   -0.67079547234099    1.64250484538070
C         1.88571907923937   -1.36059485409010    2.36013477842504
C         1.60802983491150   -2.51489000212311    1.68085633422985
C         3.19039270494635    1.39217027713632    0.47407668279373
C         2.51680910431880    2.74885276657644    0.61249152465528
C         1.55901033696562    2.50303783769163    1.77782099103696
C         1.86002444359183    1.35456127407351    2.39694986948274
C         2.89848708275790    0.67184166180940    1.67694687146240
C        -0.41104603063505    3.43744495560933    0.65583115180390
C        -1.92620784719247    3.28345134636264    0.69508860635681
C        -2.21615291452102    2.53991470721829    2.08815556480745
C        -0.79065770010792    2.19561093477954    2.56769832476569
C         0.23864692097277    3.19358300151737    1.99073969574162
C        -3.36134654128765    0.65590142663728    0.64293404634372
C        -3.65540531055205   -0.81735060703376    0.64337455191728
C        -2.84201766190381   -1.16556645946728    1.86723895920797
C        -2.77039447161259   -0.04090075226669    2.92125284608646
C        -3.19209401745676    1.26344874385200    2.02888482347369
C        -1.84478047772659   -3.16000721747061    0.60091703509266
C        -0.36036824768912   -3.30987558779310    0.43667994894386
C         0.24174294339968   -2.84739725540867    1.65960425684679
C        -0.67588385931296   -2.14747410232294    2.40227528589963
C        -1.93267717244371   -2.14513905099591    1.74559214687870
C        -0.29107653738380   -3.32113148924256   -2.10664684611347
C         0.80356459661620   -2.35130188128158   -2.61738554046716
C         2.23984850322247   -2.67646842001175   -2.10730352771605
C         1.85158268389361   -3.41298005989366   -0.71001767941825
C         0.30895507370588   -3.38334389868640   -0.71463673721614
C         3.19951298198392   -1.25555913360117   -2.12403845371463
C         2.46445403993059    0.00533916577533   -2.59047348540429
C         2.98487897898244    1.28711369753743   -1.98956537818041
C         3.46329936241061    0.74156696756903   -0.66980074968789
C         3.87387240681990   -0.74335503647525   -0.74233004909949
C         1.85248548572098    2.24552635431381   -1.72498972216176
C         0.65295186175464    2.26549690259561   -2.50561365273391
C        -0.32470190162267    2.99698854407491   -1.76008170806293
C         0.28582221543696    3.36768474596323   -0.50094363358520
C         1.67181001121974    2.94561998909398   -0.58345978769177
C        -1.63679668438461    2.55511891106089   -1.72578986797352
C        -2.14795778748321    1.52030161741460   -2.72449611590029
C        -2.96759013299413    0.66141094852182   -1.79937863005028
C        -3.10055263664116    1.31920716356833   -0.50162519942959
C        -2.33074323449393    2.50871991135230   -0.52772849916371
C        -2.92319465842404   -0.67844841274828   -1.83070267678874
C        -2.17767615094631   -1.52272953366497   -2.85935243316880
C        -1.84649945019368   -2.85974669311887   -2.07420550660244
C        -2.30447977115982   -2.52500698354210   -0.65280861764822
C        -3.01587740183703   -1.39690533417089   -0.59743439596499
C        -0.96051242951016   -0.71389466675349   -3.14730678799796
C        -0.99999973803051    0.66176498013903   -3.20688510240720
C         0.32675192605999    1.15671890623303   -3.23487503923640
C         1.28111502742223   -0.00192930645059   -3.46873653301204
C         0.39422411291405   -1.18193190040254   -3.12620934415426
C        -1.46054457214330    0.23365017703836    5.27232222508336
F        -0.23522650766233    0.11206736978728    5.79119440931010
F        -2.20802517160323   -0.62591029698208    5.93776770521375
F        -1.85177139977871    1.45162594460073    5.58070296301759
C        -0.60666265076126   -2.50255442802065    4.69323206016712
F        -0.43482826015104   -2.25520995975760    5.97379678507633
F        -1.83460589264867   -2.98757954034357    4.55247121420072
F         0.22749543930479   -3.49765394805702    4.38526593889478
C         2.14623249913408   -1.34815068987345    4.67890721515856
F         1.76619367682725   -1.32604996276210    5.93622533759939
F         2.48670541321278   -2.61020213719265    4.42305412753959
F         3.26164886413567   -0.62231896720960    4.56478636378489
C         1.51476126764212    1.65294760237221    4.79164134786070
F         2.02381470259317    1.01489407912243    5.81960115152946
F         2.44659979302372    2.53034355111578    4.41557049232915
F         0.48801040244490    2.36873777157209    5.23978687919395
C         3.84509998152905   -3.64075487475061    0.95077778136314
F         5.51526109506328   -4.20076062906889    4.44079588214799
F         4.50247769701213   -3.99981698741156   -0.17896391861318
F         3.75806667151200   -4.68246866768283    1.76147490751097
C         4.56851829065789   -2.38571179925594    1.44078019203191
F         5.10082957369699   -3.40077714649340    5.51356232659988
F         5.88383470128980   -2.40083110276360    1.28974393074471
F         4.40530070688690   -2.15405663173760    2.75408555956039
C         3.64038072400523    3.82175280542932    0.80218983353279
F         4.08102062516478    3.85106036763744    2.05061412212255
F         4.68362660509386    3.49285547439008    0.03442384458410
F         3.25355221654499    5.03270933006585    0.43541830848606
C        -2.53835582958331    4.72579610405885    0.39375869395507
F        -2.44244160281679    5.59897233560625    1.37547396038871
F        -1.85111676404141    5.22907848325651   -0.63739761003894
F        -3.80200870089803    4.66972978048645    0.00965220363579
C        -2.77223025532995    3.53258093302257    3.19191476138552
F        -1.83285736546913    4.37305161608362    3.59376964221680
F        -3.80696673193624    4.28062855476107    2.84747144642345
F        -3.13274887836014    2.84069905796721    4.26206892884172
C         0.57096065702514    4.56024873535726    2.73691945243077
F        -0.16771131571385    5.56222502802288    2.28700192528491
F         1.82900473206132    4.89610092148404    2.45959061634756
F         0.48817805210688    4.50027421513815    4.04926507319319
C        -5.15139814908990   -1.33620361486924    0.44311857925495
F        -5.91934899308564   -1.43390718658166    1.50358098538531
F        -5.74162165766321   -0.55486472547080   -0.45541422576795
F        -5.10888884771309   -2.56912249636741   -0.06654281306520
C        -3.91996934519409   -0.36902302322743    3.95700551239637
F        -5.11887388936013   -0.37935002355992    3.40340274974366
F        -3.76440134731281   -1.59127032249856    4.44761634159093
F        -4.00651995780250    0.50129914763726    4.95205876864042
C        -4.69950872187523    1.81845427180581    2.13820463349757
F        -5.58821606423243    0.98058459180541    1.61302873616806
F        -4.75535509440809    2.86567249473338    1.31054651658597
F        -5.16772684139960    2.17761837259672    3.31162129733672
C        -2.42190283676159   -4.52187567617254    1.12677372943540
F        -2.08318491122125   -4.65997401548822    2.41051358902331
F        -1.89069792350087   -5.55679119194504    0.49131906934657
F        -3.73849591768652   -4.57835184644622    1.05743663687959
C        -0.35415514953336   -4.54290638519362   -3.10233828669026
F         0.76513476879916   -5.09119894609828   -3.50829747081061
F        -0.88573631191977   -4.03949553022815   -4.22535965389724
F        -1.08958227403789   -5.53568102480565   -2.63028543553435
C         2.97419462242307   -3.76164705962104   -3.01633175591520
F         2.79213068721313   -5.01197659519336   -2.62248952344695
F         2.56471184297716   -3.70156460537242   -4.27502479335101
F         4.29225379307685   -3.65418214960845   -2.96770805473312
C         1.91567508585211   -5.02969356080934   -0.40999462694354
F         1.02057606703341   -5.68657620760016   -1.13912347396592
F         3.03123040056387   -5.71651974221601   -0.46293689821553
F         1.48147417785298   -5.14923943652081    0.85471972472816
C         4.31461463503807   -1.27143658418739   -3.32336773607871
F         4.59392831455183   -0.00949441928550   -3.66410337405623
F         3.79172976337335   -1.78103350905095   -4.42683537928179
F         5.49927825273329   -1.80721822180100   -3.12833060620056
C         3.94020859462735    2.29130437407110   -2.83492164191985
F         5.23328910949001    2.08798358601197   -2.79611732971663
F         3.52309140732489    2.30573118201488   -4.09286660027057
F         3.76690259777535    3.53562911798559   -2.37466859263290
C         5.44852005454172   -0.65835466630385   -0.72346998373285
F         5.94717595978403    0.16070573162689   -1.63009420218702
F         6.05125235552350   -1.82213458918598   -0.88086478885150
F         5.79587232569476   -0.13691337023631    0.45910985691405
C        -2.94005078757757    2.25441075752180   -3.84637008264565
F        -3.55823448545056    3.32258898670401   -3.34218413857441
F        -2.11981116332336    2.67680077561469   -4.80201501510206
F        -3.87122173246210    1.48906270847253   -4.39396425275907
C        -3.01569565163613   -1.56267999258063   -4.20619122849596
F        -4.30215481760011   -1.33189563895803   -3.98340533802230
F        -2.59012138786406   -0.58505104101982   -5.01536471217967
F        -2.90146185488396   -2.67207084983800   -4.90634482576596
C        -3.01144060694329   -3.91606778046701   -2.41540073971705
F        -4.15140640372458   -3.21573229370257   -2.39718662796842
F        -3.03659920981026   -4.59055395501446   -3.54479162729332
F        -3.11581502845519   -4.81104805233979   -1.44167785023516
C         1.50847733539575   -0.10644073268234   -5.05578429329169
F         0.53393278299029    0.53298079073591   -5.69143356233098
F         2.65528387388848    0.40104783511692   -5.45199956053586
F         1.45631710861993   -1.37529845202543   -5.44421819088247
