61
 energy: -132.997235803762 gnorm: 0.033806715602 xtb: 6.4.1 (a3dbbd7)
C        -1.30066579268467   -0.00000004242196    3.54743101754290
C        -0.37086300111797   -1.16242086542992    3.31218037786756
C         0.98183755333689   -0.72090351964599    3.28143264517770
C         0.98183759851315    0.72090350384760    3.28143248447348
C        -0.37086307912742    1.16242106885264    3.31218038953117
C         2.33243142841641   -2.56954708805540    0.57559003751900
C         3.18184631459535   -1.41017809672958    0.57019929672181
C         2.93209203010515   -0.69188739224990    1.79461256050274
C         1.94324193574072   -1.40562604714051    2.54633499877393
C         1.57450665506609   -2.56566191256316    1.79677845452774
C         3.18184627723625    1.41017819088750    0.57019922375374
C         2.33243149529660    2.56954710892556    0.57558996062213
C         1.57450672847549    2.56566195858004    1.79677837775489
C         1.94324191103826    1.40562592974477    2.54633494021378
C         2.93209203705313    0.69188732329633    1.79461266796235
C        -0.35657813656499    3.43057651324603    0.59174221621812
C        -1.73202885182278    2.98739216087356    0.59137967590188
C        -1.96111706641733    2.28218445473510    1.80500037904026
C        -0.73048088244977    2.26631848210965    2.57973910500951
C         0.25313986520328    2.97717898616620    1.80947395729224
C        -3.39069851431562    0.71376272152176    0.57118603774862
C        -3.39069847940176   -0.71376274488820    0.57118607142671
C        -2.76921405369021   -1.14881245875821    1.81282754360641
C        -2.41217564708985   -0.00000002983035    2.55346336715918
C        -2.76921405178182    1.14881242320980    1.81282752397010
C        -1.73202875331968   -2.98739221518499    0.59137969602675
C        -0.35657819966299   -3.43057647096196    0.59174222382500
C         0.25313993496482   -2.97717895286243    1.80947374001835
C        -0.73048094996837   -2.26631846589757    2.57973912037222
C        -1.96111729080931   -2.28218432554731    1.80500030970974
C        -0.24243897562227   -2.99990688970142   -1.81778651844500
C         0.74470792774434   -2.28199610347183   -2.57321145010960
C         1.97112808769830   -2.28368835608578   -1.82191396026897
C         1.73908034487746   -2.99898936561589   -0.59841832534915
C         0.36574114141568   -3.43225594284738   -0.58728543222841
C         2.78734439036884   -1.16380525087668   -1.82659132282317
C         2.40815937066633    0.00000008965553   -2.58153364307685
C         2.78734444309554    1.16380511905725   -1.82659113228638
C         3.40404964642223    0.72048802092160   -0.60642258134776
C         3.40404955842280   -0.72048799871811   -0.60642260113060
C         1.97112812868693    2.28368832595772   -1.82191414768272
C         0.74470791106296    2.28199609472437   -2.57321122660556
C        -0.24243890836880    2.99990693133621   -1.81778661558094
C         0.36574105349137    3.43225593887088   -0.58728554032699
C         1.73908029099662    2.99898935458315   -0.59841826527304
C        -1.56128801540118    2.57410513581040   -1.81378324090529
C        -1.94238032378015    1.41174127082784   -2.57675020887295
C        -2.93776844722268    0.69393573873827   -1.82593343122802
C        -3.16855280992981    1.40999679217252   -0.59944777885176
C        -2.31992729068548    2.57479468881117   -0.59891083886630
C        -2.93776871147064   -0.69393561519101   -1.82593345121969
C        -1.94238035743851   -1.41174117825094   -2.57675010472584
C        -1.56128805373247   -2.57410530115950   -1.81378317682629
C        -2.31992713681441   -2.57479470118213   -0.59891099074577
C        -3.16855278197128   -1.40999680386726   -0.59944781754795
C        -0.98786971180721   -0.71982314412325   -3.29817733747674
C        -0.98786970128172    0.71982311333767   -3.29817732332822
C         0.38084793868771    1.16240333653519   -3.30289823509622
C         1.22526560769663    0.00000004717243   -3.30207915029803
C         0.38084785825038   -1.16240329138484   -3.30289816977989
Cl       -2.01102795430454    0.00000000832413    5.23398057454437
61
 energy: -132.999189452534 gnorm: 0.014475641864 xtb: 6.4.1 (a3dbbd7)
C        -1.29648568170178   -0.00000003320837    3.53842296576194
C        -0.37086543281869   -1.17237289114478    3.31328840889709
C         0.98106797109505   -0.72222881607218    3.28286920318887
C         0.98106799335241    0.72222881406174    3.28286917731880
C        -0.37086547067090    1.17237295565876    3.31328844098880
C         2.33589154511834   -2.57978501713383    0.58101309035556
C         3.18341526232412   -1.41461400333634    0.57904893917920
C         2.94152610781716   -0.69379450732185    1.80498378481076
C         1.94826786942257   -1.41236399937781    2.55602894299420
C         1.57788451696533   -2.57666777164805    1.80502568300710
C         3.18341523894586    1.41461403703525    0.57904894161550
C         2.33589157219090    2.57978501793725    0.58101307934746
C         1.57788454688829    2.57666781318936    1.80502565851509
C         1.94826785148252    1.41236396927572    2.55602894832307
C         2.94152612102098    0.69379449593494    1.80498386966116
C        -0.35891997371633    3.44278326162042    0.58777573603167
C        -1.73446013408683    2.99780504962342    0.59042828530213
C        -1.96864694303919    2.29090735740501    1.80834765117607
C        -0.73258506438171    2.27598258988327    2.57398286342031
C         0.25361781539764    2.99288367990888    1.80939861489407
C        -3.39603889702437    0.71614361889383    0.57338588562628
C        -3.39603893086267   -0.71614362656923    0.57338591858111
C        -2.77187505515576   -1.15046243560762    1.81062040320988
C        -2.41641780652783    0.00000000991864    2.55550072997160
C        -2.77187505996944    1.15046243346054    1.81062038519579
C        -1.73446012656561   -2.99780509801964    0.59042830826737
C        -0.35892004001216   -3.44278321657467    0.58777572696795
C         0.25361783092263   -2.99288366646977    1.80939852416972
C        -0.73258509063334   -2.27598261667268    2.57398289925046
C        -1.96864702260794   -2.29090729704435    1.80834762809865
C        -0.24508650377880   -3.00738559604259   -1.82165049676100
C         0.74463229734887   -2.28722710575933   -2.57727512905225
C         1.97304686246251   -2.28828633858722   -1.82237541337595
C         1.74092779730328   -3.00709775576507   -0.59764434244357
C         0.36683281600396   -3.44607135138611   -0.59253146635419
C         2.79067161155476   -1.16547243846208   -1.82485750417720
C         2.41095210392240    0.00000005191563   -2.58141106237173
C         2.79067161252155    1.16547238350933   -1.82485738677939
C         3.40644426406169    0.72146176682797   -0.60105704252935
C         3.40644425187218   -0.72146178536481   -0.60105709424182
C         1.97304685403961    2.28828633052213   -1.82237549478376
C         0.74463227613656    2.28722709713939   -2.57727503098503
C        -0.24508647557592    3.00738562904181   -1.82165053321029
C         0.36683278800186    3.44607136319639   -0.59253148876850
C         1.74092777409866    3.00709775987057   -0.59764429667906
C        -1.56724773538020    2.57921178060090   -1.81884478079061
C        -1.94746661112092    1.41444510622106   -2.58199171727084
C        -2.94250836750394    0.69454863808614   -1.82842236814196
C        -3.17429255107756    1.41364293018607   -0.60158070673614
C        -2.32555434757625    2.58042203722095   -0.60051343969339
C        -2.94250846983815   -0.69454859731107   -1.82842233647761
C        -1.94746663190024   -1.41444505021164   -2.58199168141952
C        -1.56724775420647   -2.57921181466358   -1.81884472136402
C        -2.32555430904396   -2.58042202797733   -0.60051348022337
C        -3.17429256833726   -1.41364292945790   -0.60158068213116
C        -0.99106756772959   -0.72089188744947   -3.30671246747142
C        -0.99106755584348    0.72089186810603   -3.30671246124834
C         0.38026355213573    1.16477493230279   -3.30789758771037
C         1.22622139100589    0.00000002083087   -3.30658220007256
C         0.38026351709933   -1.16477492039335   -3.30789751659463
Cl       -1.96888629925525    0.00000005783704    5.24153819224166
61
 energy: -132.999419545452 gnorm: 0.005098322546 xtb: 6.4.1 (a3dbbd7)
C        -1.29729281296324   -0.00000001426500    3.53422828431385
C        -0.37098542069032   -1.17474938048453    3.31135138492299
C         0.98038806531055   -0.72197900300554    3.28190160662131
C         0.98038806697074    0.72197901444137    3.28190161546967
C        -0.37098543244914    1.17474938989864    3.31135140898700
C         2.33619381984456   -2.58296266728088    0.58336372976039
C         3.18301129384501   -1.41587580654171    0.58220784641686
C         2.94431372381938   -0.69421950392925    1.80766434401195
C         1.95057610630834   -1.41506204599721    2.56080842317475
C         1.57844868207318   -2.57955933682334    1.80882931287287
C         3.18301130127348    1.41587580960870    0.58220784968924
C         2.33619383450561    2.58296266034862    0.58336372247917
C         1.57844869730902    2.57955935904701    1.80882929796190
C         1.95057610013442    1.41506205598286    2.56080843204159
C         2.94431372797752    0.69421951330153    1.80766437333325
C        -0.36048533442730    3.44596771322300    0.58620253000706
C        -1.73499175076172    3.00143721739221    0.58980812776561
C        -1.97195314912836    2.29337719249443    1.80999461079007
C        -0.73364937180185    2.27745541366142    2.56955365331672
C         0.25343695893041    2.99799785594823    1.80926382664596
C        -3.39738845664466    0.71726154183696    0.57394321331694
C        -3.39738846238536   -0.71726152615129    0.57394321919454
C        -2.77229813381424   -1.15008672543466    1.80795563386100
C        -2.42057103572731    0.00000002076699    2.55829938000201
C        -2.77229813603762    1.15008673844535    1.80795562223611
C        -1.73499176624045   -3.00143722523049    0.58980813340654
C        -0.36048537425867   -3.44596768778053    0.58620252305256
C         0.25343694712449   -2.99799785166687    1.80926381323635
C        -0.73364938069756   -2.27745542837531    2.56955367271978
C        -1.97195316386097   -2.29337716855036    1.80999460989379
C        -0.24595365036712   -3.00984787281420   -1.82258479194322
C         0.74443112262700   -2.28872204404229   -2.57836507164661
C         1.97302455658318   -2.28915392109683   -1.82164444905532
C         1.74084936909638   -3.00898937210801   -0.59662975962357
C         0.36721283220200   -3.45096969116284   -0.59429963298911
C         2.79074394352743   -1.16567463871354   -1.82362234372364
C         2.41116608213651    0.00000002522176   -2.58076726761852
C         2.79074394029118    1.16567463721315   -1.82362230450690
C         3.40640895539916    0.72144664376285   -0.59895003078668
C         3.40640893954283   -0.72144665770444   -0.59895004758613
C         1.97302454884009    2.28915392734136   -1.82164447590801
C         0.74443111682630    2.28872203452933   -2.57836504810021
C        -0.24595363900425    3.00984788331313   -1.82258479787666
C         0.36721284011632    3.45096969920009   -0.59429962775740
C         1.74084937482870    3.00898938455649   -0.59662975146579
C        -1.56887921817827    2.58068801548270   -1.82088604346647
C        -1.94810258173128    1.41529295896163   -2.58373073643376
C        -2.94306041036920    0.69448290596571   -1.82956747503520
C        -3.17546398442448    1.41470549159495   -0.60292214299046
C        -2.32708468554139    2.58174178635679   -0.60095842642251
C        -2.94306042731408   -0.69448289321882   -1.82956747128639
C        -1.94810258741164   -1.41529293171476   -2.58373074520297
C        -1.56887922753329   -2.58068800313654   -1.82088602534762
C        -2.32708468885870   -2.58174176470093   -0.60095843570204
C        -3.17546398752333   -1.41470547191713   -0.60292213614194
C        -0.99163016887916   -0.72109973703226   -3.31007528372667
C        -0.99163016445846    0.72109973565013   -3.31007527348065
C         0.38035639333806    1.16556979606451   -3.30919085228483
C         1.22658176459324   -0.00000000244849   -3.30800862733093
C         0.38035638294438   -1.16556980573237   -3.30919081766816
Cl       -1.94368935026601    0.00000001963786    5.25056064811680
61
 energy: -132.999441388887 gnorm: 0.001881583481 xtb: 6.4.1 (a3dbbd7)
C        -1.29783843448008   -0.00000000015180    3.53286150858847
C        -0.37106574456920   -1.17497309750098    3.31065370751163
C         0.97991748723237   -0.72169635196329    3.28123542077039
C         0.97991748986443    0.72169636175473    3.28123543269259
C        -0.37106574421450    1.17497310119385    3.31065371673106
C         2.33570613609676   -2.58301050537179    0.58364377217559
C         3.18236327208039   -1.41573928156625    0.58251636671433
C         2.94410559500985   -0.69413389470632    1.80746417638077
C         1.95071642055012   -1.41553173325105    2.56179218256833
C         1.57800674276905   -2.57925739260756    1.80935326891327
C         3.18236328081893    1.41573927865254    0.58251637353254
C         2.33570614450805    2.58301050114765    0.58364377446045
C         1.57800675028489    2.57925739901922    1.80935326656522
C         1.95071642426283    1.41553174167611    2.56179219171060
C         2.94410559576736    0.69413389826928    1.80746418624959
C        -0.36104246522869    3.44571052438212    0.58584664819732
C        -1.73487307023629    3.00177607416508    0.58943203470179
C        -1.97240002216093    2.29340547003850    1.81043941433761
C        -0.73394764908240    2.27715251994585    2.56848570881146
C         0.25318371035867    2.99823909356844    1.80905566829613
C        -3.39694073813370    0.71752275549418    0.57405581393612
C        -3.39694074141243   -0.71752274301375    0.57405581648551
C        -2.77190491565537   -1.14970262669488    1.80696874266824
C        -2.42173042991929    0.00000001388674    2.55982188650244
C        -2.77190491465703    1.14970263609905    1.80696873450259
C        -1.73487307890103   -3.00177606620812    0.58943203538392
C        -0.36104248175937   -3.44571051216562    0.58584664324937
C         0.25318370026611   -2.99823909168112    1.80905566975857
C        -0.73394765195905   -2.27715252154596    2.56848571630165
C        -1.97240002344521   -2.29340545901322    1.81043941854169
C        -0.24595854989321   -3.00994658168881   -1.82251863976970
C         0.74437995682679   -2.28864182045620   -2.57834365469042
C         1.97277316568576   -2.28886786548606   -1.82123297972170
C         1.74047949613641   -3.00869184354950   -0.59628665662497
C         0.36723997747844   -3.45141215481784   -0.59451600240896
C         2.79037887639108   -1.16555357563964   -1.82327784110551
C         2.41089306466791    0.00000001057829   -2.58039778194992
C         2.79037887872684    1.16555357925751   -1.82327782632761
C         3.40603361826060    0.72123457903655   -0.59865140847864
C         3.40603361090655   -0.72123458758331   -0.59865141850128
C         1.97277316841988    2.28886787011978   -1.82123298026789
C         0.74437996325649    2.28864181944819   -2.57834364678681
C        -0.24595854062460    3.00994658732189   -1.82251863715009
C         0.36723999017618    3.45141215986911   -0.59451599284852
C         1.74047950710186    3.00869185280439   -0.59628665219805
C        -1.56874385412469    2.58066321074156   -1.82124142044973
C        -1.94761877255321    1.41534846409427   -2.58377619063230
C        -2.94263208560608    0.69437170274434   -1.82975145702418
C        -3.17506441084068    1.41464443204360   -0.60323032065045
C        -2.32702972838664    2.58150201990647   -0.60097039602217
C        -2.94263208703139   -0.69437169217564   -1.82975145769076
C        -1.94761877577117   -1.41534844483351   -2.58377619793984
C        -1.56874386218218   -2.58066319332708   -1.82124141692683
C        -2.32702973521306   -2.58150200027501   -0.60097039587003
C        -3.17506441451994   -1.41464441542340   -0.60323031831587
C        -0.99146915635975   -0.72103492506252   -3.31045915770340
C        -0.99146915380315    0.72103493615215   -3.31045915041887
C         0.38049833086234    1.16557986675511   -3.30906274640170
C         1.22666267910423   -0.00000000240913   -3.30798978060405
C         0.38049832541598   -1.16557986777628   -3.30906273839963
Cl       -1.93703659199274    0.00000004996846    5.25361092315089
61
 energy: -132.999444845290 gnorm: 0.000768300761 xtb: 6.4.1 (a3dbbd7)
C        -1.29809080482987    0.00000000597090    3.53196285206099
C        -0.37110132955421   -1.17486383922000    3.31043473848495
C         0.97961012878565   -0.72149255084201    3.28085986945605
C         0.97961013402281    0.72149254976690    3.28085987477219
C        -0.37110132107764    1.17486383851033    3.31043473099992
C         2.33528368985555   -2.58258480953422    0.58348300806761
C         3.18187752195572   -1.41537540914493    0.58233871554824
C         2.94359279022020   -0.69400013094505    1.80694164468087
C         1.95045200188244   -1.41560991123623    2.56192507941190
C         1.57753644750471   -2.57855790241410    1.80918520937354
C         3.18187752448377    1.41537540480632    0.58233872219521
C         2.33528369344424    2.58258480939878    0.58348301660811
C         1.57753645257880    2.57855789857655    1.80918521865176
C         1.95045201056269    1.41560990949081    2.56192508587185
C         2.94359279552833    0.69400012705586    1.80694164832958
C        -0.36131454691873    3.44502867318105    0.58575559685562
C        -1.73467273593085    3.00156718760654    0.58912869258771
C        -1.97231313007213    2.29310490073699    1.81068331388059
C        -0.73406541214797    2.27677477321002    2.56829095821515
C         0.25302448282269    2.99778358502559    1.80889683669335
C        -3.39631566695229    0.71762080496636    0.57412774304322
C        -3.39631566772656   -0.71762079415077    0.57412774440427
C        -2.77151830731637   -1.14950519476346    1.80647514711212
C        -2.42198460419214    0.00000000163420    2.56089287562312
C        -2.77151830085477    1.14950519969851    1.80647514587494
C        -1.73467274065134   -3.00156717500970    0.58912868675278
C        -0.36131454908726   -3.44502866980469    0.58575559171470
C         0.25302447577032   -2.99778358246432    1.80889683542083
C        -0.73406541756633   -2.27677476807315    2.56829095427835
C        -1.97231313440672   -2.29310489712929    1.81068331301435
C        -0.24582735768881   -3.00967961148121   -1.82228648113923
C         0.74437898908561   -2.28836621704377   -2.57820357656183
C         1.97262891184218   -2.28852837185831   -1.82108687987224
C         1.74021047250914   -3.00816973377722   -0.59618376934022
C         0.36724992840120   -3.45114790583470   -0.59445744768531
C         2.79016837286453   -1.16546250561449   -1.82325029730530
C         2.41069610755563    0.00000000105754   -2.58023630735146
C         2.79016837868405    1.16546250979490   -1.82325029852152
C         3.40583323517885    0.72103630256176   -0.59873029904365
C         3.40583323835955   -0.72103630329678   -0.59873030187774
C         1.97262892055175    2.28852837582635   -1.82108686827172
C         0.74437899864893    2.28836622511498   -2.57820357418190
C        -0.24582735103897    3.00967961747151   -1.82228647469170
C         0.36724993764820    3.45114791091261   -0.59445744082933
C         1.74021048034000    3.00816973661358   -0.59618376380911
C        -1.56838212311268    2.58043198998943   -1.82120433409400
C        -1.94713528258910    1.41531608402375   -2.58351925834120
C        -2.94227495175540    0.69430668627730   -1.82974722954955
C        -3.17462602923302    1.41441869519787   -0.60328605882942
C        -2.32682881283098    2.58105955101290   -0.60084839322721
C        -2.94227494939245   -0.69430667045714   -1.82974723027202
C        -1.94713528507342   -1.41531607233185   -2.58351925828652
C        -1.56838212881497   -2.58043197806560   -1.82120434092459
C        -2.32682881875696   -2.58105953890281   -0.60084839483026
C        -3.17462603148327   -1.41441868090267   -0.60328606016751
C        -0.99131070897911   -0.72095157797432   -3.31028482318818
C        -0.99131070749846    0.72095159216457   -3.31028482085479
C         0.38058896317376    1.16546564507541   -3.30876950920042
C         1.22670649772610    0.00000000210215   -3.30780230675727
C         0.38058896067643   -1.16546563518385   -3.30876952002499
Cl       -1.93569280056101    0.00000010481373    5.25500142555658
61
 energy: -132.999445551629 gnorm: 0.000283432411 xtb: 6.4.1 (a3dbbd7)
C        -1.29787639945996    0.00000000432164    3.53202116401166
C        -0.37104479933474   -1.17482543413296    3.31059262606643
C         0.97976517196507   -0.72156107778449    3.28104713418785
C         0.97976517644820    0.72156107890753    3.28104713511751
C        -0.37104479300453    1.17482543665674    3.31059261775233
C         2.33542478128096   -2.58262367046985    0.58344648046930
C         3.18204999092604   -1.41541572893300    0.58232164242591
C         2.94371440097596   -0.69403080630190    1.80704033508199
C         1.95046029381702   -1.41556330874519    2.56175470892862
C         1.57765657129871   -2.57867330908826    1.80910634942099
C         3.18204999545102    1.41541572822282    0.58232164470250
C         2.33542478810580    2.58262367167555    0.58344648319032
C         1.57765657895977    2.57867331079046    1.80910635249650
C         1.95046029983375    1.41556330968055    2.56175471165199
C         2.94371440570262    0.69403080587272    1.80704033862205
C        -0.36121075120199    3.44514295431769    0.58582584730295
C        -1.73469664759758    3.00153729451148    0.58916989561781
C        -1.97222480251326    2.29311493009364    1.81061578598467
C        -0.73399994339199    2.27688767370885    2.56852067208592
C         0.25309261319479    2.99783527155566    1.80896441236651
C        -3.39644111152223    0.71758396239248    0.57410460452367
C        -3.39644111305829   -0.71758394756580    0.57410460591651
C        -2.77162061451313   -1.14961447315174    1.80663983911128
C        -2.42167807159505    0.00000000452583    2.56057409731473
C        -2.77162061021696    1.14961448420619    1.80663983877598
C        -1.73469665566784   -3.00153728342914    0.58916989348577
C        -0.36121075980399   -3.44514294674569    0.58582584522815
C         0.25309260455930   -2.99783526547274    1.80896441070690
C        -0.73399995076628   -2.27688766735254    2.56852067247623
C        -1.97222480949572   -2.29311492063167    1.81061578529980
C        -0.24585749278685   -3.00970009706906   -1.82231347891033
C         0.74437854442417   -2.28840468185971   -2.57821405549441
C         1.97266852327517   -2.28859742292507   -1.82114066285457
C         1.74029469463939   -3.00828364722466   -0.59623199638182
C         0.36724167456357   -3.45112318932047   -0.59442676656956
C         2.79025577412892   -1.16550189770485   -1.82330220692034
C         2.41075474533030    0.00000000198422   -2.58030010362313
C         2.79025577827044    1.16550189922700   -1.82330220578802
C         3.40596463724013    0.72108336151683   -0.59876616027370
C         3.40596463704849   -0.72108336234352   -0.59876616175830
C         1.97266853034081    2.28859742637546   -1.82114065973501
C         0.74437855164356    2.28840468814148   -2.57821405360862
C        -0.24585748450114    3.00970010534045   -1.82231347695800
C         0.36724168410032    3.45112319596087   -0.59442676447047
C         1.74029470278545    3.00828365054439   -0.59623199388792
C        -1.56846053539552    2.58048541308143   -1.82120275100363
C        -1.94728838528072    1.41533158061688   -2.58356901931897
C        -2.94242062212679    0.69433934185826   -1.82975459076772
C        -3.17477337003895    1.41443838854626   -0.60325811821203
C        -2.32688214240381    2.58112377757676   -0.60085949965598
C        -2.94242062276493   -0.69433932464098   -1.82975459041280
C        -1.94728838894581   -1.41533156710758   -2.58356901921603
C        -1.56846054234575   -2.58048540078460   -1.82120275289398
C        -2.32688214911513   -2.58112376399430   -0.60085950099764
C        -3.17477337312919   -1.41443837196641   -0.60325811840739
C        -0.99138630189708   -0.72097082492282   -3.31026332273282
C        -0.99138629970860    0.72097083610767   -3.31026332146264
C         0.38053783954464    1.16547457165543   -3.30881396926307
C         1.22667969931453    0.00000000162286   -3.30781189490700
C         0.38053783574209   -1.16547456442478   -3.30881397287963
Cl       -1.93714244675712    0.00000005668710    5.25460421555297
