63
 energy: -142.064373729679 gnorm: 0.137797425688 xtb: 6.4.1 (a3dbbd7)
C        -1.32333194775417    0.00617886347970    3.59125188963251
C        -0.38909456310608   -1.27772716531095    3.58793274117145
C         0.98734837171535   -0.72675165446744    3.28582848483634
C         0.97037352147027    0.69420630050098    3.25749094477592
C        -0.37633960723915    1.14742685553706    3.29074190055216
C         2.33092254703306   -2.58746567485154    0.56610397604514
C         3.16875994483946   -1.41579758165486    0.56774606192583
C         2.91978889080344   -0.69314490348597    1.79074016083681
C         1.93018806170321   -1.40549148670748    2.54814074589443
C         1.57476788296703   -2.59634073810083    1.79100274817011
C         3.18328087896891    1.41909085132624    0.57258499213333
C         2.33432229320876    2.58580968143883    0.57559918777772
C         1.57332139543398    2.57095369604789    1.79851755002390
C         1.94352282881158    1.40414426944103    2.54285112768194
C         2.93804115459266    0.69543633516321    1.79366637265872
C        -0.36752716666001    3.44413435035873    0.58029879258012
C        -1.74013210357057    3.00741588983283    0.58054459941955
C        -1.97818665379860    2.28654468588757    1.80361199533287
C        -0.73393250395930    2.25581684802015    2.55761528373596
C         0.24647420110131    2.98080949443068    1.80023381740862
C        -3.39591089216029    0.72883802558845    0.57533866561121
C        -3.37932885665645   -0.70504006359254    0.57786353554246
C        -2.74934612856665   -1.12865052488571    1.82052481704193
C        -2.40026274086307   -0.01382700939334    2.55826017594831
C        -2.77435746218519    1.16021035149421    1.80187148511327
C        -1.70577977915925   -3.00504292266898    0.57191390059864
C        -0.34657433486683   -3.46193150719564    0.56452064530943
C         0.25810980605866   -3.00738238851431    1.79111395103090
C        -0.74203335365356   -2.29289841924391    2.55243835495534
C        -1.91196172287597   -2.27950749485726    1.81757326885181
C        -0.23558165862281   -3.01371296632646   -1.83961821271520
C         0.75175047781152   -2.28700579367404   -2.59867644532734
C         1.98089777627659   -2.28868303835222   -1.84308617931945
C         1.74918768154887   -3.01946296828987   -0.62050040464920
C         0.38088379041600   -3.46658963937948   -0.62079308111870
C         2.79204993046375   -1.16413556659148   -1.83875967224219
C         2.41002754086118    0.00666527739579   -2.59106683151125
C         2.78807241943814    1.16926264052202   -1.83130610074559
C         3.40298548527550    0.72369088805355   -0.60835037131266
C         3.40110069057525   -0.71955382898331   -0.60923004493565
C         1.96912615256614    2.29475463280888   -1.82840259178522
C         0.74474441569639    2.29528025280401   -2.58515694980539
C        -0.24988429155059    3.01642431380723   -1.82795956514323
C         0.36353023978106    3.45499162487799   -0.59844520421847
C         1.73735095077191    3.01278425815446   -0.60243935985793
C        -1.56944867307335    2.59059487249377   -1.83048045584010
C        -1.94787757007795    1.42311330884846   -2.58910001301826
C        -2.94122296022124    0.70465889669871   -1.83002690890673
C        -3.17947337159538    1.42642572884929   -0.60816005298080
C        -2.33307692209202    2.59081264516620   -0.60600270171083
C        -2.93172079240255   -0.68656028280689   -1.82266620418654
C        -1.94059925011627   -1.40887980593779   -2.58138532694875
C        -1.55636984787224   -2.57670213587000   -1.82754179967090
C        -2.29848528094837   -2.57416283302738   -0.59738768824741
C        -3.15456863482430   -1.39758782868201   -0.59434922362650
C        -0.98936986995949   -0.71482485845558   -3.31408037280858
C        -0.99159024528376    0.72723605185279   -3.31429029098428
C         0.38014149579772    1.17201579903766   -3.31523274930469
C         1.22728121177112    0.00778684511203   -3.31823795360647
C         0.38205649969615   -1.16057927312445   -3.31917058806611
Cl       -2.09995733548554    0.29360223981566    5.20530702406437
Cl       -0.35034641589922   -2.11046483688082    5.19906768498811
Cl        1.13567903252783   -3.46701145921725   -3.91635830911669
63
 energy: -142.088493749981 gnorm: 0.059294188196 xtb: 6.4.1 (a3dbbd7)
C        -1.32333326254534    0.00678265755746    3.59274307367688
C        -0.38911949612398   -1.27708479331320    3.59158329248613
C         0.98690743629707   -0.72585145538321    3.28869057931458
C         0.96973334126300    0.69488080637909    3.25947390845423
C        -0.37622640438810    1.14787178821844    3.29247780691949
C         2.33454656602314   -2.58534798113011    0.57445144350394
C         3.17248339222818   -1.41628380466448    0.57497095910309
C         2.92070914866172   -0.69251418419832    1.79549085831270
C         1.93070502166851   -1.40473955297395    2.55282962065090
C         1.57499848982138   -2.59503269390283    1.79599904201165
C         3.18265897299675    1.41963322427306    0.57435179391679
C         2.33450961584805    2.58671217718451    0.57670451601770
C         1.57307948909420    2.57130577929116    1.79877647909594
C         1.94323970707113    1.40455680223840    2.54382990980232
C         2.93796256280130    0.69616046610485    1.79600756514315
C        -0.36779305666158    3.44523974524385    0.58118728596688
C        -1.74044117569752    3.00850752242227    0.58150822356123
C        -1.97788725701568    2.28682677447702    1.80450928285107
C        -0.73387300431080    2.25620637667326    2.55791769392561
C         0.24623404304305    2.98131005648263    1.80105231482877
C        -3.39607670138993    0.72897184045003    0.57661743155161
C        -3.37915548543759   -0.70498581071962    0.57938977594079
C        -2.74940372497434   -1.12853035355120    1.82220207828040
C        -2.39982365315159   -0.01343943804217    2.55925519449137
C        -2.77417145978013    1.16037625975910    1.80252007957916
C        -1.70851181409201   -3.00793196710586    0.57898700498960
C        -0.35161848435731   -3.46254720896675    0.57263323511992
C         0.25696747911281   -3.00660084013415    1.79685238630819
C        -0.74200244160203   -2.29252837463902    2.55722725580895
C        -1.91239252517490   -2.27930207590028    1.82158091373780
C        -0.24230869700113   -3.01143910846365   -1.82468751217009
C         0.77504353085394   -2.35938649076757   -2.67694512842549
C         1.98409826680217   -2.28317048276914   -1.82751592591135
C         1.74615048990563   -3.00901690437900   -0.61394823349644
C         0.37617481648166   -3.45669859202751   -0.61413678166845
C         2.78637935841538   -1.15938574695578   -1.82597960474170
C         2.40737650160844    0.01073407243963   -2.58751604606066
C         2.78590491334289    1.16932181498015   -1.82983395593579
C         3.40207912198413    0.72381639340244   -0.60584585305584
C         3.40465319984307   -0.71837815667201   -0.60279700344433
C         1.96816801851344    2.29907778710735   -1.82768610833239
C         0.74289612265874    2.30373345131143   -2.58529571806918
C        -0.25166424735279    3.02212740665721   -1.82668115524990
C         0.36307539180694    3.45753672389837   -0.59710724910682
C         1.73706963451283    3.01441446111933   -0.60230417476284
C        -1.57148646321066    2.59636569446790   -1.82913870194872
C        -1.95144915135808    1.43129098835941   -2.58913346275663
C        -2.94211772517850    0.70846801868277   -1.82900026796780
C        -3.17990359448342    1.42766611327901   -0.60763170785130
C        -2.33421189928277    2.59323504738964   -0.60443560544207
C        -2.92991187163095   -0.68554269438187   -1.82194671429379
C        -1.94149350003383   -1.40359050184477   -2.57898737270558
C        -1.55466773187684   -2.56941473002014   -1.81521716554221
C        -2.30229850376734   -2.57514456461477   -0.59154867362189
C        -3.15428793213178   -1.39770533079626   -0.59235651982043
C        -0.98612288857576   -0.70216643284017   -3.30782952066699
C        -0.99503881059979    0.74092617606870   -3.31589771043060
C         0.37503949183559    1.18523477135958   -3.31702427119919
C         1.21712565397333    0.01558770939765   -3.31155171519467
C         0.37635622086305   -1.14328059281545   -3.33897886022323
Cl       -2.10125189482496    0.29432580148344    5.20574654979379
Cl       -0.34954831793503   -2.10919488026594    5.20264547141271
Cl        1.16968180949750   -3.56876883960370   -4.02121907852285
63
 energy: -142.094479367022 gnorm: 0.013498381462 xtb: 6.4.1 (a3dbbd7)
C        -1.32403229033948    0.00888156486871    3.59635150731273
C        -0.38961011873394   -1.27486989087587    3.59560922635088
C         0.98644904703336   -0.72367176409444    3.29293449201066
C         0.96871733989302    0.69675136669807    3.26299139495935
C        -0.37671868326839    1.14981153033306    3.29619669429836
C         2.33279801967623   -2.58070987545063    0.57626310851660
C         3.16958290693182   -1.41459610539552    0.57874377744481
C         2.92144995770414   -0.69102297870932    1.80001906998317
C         1.93025409835050   -1.40290095719494    2.55694023105028
C         1.57402655123624   -2.59168104366713    1.79805412835246
C         3.18111395155473    1.42098802622542    0.57652580080886
C         2.33381598248459    2.58864523762975    0.57939315246019
C         1.57210625247842    2.57273989742159    1.80072553837819
C         1.94238618270059    1.40588653529865    2.54591576695839
C         2.93760954899431    0.69782075262896    1.79914601274328
C        -0.36851554515752    3.44786433291589    0.58379279090305
C        -1.74120126132591    3.01110803872804    0.58416908634790
C        -1.97795905676011    2.28889549429801    1.80736537446520
C        -0.73431515647715    2.25797588870262    2.56028003594561
C         0.24535556697657    2.98310719332534    1.80383815819607
C        -3.39588258116514    0.73079553698576    0.57943302327608
C        -3.37813068229664   -0.70336798048345    0.58131574060965
C        -2.74959121766660   -1.12742799216198    1.82480504903648
C        -2.39925862374008   -0.01188519176337    2.56147813164142
C        -2.77383402282590    1.16211574150910    1.80466401777777
C        -1.70659580474527   -3.00481433112550    0.58254236661859
C        -0.35329032027315   -3.45853271275239    0.57412685409722
C         0.25559394367189   -3.00358511887040    1.79955406544399
C        -0.74175263947357   -2.29046979550859    2.56107571075448
C        -1.91336268953324   -2.27852889112927    1.82560260701388
C        -0.24304846202557   -3.01572506485037   -1.82597392064229
C         0.79632208980174   -2.42518263665585   -2.74406123970233
C         1.98688392288332   -2.28652346450782   -1.82844955947726
C         1.74206271398246   -2.99710380289411   -0.61714711671600
C         0.37194824295745   -3.44547596083759   -0.61727901952833
C         2.78029931347144   -1.16219744374516   -1.82405851055321
C         2.40732106628413    0.01155024665355   -2.58784591212952
C         2.78098308285745    1.16772503863786   -1.82846393894604
C         3.39792272133838    0.72424166460445   -0.60358377188145
C         3.39633160261474   -0.71722300612788   -0.60069375871999
C         1.96660961838211    2.30245124175906   -1.82503586014293
C         0.74076941898611    2.30678461782735   -2.58211186321948
C        -0.25318519382731    3.02736899524081   -1.82456456575215
C         0.36197964464925    3.46114398941196   -0.59433681850345
C         1.73602710401986    3.01624598204182   -0.60049329124035
C        -1.57348476994954    2.60154635473805   -1.82698064967683
C        -1.95185260490400    1.43505291169300   -2.58576988370317
C        -2.94257510605691    0.71190471801287   -1.82621085710990
C        -3.17984759423705    1.42969394905956   -0.60552894268533
C        -2.33541191987331    2.59690857502496   -0.60151183453382
C        -2.92560358681543   -0.68420897033615   -1.82135542353621
C        -1.94302889680238   -1.40260947644277   -2.58024517565622
C        -1.54791300222991   -2.56753994416012   -1.81326361500968
C        -2.29633592272195   -2.56904141215020   -0.58988386742284
C        -3.15159451756319   -1.39543077605090   -0.59045170719412
C        -0.97870833005529   -0.70177738997501   -3.30098832965606
C        -0.99466322106800    0.74385478912373   -3.31059039471325
C         0.37281018296185    1.18744976660347   -3.31192122295037
C         1.21033437951207    0.01098265788465   -3.30439559597006
C         0.37445204013619   -1.13809783528125   -3.33806986783794
Cl       -2.10514458386378    0.29591046898844    5.20761330341969
Cl       -0.34974317553834   -2.10487213996923    5.20735510982894
Cl        1.19428971967168   -3.63892902739105   -4.10351958425557
63
 energy: -142.094783372945 gnorm: 0.008068220233 xtb: 6.4.1 (a3dbbd7)
C        -1.32443395542889    0.01010447255822    3.59824353353022
C        -0.38989616333195   -1.27391377145619    3.59789823126365
C         0.98625454725387   -0.72249118462972    3.29502344047319
C         0.96833496616539    0.69797883938905    3.26520382912249
C        -0.37707901797375    1.15125284668816    3.29851941737175
C         2.33013075205826   -2.57862588684751    0.57483334104162
C         3.16686273940464   -1.41354386010071    0.57884083361142
C         2.92113566696282   -0.69008419845848    1.80128014164328
C         1.92971829292747   -1.40175366359127    2.55814581449538
C         1.57306446437337   -2.58936482690534    1.79759004428832
C         3.17974365614165    1.42125534723701    0.57739830808901
C         2.33340123554380    2.58952367211841    0.58090636437902
C         1.57169097224415    2.57371881454723    1.80221150995278
C         1.94201273910696    1.40692580402927    2.54758094887411
C         2.93691591496732    0.69868582326898    1.80057946007578
C        -0.36881089585047    3.44924217923148    0.58518402690170
C        -1.74166528159992    3.01245721089674    0.58557053686217
C        -1.97821660399303    2.29027908995909    1.80903226756629
C        -0.73462565045405    2.25924264149474    2.56193357477049
C         0.24496352824980    2.98433553107939    1.80550844719440
C        -3.39574107080381    0.73174502936826    0.58086573644094
C        -3.37679280750472   -0.70242898113907    0.58199034239344
C        -2.74924467359341   -1.12643042025732    1.82589946460842
C        -2.39906663672541   -0.01080348293473    2.56273174714001
C        -2.77379072644215    1.16321737448570    1.80596184551347
C        -1.70480196397268   -3.00231322977641    0.58259132447418
C        -0.35227535382354   -3.45542203965204    0.57265425275179
C         0.25506493193543   -3.00120881221003    1.79939632797862
C        -0.74170515889522   -2.28939151434451    2.56249918609337
C        -1.91350310279439   -2.27768764896129    1.82679124997172
C        -0.24171598165778   -3.02224238091482   -1.83340133530019
C         0.80174512744667   -2.44203571828637   -2.75935424882415
C         1.98959744538589   -2.29269977444974   -1.83583051742170
C         1.74134974578313   -2.99482576191714   -0.62081435775566
C         0.37116821089989   -3.44337104005903   -0.62088119376948
C         2.77992130834425   -1.16528572104392   -1.82735807811234
C         2.40895375598695    0.01146237743812   -2.58929802972938
C         2.77923112874582    1.16716099550578   -1.82814354356762
C         3.39465466624668    0.72384708564997   -0.60286654012074
C         3.39076324715757   -0.71746206137917   -0.60129820846138
C         1.96609180554063    2.30301483612185   -1.82350119288660
C         0.73998760385921    2.30623131983866   -2.58011135148380
C        -0.25350405762633    3.02839936125765   -1.82339556793694
C         0.36162863569241    3.46249558956727   -0.59299370445685
C         1.73563712761305    3.01673866671620   -0.59925112497000
C        -1.57392467434102    2.60253283083513   -1.82582141142909
C        -1.95116192838491    1.43507208815305   -2.58384242935267
C        -2.94261398845514    0.71262836244154   -1.82481168905728
C        -3.17975052013031    1.43033069612501   -0.60429770831545
C        -2.33590883427883    2.59822299253684   -0.60014337019592
C        -2.92431098041599   -0.68372630399785   -1.82144753171661
C        -1.94476097062537   -1.40360372035123   -2.58201030278007
C        -1.54577640684635   -2.56968026330552   -1.81656126185840
C        -2.29174728475473   -2.56596366898155   -0.59070008240253
C        -3.14881488658411   -1.39396305122890   -0.58997090663165
C        -0.97629092736757   -0.70509307172276   -3.30023258105132
C        -0.99367217828299    0.74217212425464   -3.30707786307411
C         0.37278313996797    1.18542092555115   -3.30831831556354
C         1.20998015158832    0.00664410882819   -3.30347191225507
C         0.37520623283363   -1.14092265706563   -3.33471744632205
Cl       -2.10785837683543    0.29701436014364    5.20836357454561
Cl       -0.34981319358639   -2.10162307508872    5.21080139683990
Cl        1.19769514581627   -3.64719148194319   -4.12007148551783
63
 energy: -142.094879646177 gnorm: 0.004634641391 xtb: 6.4.1 (a3dbbd7)
C        -1.32466652058886    0.01044527682657    3.59886096806301
C        -0.38992455721595   -1.27377812875319    3.59901624614215
C         0.98637257138768   -0.72214411409664    3.29597976025482
C         0.96831617476286    0.69835746988019    3.26613483698845
C        -0.37715862603268    1.15165834902778    3.29938151455371
C         2.32838600170054   -2.57733066923129    0.57413561288210
C         3.16576389030923   -1.41297541144626    0.57884737871238
C         2.92123137366034   -0.68958289409665    1.80192935217615
C         1.92977565427800   -1.40127552626258    2.55871046884639
C         1.57254934076946   -2.58808914223146    1.79731686990588
C         3.17937708271173    1.42132088038959    0.57765288038009
C         2.33346591331733    2.58983384663384    0.58141625914481
C         1.57168667482518    2.57402756820226    1.80272627604203
C         1.94203139611207    1.40737076996325    2.54834483177401
C         2.93665967496870    0.69906603837161    1.80113124115588
C        -0.36877531718065    3.44955505854924    0.58542068933076
C        -1.74179101530353    3.01277324982315    0.58582939813741
C        -1.97826452329692    2.29068111072442    1.80947977501396
C        -0.73462967893104    2.25944462074166    2.56227986667680
C         0.24493095169134    2.98461815484219    1.80594692390254
C        -3.39591304390789    0.73202852298839    0.58136386405143
C        -3.37643973834133   -0.70218337604229    0.58223115401336
C        -2.74919750621269   -1.12600783398912    1.82626731405128
C        -2.39908524074551   -0.01036873869613    2.56312323949366
C        -2.77384862899655    1.16357469339271    1.80632177132743
C        -1.70416251678105   -3.00103833053499    0.58264066130047
C        -0.35155423601069   -3.45322509634110    0.57192552182028
C         0.25474509952410   -2.99989786218585    1.79935402216212
C        -0.74193433133806   -2.28928851791385    2.56339218608563
C        -1.91382834391789   -2.27736135887719    1.82749480674338
C        -0.24098920634042   -3.02541884810102   -1.83768903556727
C         0.80402512126189   -2.44914730465671   -2.76531021684557
C         1.99084555431346   -2.29577832096262   -1.84003692379986
C         1.74087716149132   -2.99318236014856   -0.62243170508804
C         0.37058325001323   -3.44171903436904   -0.62245098745356
C         2.77985712090801   -1.16654836195034   -1.82901526729446
C         2.41069170427508    0.01189246019110   -2.59021232881608
C         2.77909658086950    1.16720115638263   -1.82830439327971
C         3.39299310527983    0.72353771468449   -0.60265044904316
C         3.38792566493468   -0.71774004956918   -0.60160546440565
C         1.96628758576749    2.30327042344600   -1.82297505573625
C         0.73981135796428    2.30569510439067   -2.57938634992948
C        -0.25346576659648    3.02839371020976   -1.82312855323426
C         0.36168968623441    3.46287561092222   -0.59272231761708
C         1.73575954237202    3.01680965243730   -0.59891890919316
C        -1.57398843740451    2.60249505313766   -1.82554745051359
C        -1.95086055847751    1.43476756184859   -2.58314500323837
C        -2.94298820316315    0.71276047033518   -1.82432813412736
C        -3.17988652641895    1.43038493055940   -0.60393805295206
C        -2.33615735600391    2.59852661701068   -0.59983424802463
C        -2.92446986303790   -0.68361142138672   -1.82171723072719
C        -1.94667108473622   -1.40420732126591   -2.58300659443616
C        -1.54502931803217   -2.57065877032836   -1.81825022586049
C        -2.28931298225256   -2.56444353593485   -0.59111331485582
C        -3.14734752699734   -1.39324503664317   -0.58980398401177
C        -0.97519375958862   -0.70743558647385   -3.29962276424331
C        -0.99297323303149    0.74090275049662   -3.30488446318831
C         0.37285869621730    1.18392210171834   -3.30605853933481
C         1.21027907022093    0.00395065827832   -3.30280223800133
C         0.37569404952481   -1.14273116541225   -3.33069941222163
Cl       -2.10926467235268    0.29684819313138    5.20844169331003
Cl       -0.34957406330273   -2.10021013673957    5.21246020787375
Cl        1.19719396375368   -3.64416540058018   -4.12393275133762
63
 energy: -142.094919140303 gnorm: 0.002432388701 xtb: 6.4.1 (a3dbbd7)
C        -1.32475882336033    0.01044406142929    3.59885106044960
C        -0.38990600963763   -1.27394496300717    3.59918113925891
C         0.98647886058175   -0.72223733186520    3.29606143694417
C         0.96836661829996    0.69825080633349    3.26614891752094
C        -0.37712445593695    1.15157765049806    3.29936302835758
C         2.32780248019978   -2.57697310637711    0.57408039315438
C         3.16580055086949   -1.41291901944563    0.57892739304894
C         2.92149379957476   -0.68955105055096    1.80217421311951
C         1.93000567531446   -1.40130239968544    2.55883613100298
C         1.57245531149312   -2.58781794717073    1.79726388954178
C         3.17960117670993    1.42124270616442    0.57759384792591
C         2.33367670891626    2.58974606941384    0.58132459791466
C         1.57179788252815    2.57390843603050    1.80260218861871
C         1.94212859028475    1.40734357028938    2.54837623340344
C         2.93665814584710    0.69901461265364    1.80113598830707
C        -0.36865867483397    3.44931281865657    0.58509015665013
C        -1.74172776256967    3.01254459426246    0.58551679298991
C        -1.97818838054156    2.29051540370838    1.80923359725191
C        -0.73452983682909    2.25918161244409    2.56194160745373
C         0.24501986289220    2.98439721961276    1.80568855132587
C        -3.39608680041032    0.73186557536883    0.58128305695954
C        -3.37663448852121   -0.70241294580647    0.58222643842671
C        -2.74920471735737   -1.12605628012078    1.82621792271096
C        -2.39905996235949   -0.01038788237697    2.56299780290786
C        -2.77383297238887    1.16344106507074    1.80610859064890
C        -1.70421586492055   -3.00085988966553    0.58277496727879
C        -0.35125835673482   -3.45244362660964    0.57182955185879
C         0.25463899635951   -2.99961800737805    1.79938952815521
C        -0.74209368733160   -2.28959867815271    2.56369175781261
C        -1.91404022159395   -2.27744105220848    1.82777423530215
C        -0.24080767260705   -3.02574733474177   -1.83869658404601
C         0.80467623861149   -2.45115950718109   -2.76707106456119
C         1.99090166691741   -2.29620659493263   -1.84101156385952
C         1.74061618862520   -2.99222247234184   -0.62259822014852
C         0.37023510936756   -3.44072899098087   -0.62258744525786
C         2.77974364123619   -1.16663911953164   -1.82912688166452
C         2.41171417956414    0.01231753234180   -2.59043993180822
C         2.77965531910392    1.16734254757041   -1.82852452074534
C         3.39276996335198    0.72334078793626   -0.60265793177344
C         3.38726892577896   -0.71798859196909   -0.60159726142548
C         1.96669598199687    2.30331391912775   -1.82301372653093
C         0.73994249154943    2.30546658008634   -2.57947852446412
C        -0.25333223514265    3.02803250018378   -1.82332707374682
C         0.36184252466233    3.46270688520072   -0.59296734070216
C         1.73600324431012    3.01665190428505   -0.59909758756495
C        -1.57390460659547    2.60210777575507   -1.82573437363978
C        -1.95088712238680    1.43450138073975   -2.58322677093976
C        -2.94337540894313    0.71257747322594   -1.82439540194975
C        -3.18001958024496    1.43013291468462   -0.60409460934670
C        -2.33619137785665    2.59829547952831   -0.60005536365723
C        -2.92509900398330   -0.68381775387634   -1.82195793971177
C        -1.94782970725416   -1.40441664085963   -2.58323842240865
C        -1.54491747340104   -2.57068685242204   -1.81837337675701
C        -2.28863620008209   -2.56417907863561   -0.59113137238825
C        -3.14706826766983   -1.39324377885655   -0.58979720419783
C        -0.97482670619990   -0.70832217500303   -3.29893116831661
C        -0.99267068297374    0.74044732138039   -3.30411933268679
C         0.37285589507836    1.18336372569434   -3.30526625463156
C         1.21044843019165    0.00295796307482   -3.30210227828945
C         0.37578827595638   -1.14311355783137   -3.32754606587854
Cl       -2.10977211024576    0.29698492320900    5.20815806221753
Cl       -0.34920563827679   -2.09985812743173    5.21271333656996
Cl        1.19519670590006   -3.63723293462845   -4.12235559405228
63
 energy: -142.094930791722 gnorm: 0.001316384696 xtb: 6.4.1 (a3dbbd7)
C        -1.32469435376987    0.01034478693086    3.59853873766761
C        -0.38988146343722   -1.27402721009613    3.59890793834626
C         0.98650623546640   -0.72235388599444    3.29580418744774
C         0.96840344728188    0.69810320255565    3.26581619399420
C        -0.37706828416127    1.15145059229077    3.29906160646701
C         2.32806450619433   -2.57724175584423    0.57433811320927
C         3.16620391728277   -1.41310255319229    0.57901919617941
C         2.92164691366448   -0.68971202009884    1.80215052904160
C         1.93013791533021   -1.40147097085691    2.55877891432270
C         1.57257779179734   -2.58808286670643    1.79738356683583
C         3.17987516522318    1.42116351755179    0.57744293577053
C         2.33379910543766    2.58959044537019    0.58105508540827
C         1.57186505666264    2.57374727123486    1.80229478788158
C         1.94218100337793    1.40719635988774    2.54808810067436
C         2.93674717722631    0.69884875441102    1.80094369682955
C        -0.36860479205004    3.44906417782411    0.58476008800646
C        -1.74163761457638    3.01230240331657    0.58519425950996
C        -1.97811851428356    2.29029421727588    1.80889919069498
C        -0.73447320809637    2.25900209191346    2.56159762283285
C         0.24508017328873    2.98418844520755    1.80534504816963
C        -3.39614526035713    0.73167183433448    0.58103206408239
C        -3.37688575605492   -0.70265294571694    0.58211887932156
C        -2.74924027470427   -1.12624062612810    1.82606097197085
C        -2.39905037957290   -0.01053904246317    2.56276041638004
C        -2.77381191862830    1.16325291634262    1.80581929413898
C        -1.70446538731523   -3.00120812488488    0.58289319820053
C        -0.35132109910872   -3.45277411560266    0.57207085616154
C         0.25467745877617   -2.99989758864632    1.79948625491401
C        -0.74210594933656   -2.28979984240046    2.56361073038853
C        -1.91406387278421   -2.27761546288889    1.82774059704732
C        -0.24093661822471   -3.02498619764150   -1.83782249871669
C         0.80456129210603   -2.45078533567759   -2.76700028435083
C         1.99056922857340   -2.29552487235100   -1.84013581511336
C         1.74063758514172   -2.99222075175495   -0.62213617527861
C         0.37020974218741   -3.44073206622748   -0.62212466977930
C         2.77971723989926   -1.16638670262726   -1.82861046351974
C         2.41183085758971    0.01237844216583   -2.59029403146170
C         2.78011887165688    1.16735418577795   -1.82865848566108
C         3.39326600497183    0.72329925408717   -0.60275302297389
C         3.38779685681078   -0.71809429330093   -0.60147435509831
C         1.96692508906949    2.30323669850121   -1.82325756163256
C         0.74011673732168    2.30549036549096   -2.57982775021686
C        -0.25325646016522    3.02781171000066   -1.82359849102285
C         0.36190885857518    3.46245270575805   -0.59325481543417
C         1.73611831288001    3.01650007657874   -0.59938734110927
C        -1.57382891767711    2.60187986265608   -1.82599998383165
C        -1.95101948856490    1.43441266343850   -2.58356018544888
C        -2.94349838803993    0.71238695161331   -1.82463543462089
C        -3.18003231627142    1.42993760704312   -0.60437471414214
C        -2.33609983372587    2.59803461907789   -0.60033648511599
C        -2.92544938738895   -0.68406917503052   -1.82206111714596
C        -1.94792560868335   -1.40442372504475   -2.58306286317416
C        -1.54505191036205   -2.57048249436930   -1.81785544601468
C        -2.28899775948827   -2.56455061759516   -0.59099013320130
C        -3.14743021512072   -1.39354510830780   -0.58986867254870
C        -0.97490764204858   -0.70809226638926   -3.29855455670550
C        -0.99270683321850    0.74059062967930   -3.30443312452064
C         0.37282036907263    1.18351367017697   -3.30558519980313
C         1.21040934277711    0.00320138125531   -3.30174637082446
C         0.37565339311313   -1.14265712309818   -3.32645220723804
Cl       -2.10915531149355    0.29623069945048    5.20817465458512
Cl       -0.34967709576735   -2.09943268499058    5.21259638037093