63
 energy: -142.086504693301 gnorm: 0.139365860261 xtb: 6.4.1 (a3dbbd7)
C        -1.29585809770389    0.00401118895665    3.54517689253707
C        -0.36796043462932   -1.17243305037605    3.30515820978008
C         0.98298838983527   -0.72191219207564    3.27512267938171
C         0.98156472667820    0.71960753568128    3.26971969810914
C        -0.37066843460465    1.17924059903467    3.30150764336582
C         2.33648296603916   -2.58548060331365    0.57950289353032
C         3.18657767574002   -1.41946403927647    0.57781419519059
C         2.94957050639235   -0.69854930596759    1.80123308070154
C         1.95308396824160   -1.41752165468763    2.55613481575760
C         1.57961582989334   -2.57968580837377    1.80518673242103
C         3.18767024140451    1.40991878522763    0.57593180000620
C         2.33807592116844    2.57402574447607    0.57591940981122
C         1.57683795432701    2.56605672107525    1.79975339071644
C         1.95304946465436    1.40835201077487    2.55205927518980
C         2.95072023087345    0.68875745016373    1.80098024572921
C        -0.36516779407368    3.42666371337356    0.57921714423118
C        -1.72924376763824    3.01648005769000    0.58287705261872
C        -2.09463355992581    2.46231283092052    1.94730853815858
C        -0.73027134402217    2.28553619303067    2.58224921102021
C         0.24829448349984    2.97593693112150    1.80334175266563
C        -3.37466967425340    0.70300551354290    0.57574930054980
C        -3.39003092747716   -0.73268815647906    0.56838248265369
C        -2.76818811332164   -1.16356142379097    1.78871572221350
C        -2.38904763706855    0.02437925876362    2.53264263719760
C        -2.74834472563595    1.12995086275151    1.81420011519069
C        -1.73481952350512   -3.00995345714269    0.57938225060336
C        -0.36149853481650   -3.44686666227317    0.58178847315895
C         0.25217194581416   -2.99475012292755    1.80551621994623
C        -0.72930832442940   -2.27346636839910    2.56467955448571
C        -1.97147545426586   -2.28746259170963    1.79868366133100
C        -0.24419850626392   -3.01431906333444   -1.82647673840836
C         0.74940205407495   -2.29291975825760   -2.58286291053874
C         1.97453700933417   -2.29239152843074   -1.82543977586922
C         1.74139873400736   -3.01127177410490   -0.59946235558356
C         0.36858334367966   -3.45436466613801   -0.59762914044760
C         2.79442417392884   -1.17031401259636   -1.82833550603033
C         2.41574661888024   -0.00512369156855   -2.58546959716668
C         2.79806943075341    1.16104826420258   -1.83045397172065
C         3.41356646771945    0.71553904943849   -0.60565027142670
C         3.41126633561149   -0.72579612454708   -0.60436594395851
C         1.98256115248497    2.28538932455247   -1.82964816243281
C         0.75350030257848    2.28551308199782   -2.58573232036207
C        -0.23508280213456    3.00436687409655   -1.82344140492918
C         0.37359850932028    3.44286488622179   -0.60220138863872
C         1.74684322376492    3.00246743943424   -0.60372642363492
C        -1.55566653231806    2.56818250386052   -1.80941223575869
C        -1.93859434646944    1.40592010794080   -2.57168095880615
C        -2.93551210457882    0.68461262535792   -1.82146846772098
C        -3.16898901542976    1.39767486975662   -0.59605965548237
C        -2.30435127723071    2.57332623923171   -0.58497549467516
C        -2.94114405309208   -0.70773319324488   -1.83440725641731
C        -1.94505174577217   -1.42387954875747   -2.59102123506710
C        -1.56548890447542   -2.59170746585215   -1.83211639425372
C        -2.32839595515909   -2.59312664323360   -0.60918315818311
C        -3.17773883494341   -1.43218193772331   -0.61434027474195
C        -0.98775846759569   -0.72638522820754   -3.31322849837523
C        -0.98659864719709    0.71557045430270   -3.30737103326374
C         0.38544609985482    1.16109326139683   -3.31071431261235
C         1.23106807703669   -0.00470839638716   -3.31198800126459
C         0.38446650889097   -1.17000629330740   -3.31255499443923
Cl       -1.95494402230001   -0.00808767739961    5.23350834621500
Cl       -3.13453400437008    3.62205440029917    2.87428256883422
Cl       -4.44498485970817   -1.07131992586696   -2.77375145117100
63
 energy: -142.110419183051 gnorm: 0.062048583998 xtb: 6.4.1 (a3dbbd7)
C        -1.29478187776725    0.00275656847951    3.54496527441132
C        -0.36641735593748   -1.17352708079190    3.30575655412088
C         0.98369574710932   -0.72201662629474    3.27500516801795
C         0.98174764984850    0.71967839121717    3.26936944630092
C        -0.37063579878799    1.17875923903663    3.30063037506255
C         2.33958600523789   -2.58596127676956    0.58105221334748
C         3.18820743639249   -1.41963361957537    0.57884740187103
C         2.95099725939531   -0.69859947268157    1.80194071978149
C         1.95486502819442   -1.41753261128792    2.55683371268755
C         1.58264173926150   -2.58037306599072    1.80696615871198
C         3.18870954799667    1.40949843200133    0.57666605226788
C         2.33926278610570    2.57427843316108    0.57685851327828
C         1.57775151281811    2.56622019182635    1.80042474998640
C         1.95345335151032    1.40822025714762    2.55197965587108
C         2.95190733249767    0.68883648450195    1.80115814436356
C        -0.36202290264512    3.43012573338400    0.58134770073540
C        -1.72708493880863    3.02286799660931    0.58459373414442
C        -2.09456419126861    2.46401835585577    1.94665373872400
C        -0.73024519140388    2.28551308799491    2.58173574347953
C         0.24936849346201    2.97698955555793    1.80474533875166
C        -3.36970526749013    0.70726354759458    0.57872945799542
C        -3.37477948454760   -0.73380922034810    0.57411785787154
C        -2.76507063666318   -1.16775289863247    1.79677922474475
C        -2.38680497551374    0.02053662509468    2.53281212521718
C        -2.74660207806691    1.13072659870310    1.80945820068197
C        -1.73063040979187   -3.01435301819617    0.58830294013087
C        -0.35679394907432   -3.44946609114566    0.58491052131834
C         0.25633258365439   -2.99773556080833    1.80840410744368
C        -0.72623419873291   -2.27704093357228    2.56740467406820
C        -1.96890855808497   -2.29624248209108    1.80608333683821
C        -0.23543072942792   -3.01785082101295   -1.82604913658146
C         0.75479463173105   -2.29805477091930   -2.58260794917591
C         1.97871276807784   -2.29460845323331   -1.82394610509596
C         1.74579376435896   -3.01342933793438   -0.59798151629821
C         0.37357655817920   -3.45676820263857   -0.59568461629009
C         2.79625489359812   -1.17122381315920   -1.82720683584824
C         2.41650800786035   -0.00539050560963   -2.58404973199643
C         2.79923483473765    1.16117441991815   -1.82981140079614
C         3.41420670928998    0.71548727222024   -0.60532316403754
C         3.41247569960944   -0.72604735476352   -0.60390743476435
C         1.98428427711016    2.28715693655775   -1.82903105414347
C         0.75642467429306    2.28907818267716   -2.58391615327210
C        -0.23053459250895    3.01272393456607   -1.82252710862101
C         0.37720687577130    3.44682060998328   -0.59987923850652
C         1.74961367345386    3.00391104880094   -0.60235334947480
C        -1.55059149895167    2.58185790809061   -1.80751284445185
C        -1.93166514442917    1.41305671202130   -2.56104701842526
C        -2.94074653911863    0.71122934417962   -1.82287113214566
C        -3.15684985894830    1.40535391667885   -0.59857981723258
C        -2.30023291274552    2.58620792795577   -0.58477564343313
C        -3.03060399844760   -0.72905111011788   -1.88878583315368
C        -1.92905996614471   -1.42704908242600   -2.58608992831339
C        -1.55627174649831   -2.58497570444903   -1.82531091242970
C        -2.31974858846127   -2.58803037732721   -0.60179137118476
C        -3.16689740174841   -1.43610487631675   -0.59947422569208
C        -0.97807792170246   -0.72764566517856   -3.30217110406383
C        -0.98261219991218    0.71901767001789   -3.30337792094405
C         0.38591401442650    1.16141079171604   -3.30777733849851
C         1.23227599767045   -0.00552185009578   -3.31011581900960
C         0.39020457540382   -1.17320980941820   -3.31276540889774
Cl       -1.95517967425238   -0.00746190508911    5.23327323495863
Cl       -3.13396852795600    3.62311161555775    2.87451619823955
Cl       -4.56529339314539   -1.10699377830816   -2.84704450272454
63
 energy: -142.116457663517 gnorm: 0.014939876355 xtb: 6.4.1 (a3dbbd7)
C        -1.29250237995119    0.00237471213759    3.54351376551867
C        -0.36344041890173   -1.17446060138096    3.30762582374501
C         0.98618088769686   -0.72199758351838    3.27574753623210
C         0.98399960827829    0.71978824100479    3.26977623746955
C        -0.36837421320371    1.17853439586770    3.30056062378112
C         2.34421878704106   -2.58605300926021    0.58363274972749
C         3.19161025295269   -1.41947868857391    0.58113953517222
C         2.95443222175566   -0.69827723508016    1.80403010273721
C         1.95860209005035   -1.41740777120738    2.55887849080489
C         1.58716337279545   -2.58073557971382    1.80981099846749
C         3.19184655830694    1.40984033082327    0.57889269628639
C         2.34229235989842    2.57519173671784    0.57885039078695
C         1.58055758180590    2.56667093060258    1.80206614162593
C         1.95591620647731    1.40846981261415    2.55312039202988
C         2.95500768537615    0.68925495167469    1.80261023473734
C        -0.35829550788475    3.43334287816038    0.58348220012748
C        -1.72328026757729    3.02318180306287    0.58523516371203
C        -2.09181267473673    2.46396276512692    1.94615872080072
C        -0.72785876647209    2.28536002395634    2.58197010337283
C         0.25219793580822    2.97800520537055    1.80632843610855
C        -3.37003161856650    0.70992850694181    0.58066531741354
C        -3.36843677466425   -0.73548602705573    0.57045644512094
C        -2.75702375358711   -1.16596710105674    1.79408963419548
C        -2.38329952111915    0.01810627083817    2.53053545138491
C        -2.74410069465571    1.13099443816869    1.80142707000178
C        -1.72669972512452   -3.01212740293420    0.59175485209000
C        -0.35284922723412   -3.44889793624908    0.58723057074373
C         0.26120604536698   -2.99919086390936    1.81122864537698
C        -0.72258669670540   -2.27994105707146    2.57112403813632
C        -1.96328542925717   -2.29880177232964    1.80786471301792
C        -0.23144672394188   -3.01470397043519   -1.82338768326190
C         0.75689115671413   -2.29782933181944   -2.57746927227104
C         1.98329148227477   -2.29576406895991   -1.82185974363336
C         1.75014741139322   -3.01407446466550   -0.59549333196821
C         0.37730996490027   -3.45585394227638   -0.59364814478366
C         2.79921920755313   -1.17135629329116   -1.82507981607836
C         2.41760759303467   -0.00474839048129   -2.58123869256046
C         2.80167577747685    1.16193240888302   -1.82751646944262
C         3.41650355807297    0.71612641139844   -0.60346068007592
C         3.41487170281759   -0.72557445302083   -0.60215287137520
C         1.98682461475090    2.28858313973858   -1.82712399062750
C         0.75967352389449    2.29156007800797   -2.58131816686959
C        -0.22682755120906    3.01532789591444   -1.82039102279092
C         0.38127607705678    3.45041154310345   -0.59775445762921
C         1.75361672665084    3.00589718142435   -0.60003064469770
C        -1.54619927788357    2.58271087682098   -1.80530285272652
C        -1.93087395533718    1.40955369648470   -2.55343839801867
C        -2.93826752910764    0.71700257312095   -1.81909469189250
C        -3.15034726506069    1.40198532810273   -0.60474140330283
C        -2.29549933082051    2.58593206727078   -0.58440268086697
C        -3.11001129278832   -0.75095150426871   -1.93665079550363
C        -1.92946753894026   -1.42873528229513   -2.58686779408125
C        -1.55324087214684   -2.57187185376988   -1.82134133041234
C        -2.31641408341484   -2.57690955160386   -0.59883067880607
C        -3.16822063083646   -1.43819323231449   -0.59645582448683
C        -0.98046878871539   -0.72920639998678   -3.29483508575411
C        -0.98248237729673    0.72117710592513   -3.30330328396458
C         0.38411984980871    1.16129367055416   -3.30266485631436
C         1.23227122820310   -0.00497748447489   -3.30497746652015
C         0.38888142390769   -1.17103775121262   -3.30394348428504
Cl       -1.95633782057983   -0.00639298931109    5.23140365881009
Cl       -3.13264655455920    3.62178199815407    2.87317422287517
Cl       -4.65582170976799   -1.12685297152000   -2.90105268748809
63
 energy: -142.116768836054 gnorm: 0.008877282436 xtb: 6.4.1 (a3dbbd7)
C        -1.29106924635422    0.00202335885447    3.54187117030060
C        -0.36150765247792   -1.17478591506785    3.30827615480489
C         0.98810432544515   -0.72214433592585    3.27659720419127
C         0.98556339853252    0.71965164991411    3.27005515182270
C        -0.36696698860004    1.17800423424186    3.29996815932108
C         2.34675499791869   -2.58621634113712    0.58495080085215
C         3.19394926698524   -1.41948124881773    0.58245824035054
C         2.95662944513470   -0.69807112328566    1.80529209307807
C         1.96100103974074   -1.41757568413264    2.56030242629021
C         1.58959983111043   -2.58115639437161    1.81138241170491
C         3.19373173138009    1.41037643856920    0.58002908743931
C         2.34389966084543    2.57585608469162    0.57968701467405
C         1.58195945937567    2.56705032542866    1.80284131076145
C         1.95747175657068    1.40875119072149    2.55383992971398
C         2.95687254257560    0.68959697141160    1.80354057548412
C        -0.35707289726759    3.43381339437303    0.58386045793522
C        -1.72172093383003    3.02176897866372    0.58486878510983
C        -2.09059712827314    2.46327903624075    1.94565416536062
C        -0.72669775954152    2.28467350806709    2.58147103425622
C         0.25341411127721    2.97829637790545    1.80674992574465
C        -3.37263540486425    0.71063102051783    0.58202559887840
C        -3.37093801211684   -0.73632198742571    0.56765541466247
C        -2.75353695319802   -1.16454225029395    1.79043708971947
C        -2.38124139274390    0.01723184612999    2.52840669833685
C        -2.74404029293110    1.13095429276417    1.79914300527215
C        -1.72502948925055   -3.00951170097682    0.59097236660322
C        -0.35136464265217   -3.44737246676078    0.58793823744624
C         0.26342748159574   -2.99947231077592    1.81245149161935
C        -0.72082346377969   -2.28058022101996    2.57231948966316
C        -1.96090842208645   -2.29825567812314    1.80717452758671
C        -0.23185037760536   -3.01159980649004   -1.82110998559908
C         0.75650395200026   -2.29608191489390   -2.57430447510398
C         1.98469371912196   -2.29536037472263   -1.82049200790985
C         1.75189461041264   -3.01376899781388   -0.59418356554253
C         0.37837189800086   -3.45395350327700   -0.59251191987131
C         2.80038067927553   -1.17090616397922   -1.82350913828263
C         2.41761313999633   -0.00429645635814   -2.57928882860319
C         2.80299338411026    1.16238179979460   -1.82626720339856
C         3.41813676777815    0.71657811168658   -0.60235700210852
C         3.41668542872501   -0.72521052889149   -0.60097941427345
C         1.98801325731243    2.28887758038310   -1.82624903162076
C         0.76079902057902    2.29194929548568   -2.58041817389244
C        -0.22594300353204    3.01461238139277   -1.81943723814472
C         0.38258974365527    3.45106374611157   -0.59726461909036
C         1.75527724602450    3.00676097688060   -0.59924869903858
C        -1.54497043674570    2.57976134527781   -1.80455233403613
C        -1.93285352725837    1.40663267277498   -2.55350737992298
C        -2.93781865034648    0.71325229085748   -1.81823978934668
C        -3.15159812448456    1.39875916619318   -0.60734803219813
C        -2.29375937526540    2.58249477229004   -0.58417559832085
C        -3.12833995222337   -0.75752817159364   -1.94741774463841
C        -1.93687154353912   -1.43034382666857   -2.59149950759713
C        -1.55467191392514   -2.56791933949624   -1.82140311465664
C        -2.31760374713168   -2.57363931952605   -0.59921029179303
C        -3.17592551850661   -1.43981814979997   -0.59982021889580
C        -0.98479577338795   -0.72976737114775   -3.29540056041874
C        -0.98312552718509    0.72192015035004   -3.30512363315298
C         0.38327797086471    1.16157023456482   -3.30098297028990
C         1.23120652011483   -0.00445927818282   -3.30135706994551
C         0.38620969813494   -1.16915990855333   -3.29867740472498
Cl       -1.95863403493157   -0.00522514744997    5.22877079171885
Cl       -3.13082600351544    3.62112117232508    2.87279242091531
Cl       -4.67032597497072   -1.12474207498010   -2.90888961927909
63
 energy: -142.116885721387 gnorm: 0.004596278285 xtb: 6.4.1 (a3dbbd7)
C        -1.29033333938127    0.00165176553076    3.54066290514386
C        -0.36054504379621   -1.17510230588274    3.30875302621213
C         0.98904587954783   -0.72237046755211    3.27712797720547
C         0.98616821734014    0.71940151566236    3.27000293699035
C        -0.36646284961175    1.17751560852688    3.29944743469002
C         2.34812625844489   -2.58656014145903    0.58550453617634
C         3.19505878227505   -1.41962850602951    0.58295092217679
C         2.95750145217101   -0.69805198431342    1.80571696668536
C         1.96211235178367   -1.41784219264995    2.56099410349671
C         1.59081493398101   -2.58168346104878    1.81222479424925
C         3.19435103215540    1.41061038094414    0.58030343953058
C         2.34428164152324    2.57613137488564    0.57980439804743
C         1.58222892102876    2.56714868089285    1.80299752100729
C         1.95792291485487    1.40880830987686    2.55393643676896
C         2.95743497756047    0.68967316569876    1.80368420357646
C        -0.35689036640817    3.43375617697134    0.58386609297855
C        -1.72128930673069    3.02077324246641    0.58462148772194
C        -2.09042823193423    2.46299975991219    1.94559683460434
C        -0.72650118584810    2.28410511856539    2.58113594605370
C         0.25358203065214    2.97836861249475    1.80687978087809
C        -3.37480209680914    0.71143736877997    0.58399995787076
C        -3.37238344846492   -0.73656557436516    0.56620278352496
C        -2.75131610622940   -1.16374325386251    1.78816305599551
C        -2.38003762725097    0.01651878880711    2.52705293086478
C        -2.74511960119198    1.13124532828418    1.79875228053108
C        -1.72366139532083   -3.00766552082840    0.59031941658487
C        -0.35045734201772   -3.44645121892521    0.58833584112200
C         0.26454316357951   -2.99988917582814    1.81335091992138
C        -0.71990921895239   -2.28113511396147    2.57324635100528
C        -1.95971675788733   -2.29803214345833    1.80700905751477
C        -0.23202070196544   -3.00956027235856   -1.81944490013014
C         0.75640289927737   -2.29512017890988   -2.57273639433352
C         1.98562506194399   -2.29522756648432   -1.81992081310472
C         1.75298351459283   -3.01378537163674   -0.59372360838022
C         0.37900717944027   -3.45277484074612   -0.59184148597733
C         2.80092356772356   -1.17064287866725   -1.82278911728032
C         2.41756445885738   -0.00411980348556   -2.57855943041937
C         2.80356558422992    1.16260045497880   -1.82593584181858
C         3.41886272534556    0.71676440662447   -0.60205717267286
C         3.41765824088944   -0.72506211524981   -0.60057323697794
C         1.98847484748025    2.28895484535190   -1.82612787819942
C         0.76132142375854    2.29212108914389   -2.58038070447464
C        -0.22576440613429    3.01396961667405   -1.81915804251644
C         0.38279755049982    3.45111807662220   -0.59722764298391
C         1.75578009624980    3.00718461780271   -0.59918920645099
C        -1.54428462313035    2.57740352232606   -1.80400207796609
C        -1.93389758293809    1.40443028988764   -2.55396692487688
C        -2.93614093323732    0.70952732573338   -1.81684764430140
C        -3.15267081501018    1.39615416682445   -0.60868414427815
C        -2.29264236208794    2.57979389905396   -0.58390803516841
C        -3.13682760318059   -0.76110624659053   -1.95240918452303
C        -1.94151473188526   -1.43104015991558   -2.59434253757931
C        -1.55509025408176   -2.56548433745812   -1.82128641095678
C        -2.31776046580696   -2.57153937948028   -0.59922104951510
C        -3.18060897260838   -1.44038556835600   -0.60208983435583
C        -0.98706679311044   -0.72995670807004   -3.29584346477501
C        -0.98301097739529    0.72256724777206   -3.30695797592496
C         0.38304225308246    1.16189123649176   -3.30080020936886
C         1.23043836011759   -0.00422489936410   -3.29932115022326
C         0.38459475392924   -1.16820877239121   -3.29559707383738
Cl       -1.96131551685977   -0.00426594220540    5.22671996610467
Cl       -3.12917062361822    3.62161672659420    2.87299607169033
Cl       -4.67161187335806   -1.11859020572293   -2.90886052363200
63
 energy: -142.116925676829 gnorm: 0.002286566364 xtb: 6.4.1 (a3dbbd7)
C        -1.29034572442214    0.00143632631456    3.54023921855270
C        -0.36055852118983   -1.17527599919239    3.30892130193219
C         0.98901459617832   -0.72248640318722    3.27716886679239
C         0.98600608758703    0.71924701408368    3.26978855334633
C        -0.36665575995170    1.17727330326782    3.29919568021969
C         2.34825643758253   -2.58671869749306    0.58542415973083
C         3.19497364436323   -1.41968689663633    0.58282551827925
C         2.95732803709305   -0.69806444708650    1.80555227832183
C         1.96205162783269   -1.41794367457103    2.56093996719776
C         1.59086856195968   -2.58190855132769    1.81226877287196
C         3.19403752897329    1.41060660504919    0.58007083078934
C         2.34387985388025    2.57609657407162    0.57957383192444
C         1.58183381950014    2.56706640275487    1.80279322786926
C         1.95763241082528    1.40875807061361    2.55370203059614
C         2.95713715276667    0.68963997263947    1.80341818737603
C        -0.35727142842635    3.43350113005120    0.58371646375017
C        -1.72164771699866    3.02044189888999    0.58456998156832
C        -2.09088173451181    2.46303844682141    1.94582912061424
C        -0.72686940197528    2.28387901436588    2.58105541236985
C         0.25317950748209    2.97827991718060    1.80679918277140
C        -3.37562897233771    0.71189038733758    0.58523354982642
C        -3.37219914175218   -0.73648991057759    0.56601566166819
C        -2.75065573331814   -1.16366764118559    1.78765801767635
C        -2.37996490780550    0.01611958224671    2.52676296265991
C        -2.74631279478072    1.13154189534439    1.79927935474316
C        -1.72313408244476   -3.00732339507547    0.59017068610349
C        -0.35024372960331   -3.44641320193990    0.58839798103591
C         0.26464512886816   -3.00018394635271    1.81362635055844
C        -0.71982107564200   -2.28148046040376    2.57360662593704
C        -1.95959652089325   -2.29826271128874    1.80724989110282
C        -0.23190694250130   -3.00924834903927   -1.81899788314769
C         0.75654598217119   -2.29515205215830   -2.57272937089446
C         1.98590974366255   -2.29537166129731   -1.82002352474078
C         1.75324355627416   -3.01394697812889   -0.59387733458194
C         0.37916616793579   -3.45264737498771   -0.59176604269493
C         2.80088170791431   -1.17062411655968   -1.82283298299206
C         2.41751363974088   -0.00416869364260   -2.57881647198518
C         2.80343327968198    1.16260635382052   -1.82617683896048
C         3.41872331062530    0.71676934559295   -0.60225833768493
C         3.41765033686326   -0.72503747028609   -0.60072326554704
C         1.98829981236732    2.28890796679152   -1.82638565347738
C         0.76128299384254    2.29209601577918   -2.58073349219640
C        -0.22599143293893    3.01378364630542   -1.81935897355655
C         0.38239340011208    3.45089786157984   -0.59738163822699
C         1.75547148691206    3.00717761858355   -0.59942843784138
C        -1.54421550086867    2.57670794964592   -1.80383829159656
C        -1.93377807370256    1.40358993236787   -2.55396714657840
C        -2.93434912119105    0.70781297749559   -1.81557103069828
C        -3.15273696624562    1.39506314111998   -0.60886535156125
C        -2.29242198445796    2.57896066911811   -0.58382842046563
C        -3.13841958554549   -0.76191572391562   -1.95341153245057
C        -1.94207795307716   -1.43094064595864   -2.59455212419855
C        -1.55468814933742   -2.56485423909278   -1.82102292980897
C        -2.31718620288990   -2.57092627814211   -0.59894511803319
C        -3.18095727624008   -1.44011475542592   -0.60243456744394
C        -0.98713446034660   -0.73002042361677   -3.29568091757127
C        -0.98263241108929    0.72274857370890   -3.30768770463377
C         0.38313435084941    1.16196912312853   -3.30140223758042
C         1.23024719120911   -0.00430269585897   -3.29920076478531
C         0.38431814183689   -1.16825618371140   -3.29510403316941
Cl       -1.96263546487718   -0.00390677621746    5.22617071322360
Cl       -3.12840763320469    3.62266654828623    2.87312182587564
Cl       -4.66677117225142   -1.11280749707528   -2.90558712826026
63
 energy: -142.116936044680 gnorm: 0.001162292229 xtb: 6.4.1 (a3dbbd7)
C        -1.29057842592205    0.00138180953071    3.54030114848200
C        -0.36086376874258   -1.17531264874437    3.30889588984248
C         0.98870500495869   -0.72248355724597    3.27702007806673
C         0.98571120187358    0.71923615861103    3.26965410679521
C        -0.36695236282846    1.17724711673685    3.29915182371269
C         2.34794454636810   -2.58666450655551    0.58522709742677
C         3.19458969287250   -1.41963429503139    0.58262468520388
C         2.95697471582406   -0.69803531620397    1.80534656081107
C         1.96169805599051   -1.41789615338912    2.56070274753859
C         1.59056894276092   -2.58185605311455    1.81204486186859
C         3.19364661290330    1.41056658306211    0.57986103707451
C         2.34349178924006    2.57601180105044    0.57940669828735
C         1.58148214517177    2.56699924506579    1.80261016055459
C         1.95730804110904    1.40873873860143    2.55353647944754
C         2.95679827522933    0.68964279358208    1.80323433156188
C        -0.35758800560609    3.43336323831560    0.58359147306280
C        -1.72205066451949    3.02047353220850    0.58458175622761
C        -2.09126991397174    2.46310550485261    1.94598482324972
C        -0.72719999203710    2.28388939512815    2.58107502541883
C         0.25284366503418    2.97819142093465    1.80667303554797
C        -3.37557506486576    0.71190150058402    0.58543937157203
C        -3.37164283828024   -0.73645538537428    0.56629301351772
C        -2.75083178998749   -1.16387363050411    1.78799560175248
C        -2.38034502492856    0.01600288642749    2.52701512080905
C        -2.74684134476667    1.13160837290914    1.79970172229304
C        -1.72323215478104   -3.00776889960004    0.59029346868790
C        -0.35036070426501   -3.44672654100122    0.58832175273229
C         0.26441942735605   -3.00025611053565    1.81351797176199
C        -0.72001714815393   -2.28157660829168    2.57354363232333
C        -1.95983968051372   -2.29855325516857    1.80747223713142
C        -0.23177550717970   -3.00976204194729   -1.81925618571184
C         0.75667656776090   -2.29550461455199   -2.57319294361208
C         1.98581869816644   -2.29552214991039   -1.82024708193194
C         1.75309762596301   -3.01403319301475   -0.59408383344695
C         0.37909596183859   -3.45296795017008   -0.59192658759112
C         2.80069309544556   -1.17069108544176   -1.82306000542252
C         2.41748776878621   -0.00425147348790   -2.57919339611018
C         2.80315650899560    1.16255433989142   -1.82641880458824
C         3.41839542375842    0.71674774931314   -0.60245566627194
C         3.41733185826061   -0.72503179360277   -0.60092111462517
C         1.98801113845173    2.28885692198335   -1.82658451199555
C         0.76107397460554    2.29200112060169   -2.58097512620079
C        -0.22620253023728    3.01386122933253   -1.81961562244332
C         0.38205930086927    3.45075665742550   -0.59750884470014
C         1.75509792196968    3.00704392689378   -0.59958647499680
C        -1.54442332348020    2.57702558822116   -1.80394731076661
C        -1.93330767397528    1.40367820534068   -2.55372858454459
C        -2.93346728793863    0.70776030712682   -1.81497395740737
C        -3.15235785449223    1.39510252851164   -0.60856982334035
C        -2.29268951053628    2.57929316532165   -0.58391538996185
C        -3.13767474588201   -0.76155541766596   -1.95304136722363
C        -1.94099978049672   -1.43077876275378   -2.59382517070653
C        -1.55433875201006   -2.56527156302037   -1.82090610464192
C        -2.31680563474959   -2.57125373512082   -0.59876783029859
C        -3.17971894286449   -1.43984661800903   -0.60192729407232
C        -0.98653307095689   -0.73012162508805   -3.29546551866535
C        -0.98247937956684    0.72259278921645   -3.30758534397149
C         0.38323023328363    1.16186452153551   -3.30187347544265
C         1.23037781691788   -0.00445286280176   -3.29980547658118
C         0.38462335332159   -1.16861118879345   -3.29572991456826
Cl       -1.96252512744860   -0.00393415297749    5.22656665810893
Cl       -3.12841071895093    3.62328161964414    2.87301070938746