84
 energy: -170.435773645065 gnorm: 261.558210610098 xtb: 6.4.1 (a3dbbd7)
C         0.13293917000000   -0.07477780000000   -4.29119095000000
C         0.12047370000000    1.21432875000000   -3.81178367000000
C        -1.24315610000000    1.55881788000000   -3.41767374000000
C        -1.22931183000000   -0.61058197000000   -4.09185769000000
C        -2.02478480000000    0.38011922000000   -3.41750216000000
C        -1.06742081000000   -1.85937582000000   -3.54062925000000
C         1.09283859000000   -0.99993465000000   -3.77281545000000
C         0.35765544000000   -2.18027827000000   -3.47002079000000
C         2.09238584000000   -0.55543755000000   -2.85837836000000
C         1.00573009000000    1.64952054000000   -2.77192862000000
C         2.03098145000000    0.79999507000000   -2.30328303000000
C        -1.14501919000000    2.37387245000000   -2.28172756000000
C         0.23538833000000    2.46476272000000   -1.86686912000000
C        -2.11304088000000    2.23296837000000   -1.29897219000000
C        -2.75993964000000    0.02714769000000   -2.23793841000000
C        -2.95920943000000    1.07311404000000   -1.29854367000000
C        -1.66931270000000   -2.21455276000000   -2.29060199000000
C        -2.58604421000000   -1.31267851000000   -1.68405642000000
C         0.55462518000000   -2.88334382000000   -2.26915511000000
C        -0.68450434000000   -2.89806228000000   -1.51152017000000
C         2.56123082000000   -1.56972987000000   -1.97836302000000
C         1.73474404000000   -2.68823683000000   -1.58850042000000
C         3.27584409000000   -1.20220066000000   -0.83368558000000
C         2.53142854000000    1.10805403000000   -0.97561543000000
C         3.32536009000000    0.12396448000000   -0.33728584000000
C         0.57151354000000    2.62273884000000   -0.51836118000000
C         1.84483756000000    2.06989086000000   -0.11733266000000
C        -1.80568098000000    2.60984284000000    0.04090997000000
C        -0.47940676000000    2.85220153000000    0.46306795000000
C        -3.28066129000000    0.82792382000000    0.07673708000000
C        -2.71153796000000    1.88760745000000    0.88835306000000
C        -2.72078151000000   -1.49361630000000   -0.29275777000000
C        -3.22441139000000   -0.46268967000000    0.57271320000000
C        -0.64496473000000   -2.81925151000000   -0.09794472000000
C        -1.78825802000000   -2.24316514000000    0.47924202000000
C         1.78458153000000   -2.80477374000000   -0.14065086000000
C         2.90420179000000   -2.05669651000000    0.26634815000000
C         0.60771252000000   -2.76432686000000    0.64353142000000
C         3.36486434000000    0.01578201000000    1.08843005000000
C         2.92050310000000   -1.31673266000000    1.45294503000000
C         2.11907105000000    2.10507009000000    1.25939162000000
C         2.94195066000000    1.07565258000000    1.86171824000000
C        -0.20073488000000    2.77495947000000    1.88126202000000
C         1.15715541000000    2.53376744000000    2.24985783000000
C        -2.41025117000000    1.69644093000000    2.20798352000000
C        -1.22252018000000    2.30958003000000    2.77047473000000
C        -2.74297580000000   -0.70276157000000    1.90165586000000
C        -1.76758319000000   -1.75208748000000    1.82681323000000
C        -2.54391024000000    0.36555616000000    2.77676613000000
C         0.66084227000000   -2.14918317000000    1.96526699000000
C         1.88196038000000   -1.49879034000000    2.40106068000000
C        -0.58240845000000   -1.73984427000000    2.59453713000000
C         2.43949228000000    0.79248824000000    3.13818577000000
C         1.45250759000000    1.82461015000000    3.44946743000000
C         1.83617424000000   -0.47179345000000    3.40044021000000
C        -0.88250559000000    1.50932519000000    3.89492643000000
C        -1.56417340000000    0.23283641000000    3.76396908000000
C        -0.56541157000000   -0.79851783000000    3.69472831000000
C         0.44842284000000    1.23479373000000    4.20894711000000
C         0.64550460000000   -0.22431173000000    4.12021556000000
C        -2.62865231179838   -3.52660088169540    0.70066950531171
F        -1.92070601588488   -4.63028871258934    0.47799212873523
F        -3.68405050290317   -3.57659885049451   -0.10712679409099
F        -3.09160093188407   -3.61054484287224    1.94466789218474
C         1.65933960040030    3.96123184659466    2.58550110315966
F         1.72775582398032    4.73243474557426    1.50408290978741
F         2.87438539201349    3.94763114318711    3.12622168271061
F         0.86013875955834    4.58014767587539    3.44986284008654
C        -2.54225419441593   -2.89002660245386    2.53918910585920
F        -2.31988810019824   -4.07351653696720    1.97456100254872
F        -2.19690408044263   -3.00282514020500    3.81860685962840
F        -3.85699330278080   -2.69106406420664    2.51135054788324
C        -0.83992987620404   -3.02769180920022    3.41772084632448
F        -0.82701695060028   -4.11731985445869    2.65519610617597
F        -2.02038648936938   -3.00004387397272    4.02981379360607
F         0.07928335679909   -3.20759579994373    4.36195682656803
C         0.88972797101430   -0.71292594721325    5.57077100250728
F         0.95616071534237   -2.03917746204539    5.64522642465033
F         2.02881662479243   -0.24170639446403    6.07009972383299
F        -0.08028641848389   -0.32906950032086    6.39577179786786
C        -3.92639970649163   -2.46743445594712   -0.26700969364412
F        -3.64900615894676   -3.58633168454239    0.39633170535213
F        -4.99121711096489   -1.92669284944923    0.31836404178727
F        -4.30156538307057   -2.82834129901337   -1.49089570375496
84
 energy: -218.034945255889 gnorm: 16.694303248342 xtb: 6.4.1 (a3dbbd7)
C         0.13292305983383   -0.07479876194864   -4.29119425136208
C         0.12047255387483    1.21434886591841   -3.81176532288980
C        -1.24314415749085    1.55882754520128   -3.41767699164046
C        -1.22930395615090   -0.61055184951175   -4.09186703436895
C        -2.02478608969439    0.38010333659882   -3.41750281116358
C        -1.06741531231053   -1.85939959027468   -3.54060184298473
C         1.09282937557022   -0.99993221492465   -3.77281395373183
C         0.35764408007336   -2.18029400824555   -3.47002137897975
C         2.09238670870169   -0.55543715196747   -2.85837349440948
C         1.00572961176296    1.64952070160652   -2.77194307535827
C         2.03097961341552    0.79999667598017   -2.30328263367610
C        -1.14502648699395    2.37387290052477   -2.28172196735504
C         0.23538988800195    2.46476219671125   -1.86685972608955
C        -2.11303744080953    2.23297081987186   -1.29897035868217
C        -2.75992097970470    0.02713936107086   -2.23794123030449
C        -2.95922789165537    1.07312144335529   -1.29852407143746
C        -1.66932087525776   -2.21455119061226   -2.29063575770206
C        -2.58598106540692   -1.31259196364251   -1.68417578486045
C         0.55461273394402   -2.88334642210969   -2.26915713749562
C        -0.68447537315928   -2.89806133884874   -1.51151234923586
C         2.56123707003935   -1.56972125934182   -1.97835301631254
C         1.73474496729073   -2.68824386939513   -1.58847276131500
C         3.27585147950512   -1.20220797591169   -0.83368765306037
C         2.53143198193128    1.10805557754223   -0.97561438698777
C         3.32535536552746    0.12396351794503   -0.33729086673385
C         0.57151374747934    2.62273889965934   -0.51837115953497
C         1.84484106566599    2.06988220559369   -0.11732411880000
C        -1.80570255130142    2.60984128239660    0.04091634118605
C        -0.47939988120953    2.85219999149190    0.46309513664655
C        -3.28064454266815    0.82795439709412    0.07670756813386
C        -2.71153003440718    1.88761745591537    0.88833703887759
C        -2.72083487629618   -1.49344507502390   -0.29281104254504
C        -3.22439491094924   -0.46256300466052    0.57272452223684
C        -0.64479642023476   -2.81922017705954   -0.09801404536780
C        -1.78813513917200   -2.24327244622033    0.47918697114938
C         1.78456856147997   -2.80478631734456   -0.14067345001789
C         2.90421548721230   -2.05667703153405    0.26635079147092
C         0.60772990053106   -2.76430454325708    0.64353758414143
C         3.36486638854150    0.01577061997751    1.08842961363915
C         2.92051607446194   -1.31673070524804    1.45293034032628
C         2.11914047254608    2.10497576714087    1.25932378398197
C         2.94193533710131    1.07568308920019    1.86167927641166
C        -0.20088212494995    2.77491051006057    1.88120936313095
C         1.15722633599481    2.53394951405000    2.24989118385601
C        -2.41024016919784    1.69645093043362    2.20799098112187
C        -1.22251898221178    2.30959072930957    2.77043341383445
C        -2.74300989115556   -0.70267616866502    1.90161181080320
C        -1.76753207449201   -1.75172587002163    1.82668323198239
C        -2.54390820096007    0.36561266889052    2.77678664565595
C         0.66093798615651   -2.14917211757061    1.96517145345423
C         1.88196099085155   -1.49874548764704    2.40108427911264
C        -0.58221273909041   -1.73961234469469    2.59449208652874
C         2.43942935338513    0.79248342017764    3.13819621285165
C         1.45252861393925    1.82449931919139    3.44955664497191
C         1.83627223597241   -0.47182408797591    3.40033485555706
C        -0.88250543126124    1.50931864205906    3.89493976381328
C        -1.56421802877678    0.23288100241726    3.76397576302024
C        -0.56554139498633   -0.79861705326136    3.69475148583884
C         0.44842174014370    1.23486234083564    4.20889774811704
C         0.64555317796111   -0.22431923998782    4.12039316468618
C        -2.62670568064067   -3.52580585610193    0.69955415725742
F        -1.92047081052571   -4.63078322741521    0.47763317608721
F        -3.68904821064385   -3.57574133375498   -0.16767711151652
F        -3.09391446985897   -3.61108383840659    1.94501964310424
C         1.65934154845709    3.96123971171142    2.58548817068214
F         1.72775987806926    4.73246452737368    1.50406795548034
F         2.87440981594161    3.94764398474828    3.12623276635907
F         0.86012902962716    4.58016948576594    3.44988458052994
C        -2.54017090362464   -2.88871023377726    2.54090120811074
F        -2.31773775033000   -4.07656808546666    1.97477191533692
F        -2.43383982154236   -3.00631289517426    3.53966483002520
F        -3.85980084633084   -2.68978739565819    2.51206053329933
C        -0.83952795670373   -3.02755050458543    3.41797368742740
F        -0.82651412913840   -4.11776738422921    2.65532088590820
F        -1.78442634494916   -2.99622534647678    4.30855896306759
F         0.07974947953056   -3.20781653705320    4.36220778403943
C         0.88978958520993   -0.71286221087672    5.57073338476887
F         0.95619723120064   -2.03917494485878    5.64533487601753
F         2.02882705002689   -0.24170794657663    6.07012207854991
F        -0.08033418696841   -0.32908168586504    6.39581593704317
C        -3.92653879970078   -2.46645807118476   -0.26763290115160
F        -3.64575468292111   -3.58860491838205    0.45654593754409
F        -4.99137203569985   -1.92676297515250    0.31844385073568
F        -4.30189518596525   -2.82813994074152   -1.49156605576389
84
 energy: -221.355084670003 gnorm: 2.914790983450 xtb: 6.4.1 (a3dbbd7)
C         0.13272425449904   -0.07507722819639   -4.29125817927629
C         0.12045946849784    1.21455248317162   -3.81150951404676
C        -1.24312915225357    1.55888586712880   -3.41772154657890
C        -1.22913769559432   -0.61028559336185   -4.09192239173946
C        -2.02483613825332    0.38002287455161   -3.41746668582476
C        -1.06722590357195   -1.85961819453002   -3.54038568059830
C         1.09266629797779   -0.99986770362906   -3.77280969471228
C         0.35740472632636   -2.18059534927919   -3.47005905240247
C         2.09234521050478   -0.55537267290824   -2.85834974204379
C         1.00570741621324    1.64954584836587   -2.77218213655755
C         2.03089082704648    0.79998006370885   -2.30333884586811
C        -1.14513018893863    2.37387956038813   -2.28160815217187
C         0.23536500228321    2.46473950273761   -1.86675775263376
C        -2.11305496805122    2.23289270651147   -1.29898200090615
C        -2.75962077331432    0.02695262467545   -2.23804078078163
C        -2.95951425805919    1.07328532415525   -1.29818200657255
C        -1.66941822904542   -2.21459489550738   -2.29086379136123
C        -2.58481346049807   -1.31098326538641   -1.68639793044398
C         0.55441700226937   -2.88332772753172   -2.26924928524225
C        -0.68412754058222   -2.89797969645391   -1.51166820736684
C         2.56132898107261   -1.56960315580642   -1.97813719413637
C         1.73472110582720   -2.68834264868190   -1.58807381092642
C         3.27600617481870   -1.20233575620726   -0.83379907115702
C         2.53149300988220    1.10808349124421   -0.97557240612066
C         3.32526173534091    0.12394818718834   -0.33743352588874
C         0.57146521910160    2.62277577878078   -0.51848713877449
C         1.84492490785171    2.06971359578549   -0.11721838515832
C        -1.80607092838091    2.60977717582612    0.04112423256025
C        -0.47929278575743    2.85216065279967    0.46340257632270
C        -3.28054389348414    0.82855504051794    0.07627426353705
C        -2.71134358175156    1.88785624884191    0.88815168638543
C        -2.72199608975782   -1.49121686812321   -0.29381907612691
C        -3.22391019882998   -0.46044183423850    0.57337534216940
C        -0.64185495070317   -2.81866724083516   -0.09912496405857
C        -1.78653065168562   -2.24540958211815    0.47788863259889
C         1.78439584298298   -2.80491851703411   -0.14103429655276
C         2.90435180255059   -2.05635829085685    0.26630907412103
C         0.60798454341680   -2.76401357299625    0.64346864961785
C         3.36487554455148    0.01557129735876    1.08840357578088
C         2.92072539279227   -1.31660527850565    1.45273214266176
C         2.12028626616589    2.10340299608740    1.25813622003945
C         2.94170797404541    1.07616626690218    1.86100683588031
C        -0.20338282305206    2.77401266318789    1.88040945852489
C         1.15844313978034    2.53704705457912    2.25046995999269
C        -2.41010264157159    1.69660785625476    2.20806102624914
C        -1.22247662515562    2.30972641175787    2.76975031149182
C        -2.74368208175714   -0.70108204629788    1.90083073065532
C        -1.76828451578814   -1.74825533532248    1.82620513169046
C        -2.54393576125030    0.36647044125656    2.77724154495909
C         0.66226786809267   -2.14955290996199    1.96421440967659
C         1.88221045056361   -1.49791239235019    2.40155469205629
C        -0.57962503766478   -1.73686953963787    2.59498356741221
C         2.43837209185487    0.79233756071184    3.13832047891535
C         1.45290636114083    1.82264371759038    3.45099796713038
C         1.83786940263894   -0.47226182432651    3.39851358968246
C        -0.88244824798517    1.50922145613098    3.89529250305566
C        -1.56425682386315    0.23345474425041    3.76365953751485
C        -0.56734576793471   -0.79898126982821    3.69466421406280
C         0.44830035647400    1.23592852520372    4.20794312316329
C         0.64636408143251   -0.22457622338690    4.12362574475378
C        -2.59678409708821   -3.51796124945919    0.68294616148708
F        -1.91684477643398   -4.63780493382389    0.47170449027361
F        -3.71933015845178   -3.57911566611972   -0.48738847296515
F        -3.12140737487353   -3.62323789749600    1.95353096977040
C         1.65946721902039    3.96166339651003    2.58537492176780
F         1.72781406058388    4.73292654028097    1.50380720824946
F         2.87477470365527    3.94783992158336    3.12634726350043
F         0.86000524293276    4.58048002583088    3.45017534643916
C        -2.53482248086830   -2.86784177296229    2.52756124285461
F        -2.28548486219503   -4.11295439434520    1.98685376587095
F        -2.42545913503420   -3.01021020227197    3.58812067185210
F        -3.88365235199279   -2.66655130783147    2.52374964846281
C        -0.82813945920720   -3.02733623773243    3.41419060295084
F        -0.81689384111956   -4.12226504142175    2.65900801978586
F        -1.80218376885365   -2.99675606950118    4.30329311551420
F         0.08101077821751   -3.20974671755009    4.36090918618368
C         0.89034445053766   -0.71221601450121    5.57063555293611
F         0.95710754263509   -2.03872886771157    5.64703705611109
F         2.02911064716038   -0.24165494854675    6.07042073532200
F        -0.08073783439403   -0.32916929922396    6.39625887789660
C        -3.93234134946895   -2.45237432429818   -0.27937061699604
F        -3.64338081745095   -3.60648304243283    0.76480010928147
F        -4.99316335532109   -1.92789963213523    0.31973909895937
F        -4.30840898598930   -2.82204483001544   -1.50333729706356
84
 energy: -222.720326504317 gnorm: 2.166876639242 xtb: 6.4.1 (a3dbbd7)
C         0.13291207818845   -0.07620355760382   -4.29146884800959
C         0.12139730337702    1.21507771042762   -3.81057902647735
C        -1.24191981288411    1.55952185881642   -3.41739634295205
C        -1.22783646186099   -0.60921693436106   -4.09179134521719
C        -2.02460851742061    0.37901174519366   -3.41837495020615
C        -1.06621945543247   -1.86089476192668   -3.53974896831023
C         1.09187120261567   -1.00016562648722   -3.77260375448816
C         0.35686107848278   -2.18241069460125   -3.46989634069391
C         2.09260738593562   -0.55539050426280   -2.85718746927461
C         1.00628104002007    1.64946018357662   -2.77336762697087
C         2.03100032996204    0.79971016055247   -2.30332685276080
C        -1.14509834761626    2.37353384329333   -2.28195523244013
C         0.23588251552226    2.46484491401845   -1.86601145113203
C        -2.11329433232450    2.23175697566123   -1.29887680245229
C        -2.75694243050000    0.02681254806596   -2.24061686641378
C        -2.96022025570197    1.07431320594941   -1.29792642593977
C        -1.67096625363344   -2.21187860511011   -2.29280410857321
C        -2.57427597534968   -1.30116566268903   -1.70135099153096
C         0.55406738607957   -2.88369854739975   -2.26941196433828
C        -0.67966943431734   -2.89804937105208   -1.51076481918407
C         2.56219349363305   -1.56912855341763   -1.97659253017184
C         1.73500737308155   -2.68892673778191   -1.58558904155028
C         3.27766930584120   -1.20267250523100   -0.83363989444619
C         2.53219912578868    1.10810049316391   -0.97539358857671
C         3.32511160548949    0.12345792447987   -0.33787350097761
C         0.57188495316234    2.62254073616603   -0.51953302529587
C         1.84555637622709    2.06800619935874   -0.11779273957996
C        -1.80796190986980    2.60976730518332    0.04172006333216
C        -0.47999906120054    2.85174370268710    0.46479141305523
C        -3.27968944845999    0.83241691874033    0.07447518201645
C        -2.71096884304440    1.88980630877481    0.88728525516006
C        -2.74267796669883   -1.49370885735535   -0.29871274865761
C        -3.22060300940888   -0.44560616649091    0.57638931789229
C        -0.62153578172695   -2.81501938848065   -0.10871881290754
C        -1.78772739000617   -2.26247915249005    0.47235840154068
C         1.78506238178676   -2.80534741379199   -0.14309563646577
C         2.90523339189216   -2.05471161271106    0.26646154307262
C         0.61090961599466   -2.76233095562164    0.64226986385547
C         3.36488624544392    0.01476825759231    1.08852702997011
C         2.92244829271589   -1.31584475205892    1.45214912269189
C         2.12553762011449    2.09512160108727    1.25243525488398
C         2.94075780713355    1.07795969451707    1.85795807193111
C        -0.21535760612490    2.76858423892812    1.87508664294840
C         1.16520351533895    2.55439095652778    2.25382702772378
C        -2.40991346741960    1.69800635118133    2.20813322513066
C        -1.22334106659544    2.30997451197173    2.76668225899367
C        -2.74862689623126   -0.68793800660486    1.89470432963540
C        -1.77214623394857   -1.73212230066991    1.82229549466293
C        -2.54508559762655    0.37335740625671    2.77947387650453
C         0.67209437249213   -2.14983093768975    1.95826803634750
C         1.88473764159831   -1.49353046853018    2.40266620712547
C        -0.56588635501826   -1.72334494220639    2.59625514639930
C         2.43238334946918    0.79160623053277    3.13770556965430
C         1.45559023325841    1.81444437809785    3.45818863256044
C         1.84486586258732   -0.47414586808854    3.39041118669593
C        -0.88175256749909    1.51111617883832    3.89654191828798
C        -1.56558133655599    0.23572564891574    3.76082403899862
C        -0.57660926207384   -0.79549166276592    3.69550904884286
C         0.44623590545840    1.24088465535382    4.20349992384766
C         0.65060189710900   -0.22679139567535    4.14278579251046
C        -2.55386937816214   -3.54480541702758    0.62195317714065
F        -1.90153452863894   -4.66652082462892    0.42366033896240
F        -3.71838976659476   -3.63952560937608   -0.57052771871994
F        -3.13028396573871   -3.67314352103844    2.04182961050026
C         1.66109914516938    3.96732751208335    2.58569867266733
F         1.72809757623835    4.73633128176236    1.50223997712678
F         2.87674893246720    3.94963862439690    3.12727182828771
F         0.85908351384849    4.58274447541448    3.45185835898326
C        -2.52235303683600   -2.81940269989516    2.53346900724536
F        -2.20924853648863   -4.21316812101932    2.03054427089045
F        -2.45284317081969   -3.01787237687624    3.69110644135395
F        -3.97383617822422   -2.56012497410050    2.58617271411176
C        -0.78041893352034   -3.02736213947636    3.41281048055847
F        -0.74217279959473   -4.14783633055994    2.68962709929085
F        -1.80303583126608   -2.99513032781909    4.38368674129873
F         0.09839974276610   -3.22176761245771    4.35608347362242
C         0.89324278961194   -0.70874603369948    5.57451936980512
F         0.96320990332112   -2.03482577169732    5.65975634285413
F         2.03066002059041   -0.24020943897038    6.07328572316388
F        -0.08387706732856   -0.32933020621332    6.39902987673520
C        -3.96334255024221   -2.43966115326850   -0.32664587115281
F        -3.74553872583252   -3.65055696685941    0.72892161095231
F        -5.00210083481866   -1.93405069994817    0.31766299316794
F        -4.37848118969530   -2.72412973030321   -1.60936605404559
84
 energy: -223.641215637264 gnorm: 1.691476459514 xtb: 6.4.1 (a3dbbd7)
C         0.13257143293753   -0.07739985101164   -4.29145372966389
C         0.12243085572355    1.21664113476891   -3.80934769855693
C        -1.23994430541744    1.56112589929884   -3.41670242808743
C        -1.22702427190432   -0.60726310640052   -4.09174761234596
C        -2.02430765786214    0.37803876751228   -3.42059575159137
C        -1.06589669502919   -1.86235526604208   -3.53934034302438
C         1.09059303576764   -0.99947603260027   -3.77308124338125
C         0.35498946362802   -2.18395408180891   -3.46915033924368
C         2.09188255662050   -0.55562397156877   -2.85629225550037
C         1.00689746493082    1.64873158814994   -2.77561770507069
C         2.03050335509334    0.79979046026225   -2.30386405746001
C        -1.14525114593134    2.37363517553771   -2.28209434594996
C         0.23599133780614    2.46610235131207   -1.86362034691875
C        -2.11381315678317    2.23116502756936   -1.29901026569718
C        -2.75371056562081    0.02794459416317   -2.24379441348716
C        -2.96049567844413    1.07646995115467   -1.29836819389500
C        -1.67417777032537   -2.20647024930633   -2.29562762538357
C        -2.55739693255640   -1.28891406607468   -1.71857156683968
C         0.55382623911107   -2.88405084355305   -2.26983262261126
C        -0.67309279933667   -2.89908914750724   -1.50669055033005
C         2.56320112363312   -1.56843232191998   -1.97552974344721
C         1.73537053527657   -2.68977835299335   -1.58299511668977
C         3.27946772927953   -1.20270763153757   -0.83422175063521
C         2.53306538893957    1.10800444236952   -0.97548965267239
C         3.32507966586886    0.12371553109557   -0.33883168807795
C         0.57244887054488    2.62243940508631   -0.52229177924980
C         1.84613268717020    2.06540763928452   -0.11858374027628
C        -1.80975811238193    2.61004267643429    0.04185296659983
C        -0.48157847507395    2.85078097403913    0.46720320102372
C        -3.28012380514244    0.84003650122355    0.07318328065636
C        -2.71168068194717    1.89159701202613    0.88574562205177
C        -2.76975613573102   -1.49615189291585   -0.30354873671932
C        -3.21457947559723   -0.42739106446359    0.58146046578294
C        -0.59649698741562   -2.80685475034859   -0.12275645387709
C        -1.79658229408920   -2.28857684889423    0.46912918072711
C         1.78695686902449   -2.80655990637311   -0.14673751024606
C         2.90688199645296   -2.05276603463955    0.26615322615328
C         0.61500499608103   -2.76004336123667    0.64089834968911
C         3.36539950362899    0.01396731479838    1.08771483694020
C         2.92594800341588   -1.31619015453080    1.45004302260464
C         2.13145272225751    2.08356999692202    1.24547650606850
C         2.94018781708856    1.07968845881849    1.85328904954338
C        -0.22959129078687    2.75987594747898    1.86831132632267
C         1.17528356811369    2.58051278059222    2.25934768561882
C        -2.41148789030857    1.69937111897262    2.20929120642964
C        -1.22499169051125    2.30944267141890    2.76366321357708
C        -2.75021796545067   -0.66073745363428    1.88102919366873
C        -1.78120952377299   -1.72481620331275    1.82638518953724
C        -2.54794539760024    0.38030268012483    2.77758359374293
C         0.68793323934249   -2.14566999835330    1.94752410431829
C         1.88872658441455   -1.48963292342781    2.40221326525419
C        -0.54817101148840   -1.71679771338249    2.60162658555425
C         2.42514378340000    0.78921507350562    3.13576819482385
C         1.45855928995722    1.80357395656040    3.46575778012458
C         1.85260142819315   -0.47481777331143    3.37982282529590
C        -0.88098177345505    1.51381325825478    3.89957752412584
C        -1.56094735415430    0.23676966632432    3.75764014236630
C        -0.58688379784822   -0.78388127128992    3.69443845842422
C         0.44540585348641    1.24688804485271    4.19767935612146
C         0.65735615340605   -0.23000478958529    4.17105912343756
C        -2.52803936551062   -3.55739681754519    0.56219491660782
F        -1.90436860023350   -4.68781507555356    0.37196251607731
F        -3.68686177595324   -3.68710412855064   -0.64666019881134
F        -3.16651497682262   -3.73081707505472    2.13145641190276
C         1.66374379410396    3.97629810901980    2.58667542977956
F         1.72882707104337    4.74123292554737    1.50019923210343
F         2.87998313853475    3.95213479834469    3.12837024905929
F         0.85832240121226    4.58620439227960    3.45464878126275
C        -2.49274320650162   -2.75704933328925    2.53881802714525
F        -2.18457477996268   -4.32490976735733    2.07717050985233
F        -2.51975152054742   -3.02279759538796    3.79173640339062
F        -4.07371147857659   -2.49617096134648    2.61453382045025
C        -0.71513012243494   -3.02847719856471    3.36484528584633
F        -0.63004627230304   -4.18086262848616    2.71534611913989
F        -1.83622540304932   -2.98681956162971    4.45622934778336
F         0.11061698251227   -3.23688160448368    4.34519699106464
C         0.89740240378299   -0.70637091476654    5.58083509862214
F         0.97222321841385   -2.02903010029795    5.67695282360619
F         2.03344441679170   -0.23815587721636    6.07649329140800
F        -0.08686397560159   -0.32942736483206    6.40230077089675
C        -3.97872425714734   -2.42648354946234   -0.36650171263951
F        -3.81885200822096   -3.67818189381662    0.73461746217478
F        -5.00616629217173   -1.94360157108389    0.31458290955581
F        -4.42343756052513   -2.65412140517849   -1.66515806085543
84
 energy: -224.271263626980 gnorm: 1.372201704174 xtb: 6.4.1 (a3dbbd7)
C         0.13264862393212   -0.07800253301665   -4.29097857105619
C         0.12451532934145    1.21848973607539   -3.80838832564223
C        -1.23670252012739    1.56301331520040   -3.41567239753349
C        -1.22634759952483   -0.60515315410427   -4.09184166970143
C        -2.02349708038995    0.37760835305095   -3.42500810701152
C        -1.06499749073610   -1.86387657084791   -3.53996077287274
C         1.08949870122079   -0.99865354384513   -3.77357100094294
C         0.35345707527766   -2.18533852083753   -3.46881427472565
C         2.09089747156207   -0.55613409341293   -2.85534269348718
C         1.00808328034316    1.64804176837312   -2.77833934820302
C         2.03011687425269    0.79973431453604   -2.30465691902828
C        -1.14505605181776    2.37402117111028   -2.28252176678989
C         0.23647395889138    2.46777529495414   -1.86107312040085
C        -2.11407293534096    2.23162297106834   -1.29921693856587
C        -2.74998375582136    0.03169852250333   -2.24799349496552
C        -2.96140289752229    1.08037776698814   -1.30039644460209
C        -1.67582741782597   -2.20168095752982   -2.29977649098481
C        -2.53947059830860   -1.27589111358808   -1.73248026496734
C         0.55501402360223   -2.88436683004383   -2.27118880925236
C        -0.66656659297013   -2.90019282422758   -1.50407859904949
C         2.56492013364427   -1.56752369021136   -1.97494024043671