62
 energy: -137.482437875333 gnorm: 0.194480503837 xtb: 6.4.1 (a3dbbd7)
C        -1.23626340000000    0.00000000000000    3.32997640000000
C        -0.38202640000000   -1.17575640000000    3.32997640000000
C         1.00015810000000   -0.72665740000000    3.32997640000000
C         1.00015810000000    0.72665740000000    3.32997640000000
C        -0.38202640000000    1.17575640000000    3.32997640000000
C         2.34433560000000   -2.60145750000000    0.59464210000000
C         3.19857260000000   -1.42570110000000    0.59464210000000
C         2.96246730000000   -0.69904370000000    1.83090550000000
C         1.96230920000000   -1.42570110000000    2.59495830000000
C         1.58028280000000   -2.60145750000000    1.83090550000000
C         3.19857260000000    1.42570110000000    0.59464210000000
C         2.34433560000000    2.60145750000000    0.59464210000000
C         1.58028280000000    2.60145750000000    1.83090550000000
C         1.96230920000000    1.42570110000000    2.59495830000000
C         2.96246730000000    0.69904370000000    1.83090550000000
C        -0.36750900000000    3.48258920000000    0.59464210000000
C        -1.74969350000000    3.03349030000000    0.59464210000000
C        -1.98579880000000    2.30683290000000    1.83090550000000
C        -0.74953540000000    2.30683290000000    2.59495830000000
C         0.25062270000000    3.03349030000000    1.83090550000000
C        -3.42570570000000    0.72665740000000    0.59464210000000
C        -3.42570570000000   -0.72665740000000    0.59464210000000
C        -2.80757400000000   -1.17575640000000    1.83090550000000
C        -2.42554760000000    0.00000000000000    2.59495830000000
C        -2.80757400000000    1.17575640000000    1.83090550000000
C        -1.74969350000000   -3.03349030000000    0.59464210000000
C        -0.36750900000000   -3.48258920000000    0.59464210000000
C         0.25062270000000   -3.03349030000000    1.83090550000000
C        -0.74953540000000   -2.30683290000000    2.59495830000000
C        -1.98579880000000   -2.30683290000000    1.83090550000000
C        -0.25062270000000   -3.03349030000000   -1.83090550000000
C         0.74953540000000   -2.30683290000000   -2.59495830000000
C         1.98579880000000   -2.30683290000000   -1.83090550000000
C         1.74969350000000   -3.03349030000000   -0.59464210000000
C         0.36750900000000   -3.48258920000000   -0.59464210000000
C         2.80757400000000   -1.17575640000000   -1.83090550000000
C         2.42554760000000    0.00000000000000   -2.59495830000000
C         2.80757400000000    1.17575640000000   -1.83090550000000
C         3.42570570000000    0.72665740000000   -0.59464210000000
C         3.42570570000000   -0.72665740000000   -0.59464210000000
C         1.98579880000000    2.30683290000000   -1.83090550000000
C         0.74953540000000    2.30683290000000   -2.59495830000000
C        -0.25062270000000    3.03349030000000   -1.83090550000000
C         0.36750900000000    3.48258920000000   -0.59464210000000
C         1.74969350000000    3.03349030000000   -0.59464210000000
C        -1.58028280000000    2.60145750000000   -1.83090550000000
C        -1.96230920000000    1.42570110000000   -2.59495830000000
C        -2.96246730000000    0.69904370000000   -1.83090550000000
C        -3.19857260000000    1.42570110000000   -0.59464210000000
C        -2.34433560000000    2.60145750000000   -0.59464210000000
C        -2.96246730000000   -0.69904370000000   -1.83090550000000
C        -1.96230920000000   -1.42570110000000   -2.59495830000000
C        -1.58028280000000   -2.60145750000000   -1.83090550000000
C        -2.34433560000000   -2.60145750000000   -0.59464210000000
C        -3.19857260000000   -1.42570110000000   -0.59464210000000
C        -1.00015810000000   -0.72665740000000   -3.32997640000000
C        -1.00015810000000    0.72665740000000   -3.32997640000000
C         0.38202640000000    1.17575640000000   -3.32997640000000
C         1.23626340000000    0.00000000000000   -3.32997640000000
C         0.38202640000000   -1.17575640000000   -3.32997640000000
Cl       -1.84886636902500    0.00000000000000    5.03315507598844
Cl        0.36014152167560    4.58182402846686    2.76190941674295
62
 energy: -137.527516355527 gnorm: 0.107385676459 xtb: 6.4.1 (a3dbbd7)
C        -1.25373435894256   -0.00532749147145    3.35408105990759
C        -0.36544539043131   -1.18546212080982    3.32724553775650
C         1.00011500982810   -0.72792274428925    3.31341628254012
C         0.99678564190238    0.72002379304009    3.31262603564675
C        -0.36636142582859    1.17344368338734    3.32329127592121
C         2.33625991702894   -2.59005939255441    0.58991295652356
C         3.18786434771165   -1.42127250970549    0.58773480672630
C         2.95670577118126   -0.69978445194878    1.81913182631601
C         1.96292322246006   -1.42621553917264    2.58309305016501
C         1.58049391328119   -2.59032161864433    1.82320523132820
C         3.19506388014673    1.41177272536780    0.59007517679161
C         2.33835993114306    2.57962291594568    0.59601286441300
C         1.60602885201181    2.58098682535219    1.83495362315401
C         1.96426134643034    1.41558587225905    2.57670817703069
C         2.96371747195179    0.68938567871781    1.81943547540185
C        -0.37032989681161    3.45638706945407    0.57069355603779
C        -1.73668051622814    3.00895854075124    0.58480976486740
C        -1.96613993637428    2.28614162221883    1.81642632890759
C        -0.74362392401305    2.27619975240569    2.57205855085743
C         0.26128565220606    3.10518375620907    1.86125116358760
C        -3.42504156090269    0.72070868611059    0.57624267788903
C        -3.42360520889092   -0.72429016700229    0.57694832358287
C        -2.79742290715980   -1.16823263997462    1.80231688140472
C        -2.43634606285524   -0.00148463242889    2.54432501053728
C        -2.79916930197388    1.16049151470295    1.80424397200629
C        -1.74054667062718   -3.01713185374727    0.59559215057974
C        -0.36214881204187   -3.46265169551761    0.59536467771905
C         0.25589952008061   -3.02496749518806    1.82578679316260
C        -0.73524969830707   -2.29636561493018    2.58207258583052
C        -1.97376862954294   -2.29549352757547    1.81730430961550
C        -0.25000467411068   -3.01890125313146   -1.82046663125046
C         0.74314059737175   -2.29611482746809   -2.58209511631384
C         1.97567725265616   -2.29612123589367   -1.82351081676344
C         1.74210231973672   -3.01854274687120   -0.59273315751752
C         0.36605042213280   -3.46448958436087   -0.59069679810502
C         2.79419220392652   -1.17141774832593   -1.82516528262990
C         2.41345952050394    0.00042408875413   -2.58326113258456
C         2.79543794890044    1.16677634029767   -1.82377165966817
C         3.41456849034483    0.71950361544532   -0.59628470503565
C         3.41252322101960   -0.72614116317756   -0.59624594860739
C         1.97487421967197    2.29607708268848   -1.81984888138499
C         0.74155849211225    2.29498575729660   -2.58168841546276
C        -0.25442767929979    3.02084252484165   -1.83037215032418
C         0.36162473988323    3.45399294145119   -0.60055776705922
C         1.74475323594616    3.01369991505658   -0.59344471479908
C        -1.58063226951366    2.59002593828413   -1.82622635215870
C        -1.95790693504906    1.41797622789823   -2.58469686422350
C        -2.95458904197721    0.69396037168039   -1.82769445853326
C        -3.19301422456586    1.41908687125134   -0.60085610282413
C        -2.33997371721030    2.58945852786887   -0.60023083423543
C        -2.95321632465083   -0.69747085618162   -1.82730470041008
C        -1.95603559769409   -1.42038355559101   -2.58382011951131
C        -1.57613186846655   -2.58942169503335   -1.82058361893117
C        -2.33563127858749   -2.58917042897454   -0.59366551277352
C        -3.19094840404685   -1.42312172247383   -0.60042828618996
C        -0.99902627654229   -0.72370105630727   -3.31396064735980
C        -0.99951228634146    0.72234667953262   -3.31440410917447
C         0.37654195683297    1.16920835579968   -3.31383656966533
C         1.22625038123222   -0.00009168933905   -3.31389381117243
C         0.37758621370915   -1.16993002590436   -3.31400459305103
Cl       -1.87845038878153   -0.01156464301836    5.10078513288892
Cl        0.36028472707471    4.68213408141032    2.81366899135498
62
 energy: -137.546879420475 gnorm: 0.045187463202 xtb: 6.4.1 (a3dbbd7)
C        -1.29285420323809   -0.01015127085896    3.47315649743674
C        -0.35472211854555   -1.18540152382403    3.28124823108271
C         0.99048482840997   -0.72475989479032    3.27465377600055
C         0.98365568072475    0.71617107748050    3.27345500386034
C        -0.35649297826709    1.16539700572738    3.27611087628905
C         2.33023105209057   -2.58177461717657    0.58603274900990
C         3.18094965810961   -1.41998023242358    0.58307836389585
C         2.95065629548038   -0.70078723454699    1.80773688543868
C         1.96066740703396   -1.42907497898614    2.56639512726036
C         1.57868554535199   -2.58263193069331    1.81418932601012
C         3.19202301168739    1.39691285285205    0.58147325749460
C         2.32780665630570    2.55339614775091    0.58733125818461
C         1.61594489394124    2.55518524780546    1.80965419253689
C         1.95738289537135    1.41559811172522    2.54165425871373
C         2.96165195181530    0.68104328717740    1.80246171467385
C        -0.37465753191423    3.43546716861165    0.55333661358407
C        -1.72105089433734    2.98342159965902    0.57346240555427
C        -1.94530493360782    2.26232623778864    1.80113173875157
C        -0.74808810413878    2.25297281581162    2.54556192381180
C         0.26337063048781    3.19538078587220    1.90832498617728
C        -3.41762847823109    0.71201480340559    0.56662511819853
C        -3.41535682273561   -0.72239913752016    0.56574598084385
C        -2.78275745306924   -1.15715979691405    1.78796868800942
C        -2.44448373844394   -0.00536173862429    2.53057798287811
C        -2.78450495734872    1.13517044086436    1.79648199475964
C        -1.73473610269347   -3.00190916865381    0.59190871875680
C        -0.35959425660971   -3.44883030271794    0.59016506345569
C         0.25615419792408   -3.02021958741919    1.81295755732578
C        -0.72743164978964   -2.28602267903945    2.55339855726770
C        -1.97061072765798   -2.29135159926263    1.80111492153563
C        -0.24624014205913   -3.00563372472286   -1.81393705593601
C         0.74134404974587   -2.28684252737986   -2.57080638231886
C         1.96983267512769   -2.28768637243140   -1.81589997596034
C         1.73675073265801   -3.00679067183734   -0.59120776370607
C         0.36561207129739   -3.45029589134989   -0.59104751247177
C         2.78651945253665   -1.16942218480938   -1.81912369034300
C         2.40822301429415   -0.00032449452059   -2.57216793898418
C         2.78943326044885    1.15605375589668   -1.81851700708487
C         3.40940281852242    0.71011322725306   -0.60022264018113
C         3.40525824463386   -0.72849743990331   -0.59695155189020
C         1.96771930352951    2.28587847014901   -1.80914243616205
C         0.73769942845016    2.28421780505133   -2.57021285773032
C        -0.25316206317759    3.00748883950968   -1.82784722276379
C         0.35618259088340    3.43429293219132   -0.60209747390434
C         1.74255021738223    2.99761873493498   -0.59858280907725
C        -1.57754756699366    2.57721551189600   -1.82160407678346
C        -1.95086778256422    1.41073813875010   -2.57840092125962
C        -2.94484883810231    0.68923065483679   -1.82673513710086
C        -3.18237898003361    1.40893804748542   -0.60354577891214
C        -2.33373187254707    2.57786007519845   -0.60895223776780
C        -2.94337628433625   -0.69673357459582   -1.82805187030819
C        -1.94743589562688   -1.41507228484974   -2.57811470097971
C        -1.57088271515874   -2.57841701231449   -1.81526775570826
C        -2.32815218563435   -2.57789332929522   -0.60008693695373
C        -3.18050590162493   -1.41939684593192   -0.60677359413595
C        -0.99300780963126   -0.72061322026465   -3.30213980382334
C        -0.99385199657844    0.71848764503688   -3.30246571706912
C         0.37713615604342    1.16264552243790   -3.30079234081076
C         1.22231354564485   -0.00071150370504   -3.30059203153103
C         0.37910261927980   -1.16409524113198   -3.30008361702637
Cl       -1.92022060669443   -0.01011529989382    5.25256441435596
Cl        0.36301585882942    4.78694439769598    2.87647714826185
62
 energy: -137.549133927984 gnorm: 0.022695223392 xtb: 6.4.1 (a3dbbd7)
C        -1.29119747727509   -0.00690076724058    3.48332985771186
C        -0.36429457443343   -1.18352691340698    3.29936518733470
C         0.98473280290936   -0.72397780622065    3.27619047385414
C         0.97810139634710    0.71820870468568    3.27992618716704
C        -0.36480538889464    1.17227750114215    3.29970974738840
C         2.33357177974528   -2.58603593057674    0.58241511635742
C         3.18491321089588   -1.42290330268387    0.57931955052255
C         2.94849380664757   -0.70100446667462    1.80374099971752
C         1.95593391051520   -1.42663975862352    2.56343605325022
C         1.57819527532652   -2.58226028270255    1.81052956611761
C         3.18811273341221    1.39852132729984    0.57958455554483
C         2.32696308268154    2.56088895040049    0.58971902307643
C         1.60750649259428    2.56862456945144    1.81452512915797
C         1.95010710714941    1.41870439331855    2.54465575590445
C         2.95479271618736    0.68240309341363    1.80067690875698
C        -0.37000681977809    3.45071776656532    0.56685153606379
C        -1.71571259012263    2.98436655294360    0.57594806736051
C        -1.94200719200613    2.26668415338977    1.80604823639348
C        -0.74765276596671    2.27189348385718    2.56655791086126
C         0.26063751130547    3.19932720648948    1.91657681910963
C        -3.40910879654540    0.71015261099863    0.56721176030741
C        -3.41043382162030   -0.72497543423948    0.56599578957503
C        -2.78257249615823   -1.15901984408944    1.79423213785231
C        -2.43622197886262   -0.00607275103090    2.54298630327114
C        -2.77758712453554    1.13638628758297    1.80069700856201
C        -1.73491875273046   -3.00224673660939    0.58894493032766
C        -0.35951608841708   -3.44826211879063    0.58716025772488
C         0.25391425921736   -3.01337982953693    1.81039985085165
C        -0.73217021102342   -2.28511775409471    2.56241592596393
C        -1.97203854689601   -2.29330136698436    1.80278292621397
C        -0.24612015159943   -3.00939481026602   -1.81922271037776
C         0.74220596637074   -2.29068908279497   -2.57671503368072
C         1.97205507353110   -2.29168618160769   -1.82185235102701
C         1.73921617237220   -3.01121209335737   -0.59592556948413
C         0.36636396597567   -3.45288249603410   -0.59502265178139
C         2.79062647425433   -1.17324721545962   -1.82570327584406
C         2.41010344804111   -0.00313468213082   -2.57820957054082
C         2.79150287662760    1.15434377386753   -1.82328915652381
C         3.41076965334985    0.70911775341567   -0.60337921905021
C         3.41063530639506   -0.73141522404178   -0.60242111215163
C         1.96855058565551    2.28341613688047   -1.81064192423040
C         0.73849249529011    2.28112273035979   -2.57160457614140
C        -0.25087713423857    3.00322554459609   -1.82386218960274
C         0.35880853727277    3.44038646139667   -0.59661510075550
C         1.74446326769607    3.00060084479981   -0.59888353542272
C        -1.57570951317873    2.57457245849047   -1.82374009270965
C        -1.95260771183862    1.40952683897105   -2.58491037775735
C        -2.94758342731592    0.68707091040309   -1.83266805417708
C        -3.17878956654021    1.40613995312659   -0.60586829148431
C        -2.32802531981293    2.57449937208465   -0.60759442658973
C        -2.94744074452340   -0.70080746333926   -1.83486214516667
C        -1.95015531577711   -1.41980390681286   -2.58578852251170
C        -1.57171089012952   -2.58300537202702   -1.82130203619484
C        -2.32908024562070   -2.58194895783424   -0.60434937293246
C        -3.18160335253880   -1.42268932640252   -0.61034688574991
C        -0.99425465796053   -0.72425310759598   -3.30922525268764
C        -0.99497647191171    0.71617506005520   -3.30923381156135
C         0.37716584793074    1.16028583160560   -3.30514544866576
C         1.22299347009412   -0.00364880228185   -3.30609966169793
C         0.37899853783104   -1.16756694527483   -3.30644082295210
Cl       -1.92222134761914   -0.01068913872734    5.24853474098354
Cl        0.36374786489915    4.78588362636907    2.87551935889986
62
 energy: -137.549857989437 gnorm: 0.013550393356 xtb: 6.4.1 (a3dbbd7)
C        -1.29508431250291   -0.00596820227143    3.50244027153750
C        -0.37161257394983   -1.18158095932445    3.30385321563554
C         0.97838261882179   -0.72317282087358    3.27160344064298
C         0.97119954358549    0.71933427760195    3.27754560716771
C        -0.37154389211594    1.17461699212448    3.30861010086117
C         2.33536344980012   -2.58822822852070    0.58085208169977
C         3.18654381719688   -1.42404178234205    0.57778142742067
C         2.94547302227465   -0.70031548288819    1.80064938966538
C         1.95121624326231   -1.42462452056561    2.55988286560736
C         1.57701294209375   -2.58225926782429    1.80832084565305
C         3.18498854503338    1.39963701199661    0.57727973770588
C         2.32619311384972    2.56543803723026    0.58860680554453
C         1.59992803512741    2.57308648178005    1.81075448733827
C         1.94250726673105    1.42129241245697    2.54110522535190
C         2.94796766640312    0.68339056802865    1.79680358336347
C        -0.36602907954741    3.45804351399708    0.57423017162403
C        -1.71008087320337    2.98271735369833    0.57661974314885
C        -1.93743044615956    2.26686156809245    1.80796340208408
C        -0.74753842186209    2.28327294177086    2.57788234323396
C         0.25932825790610    3.20677587742718    1.92453182626901
C        -3.40063799026292    0.70747618629579    0.56865187701289
C        -3.40575957295192   -0.72685844074434    0.56729913348872
C        -2.78246253685555   -1.16142145877677    1.79949681016275
C        -2.42933592217484   -0.00825845657766    2.55004098096003
C        -2.77051071115801    1.13397888393774    1.80474910040967
C        -1.73620052177051   -3.00377741169694    0.58729105925663
C        -0.36008967846231   -3.44738049100832    0.58549665000479
C         0.25193569058208   -3.00931480414083    1.80830597698156
C        -0.73576129574444   -2.28461253476762    2.56507748526727
C        -1.97506986274323   -2.29752312307186    1.80328459244801
C        -0.24552621407207   -3.01075180644526   -1.82133914271836
C         0.74323094312166   -2.29215161068422   -2.57892959495578
C         1.97381008396621   -2.29312018937182   -1.82426160919805
C         1.74052474205946   -3.01299677772405   -0.59791528505335
C         0.36679869853457   -3.45389364594475   -0.59680529534618
C         2.79360938771234   -1.17468813986219   -1.82870711758082
C         2.41185046732979   -0.00397664064557   -2.58102273990097
C         2.79355802797138    1.15401434008711   -1.82628663205864
C         3.41234545991556    0.70915435996139   -0.60546705501844
C         3.41373139989440   -0.73223679345037   -0.60471072844199
C         1.97033705316919    2.28318115467722   -1.81241127514645
C         0.73937100310045    2.27961649199513   -2.57135011669551
C        -0.24914434157304    3.00076419491809   -1.82099498276936
C         0.36067408570549    3.44320459216222   -0.59378138939333
C         1.74715997834670    3.00370313930676   -0.60173797349584
C        -1.57389583092801    2.57304258252690   -1.82432870977275
C        -1.95312259068432    1.40901309326400   -2.58793962634971
C        -2.94802927607711    0.68608045419605   -1.83459018589130
C        -3.17448940331777    1.40356422627742   -0.60549484627968
C        -2.32309059780445    2.57171117777099   -0.60626112045875
C        -2.94911926558157   -0.70284114514411   -1.83730219695145
C        -1.95137592765160   -1.42212099392726   -2.58918420997953
C        -1.57190881131020   -2.58535414606244   -1.82397352973065
C        -2.32981537848708   -2.58461680929265   -0.60675998719931
C        -3.18190365134624   -1.42462381726156   -0.61143671803938
C        -0.99443137268601   -0.72589219007822   -3.31200943068908
C        -0.99495947176566    0.71516094730699   -3.31192260746274
C         0.37774070884854    1.15937776081217   -3.30673813278872
C         1.22374234428506   -0.00463247424579   -3.30816315527105
C         0.37950022025939   -1.16876738103345   -3.30883911391898
Cl       -1.92701189329688   -0.00908173257266    5.25232240869536
Cl        0.36822205380937    4.78539768590706    2.87639635504477
62
 energy: -137.550126532132 gnorm: 0.007512901437 xtb: 6.4.1 (a3dbbd7)
C        -1.29896475752382   -0.00636801055549    3.51627399213508
C        -0.37496275780497   -1.18033027574310    3.30156378414120
C         0.97502824683955   -0.72287216948749    3.26768484085223
C         0.96703124003818    0.71971036877348    3.27371245553287
C        -0.37482656803277    1.17383853922038    3.30798540342012
C         2.33596990098053   -2.58876632432440    0.58088699230655
C         3.18674984933289   -1.42394236292174    0.57795124107043
C         2.94406465627220   -0.69961778432526    1.79984197931944
C         1.94893040331100   -1.42360374815092    2.55839307013118
C         1.57626963059949   -2.58254973345880    1.80790496398797
C         3.18421153231045    1.40037883393853    0.57635157986145
C         2.32604940859901    2.56703484877087    0.58676767856069
C         1.59515060730392    2.57204212071741    1.80532840783735
C         1.93833485902346    1.42232049430935    2.53725922691743
C         2.94481477255661    0.68393311411381    1.79457580437352
C        -0.36439805804352    3.45905184999235    0.57627804310076
C        -1.70794202401711    2.98180596702714    0.57653540426362
C        -1.93569673996142    2.26644512050415    1.80836815998103
C        -0.74814157594321    2.28718349275956    2.58073467829422
C         0.25920442821410    3.21031897837829    1.92830977140303
C        -3.39650713113994    0.70605441462353    0.56999462695329
C        -3.40358974371863   -0.72747451436281    0.56866870535169
C        -2.78245196989551   -1.16279014140862    1.80231653664671
C        -2.42539629182757   -0.00971671255671    2.55234894783038
C        -2.76717589065952    1.13186301857325    1.80737706749328
C        -1.73747413841604   -3.00579547413883    0.58708088502867
C        -0.36069705912581   -3.44757039059025    0.58527785762290
C         0.25102062004759   -3.00820409124465    1.80762192486699
C        -0.73742487808785   -2.28510925682516    2.56515066263321
C        -1.97733999597042   -2.30079191845355    1.80351234545913
C        -0.24510445010618   -3.01100259991959   -1.82151212820825
C         0.74387188435579   -2.29225288023627   -2.57905856171612
C         1.97454138978276   -2.29305247865633   -1.82428407780075
C         1.74085995956657   -3.01318977520772   -0.59791352529260
C         0.36692903546431   -3.45441438609500   -0.59693356316705
C         2.79466696152900   -1.17453970269751   -1.82893708612231
C         2.41286730110776   -0.00361449614456   -2.58158009895873
C         2.79478336695735    1.15472122269994   -1.82736812647260
C         3.41356543451303    0.70979505807825   -0.60604441189426
C         3.41459000638504   -0.73176561036137   -0.60465990450550
C         1.97187281363261    2.28447769174594   -1.81400308287435
C         0.74002444615259    2.28004323498957   -2.57124430147992
C        -0.24851477592516    3.00067258209393   -1.81995653481181
C         0.36125746395956    3.44427526084005   -0.59318211031534
C         1.74883257727254    3.00590369457536   -0.60413639226773
C        -1.57310377626822    2.57305177671316   -1.82420588620586
C        -1.95300921331544    1.40912243483719   -2.58824124950244
C        -2.94745308374264    0.68604119496610   -1.83395199033897
C        -3.17249501960611    1.40261511462391   -0.60421059105932
C        -2.32133729011903    2.57104206586383   -0.60544022553732
C        -2.94898413132283   -0.70316115617080   -1.83678024832702
C        -1.95136858861468   -1.42249305105244   -2.58946186974148
C        -1.57183370620302   -2.58612460640727   -1.82437079985765
C        -2.33014111102159   -2.58586953820488   -0.60721704047290
C        -3.18184835483972   -1.42519633953879   -0.61091154220498
C        -0.99411753342165   -0.72605403110701   -3.31221778343998
C        -0.99451447701399    0.71520292953950   -3.31183857377988
C         0.37833417261842    1.15977051171627   -3.30700319906125
C         1.22433289811161   -0.00432199050839   -3.30834558076302
C         0.38004260211739   -1.16868497076957   -3.30900593886724
Cl       -1.92946015251115   -0.00603411701052    5.25138169843758
Cl        0.37334792789480    4.78038273211757    2.87564218196398
62
 energy: -137.550205023407 gnorm: 0.003565795036 xtb: 6.4.1 (a3dbbd7)
C        -1.30070450091343   -0.00689932994123    3.52117008229930
C        -0.37508352426649   -1.18002479994380    3.29870975091490
C         0.97466516706091   -0.72294503758139    3.26659903778736
C         0.96615543250015    0.71969708901437    3.27190949181924
C        -0.37504977472075    1.17252386783183    3.30453753240889
C         2.33590515519649   -2.58840330006620    0.58137813914761
C         3.18653786867448   -1.42351225435896    0.57851540033926
C         2.94418098359686   -0.69935466506231    1.80031996061623
C         1.94884816594791   -1.42349546186417    2.55856740653480
C         1.57619562544489   -2.58271346883550    1.80829387526686
C         3.18485771702392    1.40058935306424    0.57654779465562
C         2.32608456027152    2.56652530519271    0.58588216511358
C         1.59377132813640    2.56964522001365    1.80263647366528
C         1.93779924238029    1.42209314573826    2.53568799970984
C         2.94503583469597    0.68403629974475    1.79442845827159
C        -0.36476632424023    3.45762369763076    0.57549725252137
C        -1.70859324175770    2.98206889767310    0.57642162052652
C        -1.93640462897063    2.26652211790262    1.80830478781036
C        -0.74898169214225    2.28640769285985    2.57936299438590
C         0.25965149819715    3.21042814551778    1.92883630652942
C        -3.39652066289152    0.70599157342576    0.57051840463149
C        -3.40356669714637   -0.72725847874186    0.56919958562881
C        -2.78228930592513   -1.16274272982735    1.80259792061841
C        -2.42471473208776   -0.00986785161304    2.55185218220176
C        -2.76731204624940    1.13126448354648    1.80811573858717
C        -1.73787379165496   -3.00670533053531    0.58752686504190
C        -0.36085599841910   -3.44810930891112    0.58565629089923
C         0.25105782678248   -3.00859739462065    1.80780560099119
C        -0.73745203869128   -2.28573922421135    2.56471064611957
C        -1.97790428217767   -2.30159602985635    1.80360047976029
C        -0.24494420825070   -3.01088703313613   -1.82106848263698
C         0.74406366496866   -2.29192178144957   -2.57854291934656
C         1.97456143305676   -2.29259875810104   -1.82358957787521
C         1.74077131211316   -3.01279327417463   -0.59731306390019
C         0.36697457028232   -3.45451955283731   -0.59647585811034
C         2.79445703043530   -1.17399884366067   -1.82816447769984
C         2.41301703377597   -0.00309361135171   -2.58108740367509
C         2.79491826400015    1.15537579415362   -1.82714168836766
C         3.41387878601850    0.71024704306263   -0.60578826829828
C         3.41428779531047   -0.73117342500771   -0.60396298083678
C         1.97222997933074    2.28550643120855   -1.81453872437768
C         0.74012850999094    2.28089736122171   -2.57140204247357
C        -0.24870220049153    3.00143616760193   -1.82009976658364
C         0.36089203336337    3.44441553921647   -0.59353697038395
C         1.74892044052236    3.00645557100694   -0.60471056073656
C        -1.57319937628336    2.57352071820043   -1.82393312908181
C        -1.95277835357258    1.40929283195311   -2.58749166991427
C        -2.94694081123685    0.68623014267568   -1.83291473135883
C        -3.17260773735605    1.40280255908126   -0.60344684711854
C        -2.32184595455182    2.57161475314659   -0.60530167460747
C        -2.94831162289367   -0.70282829085300   -1.83568416667248
C        -1.95087436190287   -1.42205932210396   -2.58857165350745
C        -1.57166622894115   -2.58601811737591   -1.82386285383209
C        -2.33004250743979   -2.58593906596828   -0.60676160553101
C        -3.18157250168827   -1.42500674095075   -0.61020491766946
C        -0.99379033448472   -0.72569057331629   -3.31149323445237
C        -0.99426818907507    0.71552051214815   -3.31105437584186
C         0.37851658115809    1.16031716735688   -3.30673700872479
C         1.22455145837973   -0.00381142399105   -3.30792730112077
C         0.38031382468485   -1.16831704740057   -3.30843899815280
Cl       -1.92912171576698   -0.00337178935305    5.24653099379444
Cl        0.37678537553984    4.77476786427895    2.87459020702155
62
 energy: -137.550224069114 gnorm: 0.001477551079 xtb: 6.4.1 (a3dbbd7)
C        -1.30094264295964   -0.00706780402293    3.52134272415567
C        -0.37426072547722   -1.18021978396136    3.29782456550099
C         0.97531998952458   -0.72306921553889    3.26711098484152
C         0.96673118761748    0.71962415383158    3.27197540316753
C        -0.37427551847142    1.17203130070048    3.30265504731804