62
 energy: -137.414434337916 gnorm: 0.260547423622 xtb: 6.4.1 (a3dbbd7)
C        -1.23626340000000    0.00000000000000    3.32997640000000
C        -0.38202640000000   -1.17575640000000    3.32997640000000
C         1.00015810000000   -0.72665740000000    3.32997640000000
C         1.00015810000000    0.72665740000000    3.32997640000000
C        -0.38202640000000    1.17575640000000    3.32997640000000
C         2.34433560000000   -2.60145750000000    0.59464210000000
C         3.19857260000000   -1.42570110000000    0.59464210000000
C         2.96246730000000   -0.69904370000000    1.83090550000000
C         1.96230920000000   -1.42570110000000    2.59495830000000
C         1.58028280000000   -2.60145750000000    1.83090550000000
C         3.19857260000000    1.42570110000000    0.59464210000000
C         2.34433560000000    2.60145750000000    0.59464210000000
C         1.58028280000000    2.60145750000000    1.83090550000000
C         1.96230920000000    1.42570110000000    2.59495830000000
C         2.96246730000000    0.69904370000000    1.83090550000000
C        -0.36750900000000    3.48258920000000    0.59464210000000
C        -1.74969350000000    3.03349030000000    0.59464210000000
C        -1.98579880000000    2.30683290000000    1.83090550000000
C        -0.74953540000000    2.30683290000000    2.59495830000000
C         0.25062270000000    3.03349030000000    1.83090550000000
C        -3.42570570000000    0.72665740000000    0.59464210000000
C        -3.42570570000000   -0.72665740000000    0.59464210000000
C        -2.80757400000000   -1.17575640000000    1.83090550000000
C        -2.42554760000000    0.00000000000000    2.59495830000000
C        -2.80757400000000    1.17575640000000    1.83090550000000
C        -1.74969350000000   -3.03349030000000    0.59464210000000
C        -0.36750900000000   -3.48258920000000    0.59464210000000
C         0.25062270000000   -3.03349030000000    1.83090550000000
C        -0.74953540000000   -2.30683290000000    2.59495830000000
C        -1.98579880000000   -2.30683290000000    1.83090550000000
C        -0.25062270000000   -3.03349030000000   -1.83090550000000
C         0.74953540000000   -2.30683290000000   -2.59495830000000
C         1.98579880000000   -2.30683290000000   -1.83090550000000
C         1.74969350000000   -3.03349030000000   -0.59464210000000
C         0.36750900000000   -3.48258920000000   -0.59464210000000
C         2.80757400000000   -1.17575640000000   -1.83090550000000
C         2.42554760000000    0.00000000000000   -2.59495830000000
C         2.80757400000000    1.17575640000000   -1.83090550000000
C         3.42570570000000    0.72665740000000   -0.59464210000000
C         3.42570570000000   -0.72665740000000   -0.59464210000000
C         1.98579880000000    2.30683290000000   -1.83090550000000
C         0.74953540000000    2.30683290000000   -2.59495830000000
C        -0.25062270000000    3.03349030000000   -1.83090550000000
C         0.36750900000000    3.48258920000000   -0.59464210000000
C         1.74969350000000    3.03349030000000   -0.59464210000000
C        -1.58028280000000    2.60145750000000   -1.83090550000000
C        -1.96230920000000    1.42570110000000   -2.59495830000000
C        -2.96246730000000    0.69904370000000   -1.83090550000000
C        -3.19857260000000    1.42570110000000   -0.59464210000000
C        -2.34433560000000    2.60145750000000   -0.59464210000000
C        -2.96246730000000   -0.69904370000000   -1.83090550000000
C        -1.96230920000000   -1.42570110000000   -2.59495830000000
C        -1.58028280000000   -2.60145750000000   -1.83090550000000
C        -2.34433560000000   -2.60145750000000   -0.59464210000000
C        -3.19857260000000   -1.42570110000000   -0.59464210000000
C        -1.00015810000000   -0.72665740000000   -3.32997640000000
C        -1.00015810000000    0.72665740000000   -3.32997640000000
C         0.38202640000000    1.17575640000000   -3.32997640000000
C         1.23626340000000    0.00000000000000   -3.32997640000000
C         0.38202640000000   -1.17575640000000   -3.32997640000000
Cl       -1.84886636902500    0.00000000000000    5.03315507598844
Cl       -0.57133112665374   -1.75837643626476    5.03315507935499
62
 energy: -137.514735876759 gnorm: 0.128579367038 xtb: 6.4.1 (a3dbbd7)
C        -1.26156959478355    0.01673767618959    3.37941752014082
C        -0.37750991756460   -1.20216321768108    3.37893422801782
C         1.01737006157289   -0.71610549107810    3.33451926922053
C         1.00082512954112    0.72792824604563    3.32126699242615
C        -0.36711332853567    1.19052825216166    3.33505389541827
C         2.33704115685693   -2.59264326348488    0.59203712933176
C         3.18792451635282   -1.42043244010104    0.59200801805794
C         2.95636418470615   -0.69424997925948    1.82454590939068
C         1.95806546020188   -1.41161206385654    2.58383722605042
C         1.57573161888025   -2.59212944906888    1.82041010983233
C         3.18899990031077    1.42169390139612    0.59051042222202
C         2.33791558263349    2.59384762260314    0.59049684401299
C         1.57970285774380    2.59463869034136    1.82286909682991
C         1.96279598959349    1.42614670814543    2.58428345739812
C         2.95581227058750    0.70038747932219    1.82299513914697
C        -0.36553192885586    3.47055154045498    0.59185913396736
C        -1.74334959112966    3.02365883707734    0.59200563770306
C        -1.97853865954417    2.29957799028460    1.82053251704953
C        -0.73758097366516    2.29929737683431    2.58383640463104
C         0.25349910314353    3.02616547450764    1.82435727292123
C        -3.42065502584021    0.72741501322353    0.58231094457082
C        -3.42287384741116   -0.72035180990580    0.58576667787216
C        -2.79553273974177   -1.16067901835845    1.81574900729282
C        -2.43345441919196    0.00095832354902    2.55128314587285
C        -2.79995563966057    1.17425751074052    1.80681814926751
C        -1.74198278843905   -3.03164206279779    0.58559188151350
C        -0.36556208528711   -3.48111023179074    0.58271330234156
C         0.25210300581794   -3.02574665461001    1.80641537883281
C        -0.74923774931758   -2.31440291907764    2.55120257679840
C        -1.96696644842924   -2.30097608113333    1.81614724670945
C        -0.24945797113785   -3.02485415870105   -1.82645228462654
C         0.74645045208537   -2.29963053217503   -2.58729050828275
C         1.97917721160400   -2.29969042846679   -1.82619227863240
C         1.74448831664674   -3.02498073618891   -0.59476414752048
C         0.36823047652435   -3.47438823453457   -0.59869085127957
C         2.79800824499088   -1.17296253053962   -1.82605851786423
C         2.41674054610584   -0.00064811759613   -2.58718158771606
C         2.79768221922660    1.17035721424450   -1.82621116722797
C         3.41357952052994    0.72388716921276   -0.59463850639348
C         3.41358446582699   -0.72476340651161   -0.59354387430711
C         1.97782751645834    2.29908876854472   -1.82625207519289
C         0.74640124894395    2.29846884993048   -2.58718413829292
C        -0.25064298089305    3.02348957082421   -1.82611957321716
C         0.36584719639183    3.47050202099849   -0.59364120704120
C         1.74364938783965    3.02293097697932   -0.59470891229128
C        -1.57528867493882    2.59302732208843   -1.82624489744375
C        -1.95619378092188    1.42072756875421   -2.58737839449124
C        -2.95357954217466    0.69783424212361   -1.82641904702856
C        -3.19139390460963    1.42457986501594   -0.59894095301672
C        -2.33773980385679    2.59409301332233   -0.59488532862959
C        -2.95412418078439   -0.69679067074483   -1.82429284683589
C        -1.95701898550164   -1.42166526435101   -2.58483804764301
C        -1.57576835636999   -2.59388933943339   -1.82430378100060
C        -2.33591125228295   -2.59535669940434   -0.59362876300441
C        -3.19111016650534   -1.41938029478016   -0.59373487313973
C        -0.99848458691651   -0.72539640498613   -3.31799951033730
C        -0.99799322740480    0.72313307526114   -3.31896476723846
C         0.37983109337014    1.17046763361447   -3.31926509785791
C         1.23064714819462   -0.00070205223196   -3.31925681899150
C         0.37925853029018   -1.17272923894202   -3.31892100580871
Cl       -1.97417733814520    0.15313698081659    5.06757263841466
Cl       -0.45945241880989   -1.92581855908176    5.06696674444137
62
 energy: -137.551167071312 gnorm: 0.044507327841 xtb: 6.4.1 (a3dbbd7)
C        -1.29509186755089    0.01355490811780    3.48495347538766
C        -0.38853633925932   -1.23535829752247    3.48465559718806
C         1.00982964780980   -0.70311668186389    3.28025992689491
C         0.99568800174676    0.72325944855666    3.28445855019090
C        -0.35638485179836    1.17761655294679    3.28029608855220
C         2.32897577667651   -2.58517471461118    0.58378916730147
C         3.17838401729612   -1.41729931376600    0.58469621879734
C         2.94705805542617   -0.69071303558661    1.81070467051303
C         1.94465215214823   -1.39886361520084    2.55350514317280
C         1.56769079697017   -2.58714542529849    1.80434074622537
C         3.18292040598447    1.41981435054316    0.58584708219102
C         2.33388012844515    2.58837132603091    0.58584917919548
C         1.57949451343761    2.58988350279853    1.81234993481842
C         1.96359250168907    1.42657149750492    2.56642298794559
C         2.95127809259869    0.70182978935811    1.81232333845253
C        -0.36574433922962    3.46075047172283    0.58467047288631
C        -1.73895643100893    3.01379581631052    0.58377655995090
C        -1.97594463471552    2.29035641758857    1.80427421623521
C        -0.72927428869111    2.28166700612828    2.55338000581446
C         0.25383055949861    3.01631703854936    1.81067613576636
C        -3.41565142261978    0.72877810392073    0.57014981829087
C        -3.41072426528550   -0.71246020251351    0.57736034053892
C        -2.77835635324603   -1.14064762396109    1.81138570573125
C        -2.42729969347491   -0.00765310331650    2.53261048433755
C        -2.78408429349947    1.16492057023098    1.78667271028714
C        -1.73184843577728   -3.02364379925711    0.57737718947082
C        -0.36267529161792   -3.47413405453848    0.57025577175472
C         0.24764635691680   -3.00795512210534    1.78681174960239
C        -0.75675225619089   -2.30649786060748    2.53271262908216
C        -1.94339569538424   -2.29009861285770    1.81136562607278
C        -0.24480684229109   -3.01644921918769   -1.82744842158405
C         0.74659663676925   -2.29083465029057   -2.58370309419081
C         1.97495689248904   -2.29113522414378   -1.82502975330097
C         1.74045284078413   -3.01822806643191   -0.60036790964041
C         0.37066496572444   -3.46892493177272   -0.60693539695653
C         2.79009869594312   -1.16863872090289   -1.82271356124564
C         2.41038263814752    0.00155136078680   -2.57930003635114
C         2.78960334496845    1.16638174680544   -1.82050090848136
C         3.40390731112188    0.72213388409811   -0.59471701946932
C         3.40326612108665   -0.72204152845916   -0.59438010539708
C         1.97132033546238    2.29269537488757   -1.82054090776161
C         0.74626823320184    2.29194216408576   -2.57928816085811
C        -0.24929602427021    3.01469966373474   -1.82270344384290
C         0.36494480741810    3.45995949804196   -0.59441384136213
C         1.73857249994225    3.01406337260580   -0.59471296307136
C        -1.56872550414256    2.58625381478408   -1.82495056777437
C        -1.94801339544848    1.41790882603012   -2.58362350643152
C        -2.94445881644119    0.69924555608998   -1.82750392508893
C        -3.18525100803578    1.42476631806126   -0.60709147129401
C        -2.33270090289162    2.58795727692376   -0.60034719306336
C        -2.94169545262409   -0.69220626423574   -1.82095877291224
C        -1.94738312784511   -1.41486166146154   -2.57730083829478
C        -1.56728530866357   -2.58369589776048   -1.82079779274934
C        -2.32260823084508   -2.58710754368406   -0.59433495655910
C        -3.17779985405510   -1.40928610123267   -0.59431829789277
C        -0.99242389004456   -0.72104028971629   -3.30835010168500
C        -0.99197668946466    0.72208562080826   -3.30976800036947
C         0.38120967003287    1.16776159370011   -3.30902720544245
C         1.22839235369275    0.00172442373127   -3.30901588366908
C         0.38022706565290   -1.16656407825232   -3.30980114887709
Cl       -2.05453665748454    0.22886957861462    5.16123593704426
Cl       -0.41630075086308   -2.02408766982400    5.16108788126748
62
 energy: -137.557132402503 gnorm: 0.027424513555 xtb: 6.4.1 (a3dbbd7)
C        -1.31438516141590    0.01006763805665    3.55528445316458
C        -0.39697182387227   -1.25317837488594    3.55520340367111
C         0.99493836625992   -0.71050539471955    3.28564960403478
C         0.97842369653640    0.71076491410741    3.26978104860211
C        -0.36817828329916    1.16561085535192    3.28557020743772
C         2.32386612165673   -2.58202038850746    0.57696307119790
C         3.16921280585401   -1.41433057244193    0.57774848951615
C         2.92719148561589   -0.68910664818429    1.80081333449595
C         1.93065707666515   -1.39773413232921    2.55319759037274
C         1.56457696898478   -2.58638316411282    1.79907804513999
C         3.18197861486750    1.41986729362336    0.57834924564683
C         2.33367384072080    2.58747316934154    0.57836207563580
C         1.57605822054304    2.58091623717873    1.80217045941956
C         1.95105422213197    1.41750865969693    2.55252487090283
C         2.94167163763195    0.70137138409919    1.80216524417378
C        -0.36578887305956    3.45113768937851    0.57774189988326
C        -1.73757608296522    3.00801778033076    0.57697852239617
C        -1.97625708672684    2.28718880528680    1.79906825396779
C        -0.73265329388302    2.26802205889556    2.55317477123898
C         0.24915050319071    2.99685808529144    1.80079943229385
C        -3.40462122681397    0.73155872840788    0.56784518324958
C        -3.39520400841807   -0.70558940751341    0.57423315482237
C        -2.76476839603900   -1.12871332685052    1.81558148608472
C        -2.41605252550897   -0.00938819633972    2.54519683449898
C        -2.77627456083357    1.16265013779483    1.78931768995114
C        -1.72024691158061   -3.01103401740077    0.57424441732244
C        -0.35634696377729   -3.46414967576320    0.56781949534582
C         0.24779701311385   -2.99971001223037    1.78936941635244
C        -0.75547516113702   -2.29512013436771    2.54521221493476
C        -1.92785593449943   -2.28080357052640    1.81553013378871
C        -0.23984172862623   -3.01435438964815   -1.83394754612768
C         0.74931109266337   -2.28867763323351   -2.59042469870871
C         1.97653939587476   -2.28914150988055   -1.83222549525021
C         1.74217284264768   -3.01694576296818   -0.60881793013107
C         0.37465743312567   -3.46531333261595   -0.61340683864778
C         2.78960121086948   -1.16685731417205   -1.82898586168177
C         2.40978548377909    0.00277676070312   -2.58395078375825
C         2.78785981134820    1.16552617826909   -1.82543811095995
C         3.40193907073835    0.72230749871284   -0.60138967074170
C         3.39907484104552   -0.72041999627088   -0.60032945596740
C         1.96996952450453    2.29125598072068   -1.82542920764525
C         0.74727520058400    2.29100209104676   -2.58392534933401
C        -0.24773368169125    3.01367310436267   -1.82897580951156
C         0.36520336569830    3.45535305146612   -0.60031956493333
C         1.73820970608027    3.01221304210183   -0.60136794822205
C        -1.56633955231488    2.58719584667648   -1.83217951460507
C        -1.94514853307884    1.41987801411067   -2.59038034810954
C        -2.94093912285028    0.70336233403247   -1.83395538875295
C        -3.18001672833631    1.42717360739051   -0.61341920875571
C        -2.33094921946060    2.58921474092655   -0.60879983193820
C        -2.93447210711650   -0.68750859928979   -1.82436483362131
C        -1.94145451315345   -1.41054455130832   -2.57919853180903
C        -1.56064718389506   -2.57837647056748   -1.82437696703047
C        -2.30911564441338   -2.57741917561666   -0.59654311375529
C        -3.16471749130241   -1.39964987712102   -0.59651012418991
C        -0.98849856842083   -0.71816682592692   -3.31135794213913
C        -0.98905219252109    0.72333285625399   -3.31393734408885
C         0.38280348084872    1.16770807452464   -3.31317713860422
C         1.22883294273315    0.00326372454643   -3.31318873996636
C         0.38228956135227   -1.16413846389920   -3.31395145012576
Cl       -2.08952626951577    0.25968283223619    5.21280835674300
Cl       -0.39886420281798   -2.06702869249539    5.21280249817010
62
 energy: -137.558472511079 gnorm: 0.015502480872 xtb: 6.4.1 (a3dbbd7)
C        -1.32526093434855    0.00953659824415    3.58658129569208
C        -0.40036175744262   -1.26355991503349    3.58664666806608
C         0.98369676857533   -0.71879115780343    3.29044087467909
C         0.96609051541654    0.70183114118485    3.26093864739037
C        -0.37960347669557    1.15745599810789    3.29029959533621
C         2.32412592057627   -2.58409758033297    0.57338732626315
C         3.16452819872662   -1.41431947672847    0.57435429706990
C         2.91538991119001   -0.69002406339698    1.79597092711736
C         1.92352032301586   -1.40040160625312    2.55372527347089
C         1.56651817565216   -2.59089487538978    1.79741705606631
C         3.18128056407852    1.41954384272329    0.57494492032901
C         2.33312630201241    2.58688349286160    0.57495071582593
C         1.57154166332725    2.57487546998298    1.79704690393697
C         1.94068025908303    1.40997105040744    2.54460415882522
C         2.93451979824931    0.69893833385453    1.79703577551543
C        -0.36722788823116    3.44670466883274    0.57437235863063
C        -1.73945718234659    3.00891121887169    0.57340672679435
C        -1.97998529212540    2.29044104433636    1.79741837113104
C        -0.73743729054081    2.26203979987545    2.55371588178189
C         0.24463697297678    2.98588719181842    1.79597716470075
C        -3.39836561047401    0.73386934745438    0.56912646995287
C        -3.38433142085594   -0.70078012829595    0.57436214612126
C        -2.75754478673116   -1.12292061197439    1.82000546660473
C        -2.41003783585499   -0.00724267438216    2.55617257902966
C        -2.77663464648553    1.16550057208503    1.79526757485646
C        -1.71231124981703   -3.00220466938115    0.57437037761195
C        -0.35214619526238   -3.45862065282362    0.56908410010319
C         0.25039875207971   -3.00087349536267    1.79530019930108
C        -0.75175725439897   -2.28990472776802    2.55616677013705
C        -1.92013435584209   -2.27557906007919    1.81995275770610
C        -0.23699927707922   -3.01399999968349   -1.83596402929282
C         0.75160968039615   -2.28897068401901   -2.59405826348301
C         1.97923426696096   -2.28995152012255   -1.83651053082011
C         1.74494038147634   -3.01866976949813   -0.61324868635586
C         0.37714290791700   -3.46470025164410   -0.61512252738683
C         2.79130285293376   -1.16663775227381   -1.83290133287538
C         2.41120648453871    0.00331152346411   -2.58724710495793
C         2.78894390640457    1.16614084097144   -1.82884289371340
C         3.40197686821311    0.72237390670357   -0.60469303930772
C         3.39853115777849   -0.72037767902778   -0.60337197256349
C         1.97087225060110    2.29209066079205   -1.82882961113668
C         0.74822709443565    2.29219103842688   -2.58723611917372
C        -0.24700657066757    3.01520163143539   -1.83288695560768
C         0.36505829184451    3.45479472276685   -0.60334907645789
C         1.73826657991964    3.01223533312979   -0.60467326551596
C        -1.56628661842941    2.58999847823496   -1.83649152660140
C        -1.94471037849781    1.42214976086833   -2.59404334845188
C        -2.93974127039688    0.70595945301850   -1.83595715648805
C        -3.17852222521307    1.42927212869857   -0.61509624669864
C        -2.33172895246327    2.59234348351930   -0.61322866041899
C        -2.93100614041345   -0.68507451781834   -1.82549507479170
C        -1.93916078297986   -1.40888995099508   -2.58093835212975
C        -1.55726714650004   -2.57587533910179   -1.82552494928489
C        -2.30131590662198   -2.57150620740782   -0.59645298706433
C        -3.15675101285990   -1.39408107716124   -0.59642710407872
C        -0.98675259430792   -0.71690923030894   -3.31391030766890
C        -0.98794849594309    0.72469249138390   -3.31664088160981
C         0.38388915089201    1.16847917510639   -3.31628255401089
C         1.22990583078931    0.00404920476022   -3.31628943935599
C         0.38392818463615   -1.16351814819009   -3.31664740236387
Cl       -2.10327783615184    0.27997936381759    5.22578391866011
Cl       -0.38421512439790   -2.08665258174586    5.22584425630260
62
 energy: -137.558826709040 gnorm: 0.006820498330 xtb: 6.4.1 (a3dbbd7)
C        -1.32974381449063    0.01132317934296    3.59380433418163
C        -0.39989641421340   -1.26836529199374    3.59389683784861
C         0.97851003660892   -0.72232137290730    3.28988177289351
C         0.96132901703600    0.69839695668014    3.25633606240369
C        -0.38458486572804    1.15367418482893    3.28976185864356
C         2.32579499998836   -2.58649562101768    0.57292997864812
C         3.16354574553155   -1.41515322871070    0.57418358426509
C         2.91194655018786   -0.69085518031130    1.79529428313747
C         1.92176938363098   -1.40200173880143    2.55362211737124
C         1.56850224566068   -2.59401285525345    1.79731443046161
C         3.18106932619817    1.41942222098284    0.57483731153720
C         2.33293699667423    2.58672538075908    0.57483777430905
C         1.56945040696317    2.57309597349740    1.79622338733985
C         1.93664038549427    1.40703664712052    2.54219856442537
C         2.93216966001768    0.69750452263507    1.79621573979028
C        -0.36832104688204    3.44602868141416    0.57420332483131
C        -1.74121204803575    3.01123939378312    0.57294329132353
C        -1.98236945749906    2.29331195113799    1.79731940424225
C        -0.73952141813377    2.26087930057070    2.55361095755857
C         0.24278735697022    2.98287483689300    1.79530452447533
C        -3.39702570482860    0.73465191123675    0.57015791192730
C        -3.38040239977924   -0.69888924732491    0.57472619339946
C        -2.75388918416345   -1.12054664049195    1.82077989305810
C        -2.40695863194808   -0.00552095226289    2.55904114429655
C        -2.77853025718379    1.16769392221158    1.79802339425784
C        -1.70929280525177   -2.99901800368286    0.57472825953479
C        -0.35098362294439   -3.45754906907940    0.57012119551626
C         0.25191690672616   -3.00332165039926    1.79802265315929
C        -0.74916635492750   -2.28740001651366    2.55901981502995
C        -1.91674036016006   -2.27276146371313    1.82075068197639
C        -0.23644879951167   -3.01423827203848   -1.83539698008039
C         0.75227706317286   -2.28957891066907   -2.59432623244724
C         1.98033315458922   -2.29097215932097   -1.83713213906795
C         1.74628000591653   -3.02013603860360   -0.61389026615279
C         0.37776330450675   -3.46560526890176   -0.61484322800439
C         2.79203361569349   -1.16692178154581   -1.83321757482850
C         2.41185831920024    0.00315256144209   -2.58756459689562
C         2.78952632163255    1.16641124942475   -1.82911605864320
C         3.40213368125238    0.72221523010715   -0.60469198598155
C         3.39901356480978   -0.72087774949159   -0.60336795171840
C         1.97131329452135    2.29255519431827   -1.82910773946137
C         0.74828789572942    2.29285084907794   -2.58756246023000
C        -0.24704452238779    3.01597349478502   -1.83320770472755
C         0.36473301006634    3.45539739438183   -0.60334998483297
C         1.73816320200296    3.01243827342025   -0.60468165026638
C        -1.56690938176291    2.59134980938506   -1.83712874663847
C        -1.94506711661048    1.42296697605582   -2.59432581752710
C        -2.93979585248181    0.70655761637807   -1.83538593245498
C        -3.17916093913964    1.43013551041135   -0.61481042196938
C        -2.33270436352002    2.59406099998583   -0.61387635881221
C        -2.93054498744721   -0.68465995133687   -1.82532330310584
C        -1.93922468840584   -1.40894104746691   -2.58146966698248
C        -1.55673047460298   -2.57557340377358   -1.82534255752093
C        -2.29944684451409   -2.56999536069505   -0.59604198534153
C        -3.15477979775363   -1.39275979849280   -0.59603029570008
C        -0.98665841374164   -0.71685112314017   -3.31424970071279
C        -0.98802468701323    0.72508917122746   -3.31671170299684
C         0.38395290023841    1.16871779247104   -3.31644217248426
C         1.23016065113871    0.00402233988969   -3.31644446816774
C         0.38428799770365   -1.16372415446295   -3.31671311892294
Cl       -2.10672653325238    0.29315103863193    5.21896519263978
Cl       -0.37277870722671   -2.09423364834926    5.21900708353634
62
 energy: -137.558924575091 gnorm: 0.002693302207 xtb: 6.4.1 (a3dbbd7)
C        -1.33108613160272    0.01339834375457    3.59263840104235
C        -0.39838350599209   -1.27019625605910    3.59269512745789
C         0.97751992802413   -0.72237147351913    3.28831743889558
C         0.96136267433406    0.69844470390076    3.25573226702971
C        -0.38493827448026    1.15283090325504    3.28825181338163
C         2.32663203451990   -2.58738000482898    0.57368653664428
C         3.16406454867392   -1.41565425427178    0.57497438323126
C         2.91254495746529   -0.69107807486471    1.79614805307429
C         1.92227971555199   -1.40212992111257    2.55362957084458
C         1.56896427482709   -2.59456269288601    1.79772825572732
C         3.18115258464667    1.41947966475484    0.57563630352494
C         2.33302022993994    2.58679980099887    0.57563503411848
C         1.56933016723180    2.57347089749585    1.79701952957120
C         1.93668861333535    1.40707683550212    2.54281111890009
C         2.93247763534280    0.69727969483747    1.79701719465194
C        -0.36863026600373    3.44667214457587    0.57498522648645
C        -1.74178517973694    3.01230357391848    0.57369098831955
C        -1.98275876258940    2.29393423583354    1.79773005837363
C        -0.73949341389562    2.26143234170961    2.55361804804529
C         0.24276429475145    2.98353191640154    1.79615346856719
C        -3.39772378803471    0.73448509915321    0.57047402042556
C        -3.38070418442408   -0.69889395778944    0.57489329422612
C        -2.75323935048453   -1.12050533802929    1.81993712621114
C        -2.40581123654671   -0.00530301367409    2.55781722829485
C        -2.77937064603564    1.16802301050053    1.79819991907472
C        -1.70938548563722   -2.99927482588244    0.57489347713776
C        -0.35138097573674   -3.45824423505360    0.57045299472790
C         0.25198313151602   -3.00422935247438    1.79818229933286
C        -0.74854184333476   -2.28634221472788    2.55778818696222
C        -1.91648271434152   -2.27215782844494    1.81993251592311
C        -0.23683709067889   -3.01449077782348   -1.83455250946472
C         0.75206638378116   -2.28979432190298   -2.59356678501643
C         1.98025317584474   -2.29135472353476   -1.83639067777185
C         1.74634115050763   -3.02047726291489   -0.61313689188358
C         0.37749357315789   -3.46626908189890   -0.61426486177188
C         2.79195821041544   -1.16711222776190   -1.83238269236017
C         2.41183136066325    0.00290043659114   -2.58690493555517
C         2.78953487796931    1.16640102015133   -1.82837829684574
C         3.40218826800564    0.72211454566270   -0.60383717242253
C         3.39937316743843   -0.72118791026105   -0.60255634061108
C         1.97131590676562    2.29256561207665   -1.82837628037170
C         0.74804898939998    2.29289515339063   -2.58690704561814
C        -0.24723909568403    3.01596056095713   -1.83237933532247
C         0.36455868017201    3.45584068479394   -0.60254892093001
C         1.73809105725514    3.01252469821599   -0.60383448846015
C        -1.56728627405600    2.59139111534952   -1.83639431629399
C        -1.94532589706456    1.42283390850173   -2.59357061310827
C        -2.94014648630708    0.70627021031751   -1.83454355541043
C        -3.17990698495538    1.43011095027871   -0.61424374517549
C        -2.33300442973880    2.59422940130919   -0.61313191029646
C        -2.93123517163477   -0.68501285831416   -1.82502710666425
C        -1.93984068245033   -1.40938703057646   -2.58140518158549
C        -1.55728059358419   -2.57611252715472   -1.82503264088820
C        -2.30030357200515   -2.57058451913193   -0.59585891538629
C        -3.15561352141440   -1.39337646589368   -0.59585819438012
C        -0.98703713845471   -0.71713031440976   -3.31377671702389
C        -0.98832989328258    0.72497059720032   -3.31608758699280
C         0.38371150968524    1.16864696817862   -3.31573687276188
C         1.23002295281782    0.00380455427079   -3.31573561385536
C         0.38408240622234   -1.16398431432854   -3.31608664351327
Cl       -2.10706659517389    0.30056361727680    5.20907383406436
Cl       -0.36568477057937   -2.09696585785418    5.20907328881699
62
 energy: -137.558943940900 gnorm: 0.001687089629 xtb: 6.4.1 (a3dbbd7)
C        -1.33113019010668    0.01442086864200    3.59087046066496
C        -0.39752145010004   -1.27049015163830    3.59089442913060
C         0.97842927234232   -0.72141135714960    3.28810337359556
C         0.96274738795149    0.69946240769905    3.25708708455687
C        -0.38373906397775    1.15344502973479    3.28807213976280