63
 energy: -142.079980349987 gnorm: 0.135377569160 xtb: 6.4.1 (a3dbbd7)
C        -1.29585809763920    0.00401118881931    3.54517689231029
C        -0.36796043466059   -1.17243305044266    3.30515820987539
C         0.98298838984909   -0.72191219210780    3.27512267957929
C         0.98156472691728    0.71960753564614    3.26971969840148
C        -0.37066843430553    1.17924059866277    3.30150764324135
C         2.33648296598357   -2.58548060321166    0.57950289371033
C         3.18657767566203   -1.41946403917212    0.57781419536533
C         2.94957050634668   -0.69854930588343    1.80123308089156
C         1.95308396825138   -1.41752165469557    2.55613481597303
C         1.57961582984989   -2.57968580834158    1.80518673258983
C         3.18767024138397    1.40991878537575    0.57593180017933
C         2.33807592119235    2.57402574463448    0.57591940987423
C         1.57683795447400    2.56605672116665    1.79975339077111
C         1.95304946478205    1.40835201085528    2.55205927541471
C         2.95072023090319    0.68875745027160    1.80098024590342
C        -0.36516779392141    3.42666371311492    0.57921714402649
C        -1.72924376731069    3.01648005687427    0.58287705229366
C        -2.09463355901587    2.46231282969886    1.94730853737491
C        -0.73027134368917    2.28553619224850    2.58224921046650
C         0.24829448370074    2.97593693088527    1.80334175247540
C        -3.37466967439567    0.70300551329579    0.57574930039426
C        -3.39003092771629   -0.73268815670587    0.56838248256510
C        -2.76818811346571   -1.16356142396752    1.78871572205038
C        -2.38904763717889    0.02437925858140    2.53264263708558
C        -2.74834472581071    1.12995086235998    1.81420011509538
C        -1.73481952354600   -3.00995345707075    0.57938225067925
C        -0.36149853487188   -3.44686666226009    0.58178847329193
C         0.25217194576597   -2.99475012297255    1.80551622011247
C        -0.72930832450935   -2.27346636848304    2.56467955460776
C        -1.97147545437730   -2.28746259180062    1.79868366143107
C        -0.24419850633136   -3.01431906314620   -1.82647673825261
C         0.74940205395547   -2.29291975806330   -2.58286291039202
C         1.97453700920709   -2.29239152825096   -1.82543977569151
C         1.74139873391846   -3.01127177396538   -0.59946235539016
C         0.36858334361035   -3.45436466601281   -0.59762914030018
C         2.79442417375665   -1.17031401238235   -1.82833550582627
C         2.41574661868216   -0.00512369138436   -2.58546959698227
C         2.79806943058290    1.16104826437995   -1.83045397159780
C         3.41356646756867    0.71553904959985   -0.60565027126811
C         3.41126633543504   -0.72579612437446   -0.60436594375932
C         1.98256115237360    2.28538932475628   -1.82964816243890
C         0.75350030248264    2.28551308222168   -2.58573232043658
C        -0.23508280223273    3.00436687434747   -1.82344140510130
C         0.37359850933878    3.44286488634390   -0.60220138875814
C         1.74684322375821    3.00246743965493   -0.60372642363152
C        -1.55566653240424    2.56818250404503   -1.80941223602174
C        -1.93859434660526    1.40592010808590   -2.57168095899201
C        -2.93551210472019    0.68461262540438   -1.82146846795257
C        -3.16898901543324    1.39767486955451   -0.59605965569985
C        -2.30435127708354    2.57332623889815   -0.58497549494069
C        -2.94114405324375   -0.70773319319533   -1.83440725651199
C        -1.94505174587464   -1.42387954866205   -2.59102123509086
C        -1.56548890453788   -2.59170746569988   -1.83211639417485
C        -2.32839595521473   -2.59312664308342   -0.60918315809929
C        -3.17773883520354   -1.43218193780650   -0.61434027481289
C        -0.98775846768414   -0.72638522805960   -3.31322849835342
C        -0.98659864734294    0.71557045446948   -3.30737103344774
C         0.38544609972999    1.16109326157285   -3.31071431262535
C         1.23106807690940   -0.00470839623161   -3.31198800118088
C         0.38446650877846   -1.17000629315169   -3.31255499434049
Cl       -1.95494402211016   -0.00808767691631    5.23350834623694
Cl       -3.13453400293270    3.62205440046694    2.87428256889563
Cl        2.38988489401147   -3.89940569168629    2.74215176564461
63
 energy: -142.104035079256 gnorm: 0.057150655157 xtb: 6.4.1 (a3dbbd7)
C        -1.29687882442607    0.00562279461738    3.54438357155120
C        -0.37141968987424   -1.17066730949068    3.30493837038061
C         0.98073766181575   -0.71192269476198    3.26402075122472
C         0.98165544873968    0.72655059388973    3.26970474739350
C        -0.37172129748887    1.18167318789041    3.30041593143750
C         2.33734645917372   -2.57612781727324    0.56653808806420
C         3.17745214859657   -1.41342656876958    0.57109838837743
C         2.93942410814596   -0.69116097361481    1.79628317321710
C         1.95353532542845   -1.40173150313931    2.55457127636681
C         1.62905800787212   -2.65934533243740    1.86055936194078
C         3.18767817654354    1.41515372319254    0.57402732734092
C         2.33838188695160    2.57899337698190    0.57431690299165
C         1.57684561805714    2.57091433633537    1.79788619994047
C         1.95448541527421    1.41527366916118    2.55137991778322
C         2.95096175176197    0.69817983956351    1.80076401113616
C        -0.36615218544419    3.42828304165267    0.57823949402218
C        -1.72995174321773    3.01750897322679    0.58206706629208
C        -2.09543151594911    2.46364913762049    1.94660093587426
C        -0.73102683848940    2.28760207101614    2.58118701266837
C         0.24755752917064    2.97832020221945    1.80206724872791
C        -3.37619991959137    0.70514793498577    0.57497388632434
C        -3.39435031428032   -0.72984360258081    0.56705804025463
C        -2.77449136032512   -1.16091238801811    1.78809403551966
C        -2.39094752785639    0.02583285304923    2.53241969179237
C        -2.74916049097677    1.13127087046769    1.81350892506514
C        -1.74706539871553   -3.00843509267537    0.57671006823576
C        -0.37013153788904   -3.43657509871871    0.58069080144072
C         0.23122641685586   -3.00790502770141    1.80802179335540
C        -0.73617658966610   -2.26878381874928    2.55278580748481
C        -1.98239577455871   -2.28624324878838    1.79552291660727
C        -0.24467047709884   -3.01175147535055   -1.82568429816509
C         0.74971096757653   -2.29059284601193   -2.58417631453685
C         1.97637675877935   -2.28904516669844   -1.83186055595954
C         1.73811346038260   -2.99869530210691   -0.60427564858995
C         0.36500478634778   -3.45271170875303   -0.60058978123630
C         2.79806990964934   -1.16663957886399   -1.83383139234376
C         2.41666027190975   -0.00141749871360   -2.58819136283234
C         2.79891981225116    1.16488551519481   -1.83305337492162
C         3.41364772037051    0.72012713540655   -0.60850111640866
C         3.41201369180795   -0.72134538931737   -0.61144706434515
C         1.98199819444095    2.28857722855942   -1.83147833886079
C         0.75327739049514    2.28735115964520   -2.58699918088324
C        -0.23554589998289    3.00546352954520   -1.82460849435033
C         0.37282513801099    3.44439357253143   -0.60354732946131
C         1.74602252939774    3.00565996344312   -0.60556482121641
C        -1.55574083516218    2.56840859178941   -1.81048435883584
C        -1.93849249190521    1.40677032030371   -2.57277153079820
C        -2.93564392131641    0.68571844957272   -1.82228155509920
C        -3.16953037651211    1.39927200790561   -0.59696078405809
C        -2.30493189097293    2.57411709236954   -0.58580210102402
C        -2.94218326147820   -0.70602025138417   -1.83556809540539
C        -1.94612212578168   -1.42336187529787   -2.59190074191323
C        -1.56888333997375   -2.58984514166672   -1.83375509982571
C        -2.33602120455930   -2.59222181060065   -0.61163763015448
C        -3.18206359214437   -1.42979285614206   -0.61569239603879
C        -0.98776839355404   -0.72543246993778   -3.31510499317790
C        -0.98650092255026    0.71598789715404   -3.30822271265090
C         0.38553099765190    1.16240946036294   -3.31187949709036
C         1.23129080385174   -0.00251883284701   -3.31329906219181
C         0.38428007054382   -1.16808256568734   -3.31372045782821
Cl       -1.95485356184722   -0.00771304761410    5.23430889454873
Cl       -3.13517026906063    3.62261987572886    2.87422666579865
Cl        2.46336678858674   -4.00912946456569    2.81797866378164
63
 energy: -142.109959589948 gnorm: 0.012672695620 xtb: 6.4.1 (a3dbbd7)
C        -1.29724641063387    0.00483019264772    3.54103576938739
C        -0.37170954387735   -1.17290733257468    3.30881348254016
C         0.98259232253374   -0.71445104554566    3.25710249590349
C         0.97865505094863    0.72406371211357    3.26084443784609
C        -0.37383774899984    1.18154498374716    3.29563787221001
C         2.34112624485319   -2.57978180427396    0.56608834220949
C         3.16437611275685   -1.41473058059054    0.56852523537057
C         2.92481747430370   -0.69249642719715    1.79406801965459
C         1.95702879862462   -1.40343798226509    2.55812381227477
C         1.67546070040465   -2.72846145431542    1.90882933668949
C         3.18442397278478    1.41766571950226    0.57231666628832
C         2.33689649725527    2.58291013664779    0.57193376053203
C         1.57551406365335    2.57528212275770    1.79564476150821
C         1.95166273556353    1.41680875866901    2.54616200505306
C         2.94575553811117    0.70016550353289    1.79837407656262
C        -0.36788329399034    3.43119236410664    0.57621798472470
C        -1.73172138903346    3.02061219241918    0.57991718147403
C        -2.09712740251558    2.46676446095921    1.94447828837350
C        -0.73275138976222    2.28933386136452    2.57869954251062
C         0.24586738630053    2.98150327258412    1.79990808522508
C        -3.37888529451463    0.70858106765347    0.57308530516359
C        -3.39847454641412   -0.72627437207038    0.56543870014934
C        -2.77528696419418   -1.15664028712981    1.78563160162522
C        -2.39322310183872    0.02915897311970    2.53111227740878
C        -2.75099324845622    1.13437893895133    1.81173586261868
C        -1.74626595171095   -3.00213590491183    0.57465827356147
C        -0.36596053002834   -3.42714060552602    0.58419396416421
C         0.22886045040015   -3.00775734572112    1.80639996148699
C        -0.72997140197510   -2.26628546448483    2.54403963724209
C        -1.98000725481938   -2.28010331256741    1.79135457024658
C        -0.24471380327690   -3.00833717561828   -1.82176001204386
C         0.74841287539655   -2.28653736379464   -2.58264108936160
C         1.97241060228021   -2.28308860317844   -1.82791359004415
C         1.73875167609206   -2.99499963081259   -0.60001137995529
C         0.36491714828797   -3.45517704054011   -0.60189794024649
C         2.79602172958633   -1.16196230080209   -1.83429290008989
C         2.41646510065998    0.00245833482563   -2.59128883050480
C         2.79776036738760    1.16874573000201   -1.83517396936876
C         3.41055615416147    0.72283191913844   -0.61034779511672
C         3.40687299639695   -0.71929338694436   -0.61326867216212
C         1.98039354271417    2.29278984122994   -1.83408644063429
C         0.75193119821277    2.29082117563830   -2.58924729269690
C        -0.23715126745289    3.00875330364921   -1.82700129422197
C         0.37124454898960    3.44770373743352   -0.60595968533832
C         1.74428502016064    3.00989303828918   -0.60821721132215
C        -1.55697287576213    2.57084730054895   -1.81266162888578
C        -1.93988227960962    1.40973334876568   -2.57476006169399
C        -2.93719184220040    0.68856921325479   -1.82409771265624
C        -3.17115299661766    1.40256244301826   -0.59875850525475
C        -2.30660912768849    2.57695377309536   -0.58779813444229
C        -2.94425633233778   -0.70269093329718   -1.83724453945594
C        -1.94724279213865   -1.42101122931487   -2.59245332460400
C        -1.57126794935243   -2.58655984298271   -1.83517587855339
C        -2.33773277679635   -2.58805111356576   -0.61268231419104
C        -3.18560487716376   -1.42663686823922   -0.61735916964177
C        -0.98894555836299   -0.72262196566688   -3.31687287772702
C        -0.98785163003970    0.71829990882081   -3.30964478949118
C         0.38436766656677    1.16504403355864   -3.31343812392093
C         1.23048258570478    0.00065589854155   -3.31539454516778
C         0.38297175111872   -1.16524645009037   -3.31422930794670
Cl       -1.95449089708659   -0.00528485196550    5.23261522934050
Cl       -3.13663199745958    3.62442414673140    2.87343914007877
Cl        2.51399383769171   -4.09344008422651    2.87371321405237
63
 energy: -142.110268451485 gnorm: 0.007697066452 xtb: 6.4.1 (a3dbbd7)
C        -1.29729919336769    0.00455918269358    3.53986296743185
C        -0.37148514165289   -1.17414449355717    3.31218683073125
C         0.98473151888892   -0.71898680688963    3.25875457180095
C         0.97737771028453    0.72042770075798    3.25569565692109
C        -0.37418363131656    1.18008127423019    3.29187375921062
C         2.34554533664443   -2.58772433097865    0.57026419984774
C         3.16075661320150   -1.41750174171260    0.56915225609810
C         2.92057912742375   -0.69548898311995    1.79485383874045
C         1.96121287663285   -1.41103759910619    2.56408567144426
C         1.68835707333324   -2.74527696157688    1.92050343429424
C         3.18148789018608    1.41756175171411    0.57150938267347
C         2.33554945891917    2.58409902116003    0.57084175089947
C         1.57422575547361    2.57628077415007    1.79442758579267
C         1.94944570654128    1.41563813245415    2.54303674469268
C         2.94224861716195    0.69828123853169    1.79637245747096
C        -0.36904029613078    3.43308215660571    0.57517621842104
C        -1.73290284527615    3.02236545259812    0.57893494116112
C        -2.09817310587057    2.46830228701826    1.94362065327885
C        -0.73344690978441    2.28929075305885    2.57698066992478
C         0.24474689306753    2.98255426320164    1.79850999086730
C        -3.38008766690450    0.70995676426898    0.57250335764579
C        -3.39895513716055   -0.72504695880046    0.56498786965038
C        -2.77387711099514   -1.15514195009248    1.78444718942547
C        -2.39334957223056    0.03034893681706    2.53018643825949
C        -2.75188581376804    1.13578215903713    1.81112037407800
C        -1.74221628068517   -2.99857568144864    0.57401189477427
C        -0.36121103484712   -3.42612010740065    0.58621870765137
C         0.23371567995861   -3.00634264818630    1.80601747963628
C        -0.72492971998722   -2.26677065251141    2.54347359020235
C        -1.97553480312699   -2.27675616664569    1.78964299225950
C        -0.24455896615388   -3.00748589136062   -1.82036858513845
C         0.74767453824975   -2.28419604158358   -2.58057278376192
C         1.97023474925483   -2.28075263133924   -1.82393730115870
C         1.74081800002842   -2.99807923677953   -0.59717239061765
C         0.36589537380482   -3.45811959356947   -0.60296952495426
C         2.79383240249429   -1.16025687385562   -1.83308940229974
C         2.41558367741557    0.00400621596745   -2.59203776383132
C         2.79650114824178    1.17029151883614   -1.83586649353786
C         3.40767244500748    0.72321121065396   -0.61064677941943
C         3.40313973173680   -0.71903106183599   -0.61188416155479
C         1.97949901961672    2.29491848408036   -1.83539465572948
C         0.75102880584994    2.29303278817354   -2.59062483440616
C        -0.23828805196266    3.01086640327020   -1.82827235371968
C         0.37021944696460    3.44991495820327   -0.60714755809043
C         1.74327706109295    3.01207360687731   -0.60939114664014
C        -1.55803639428047    2.57251067156370   -1.81374634379306
C        -1.94093523291701    1.41143145911145   -2.57578319730929
C        -2.93811778340449    0.68992639004265   -1.82491404687678
C        -3.17222466820675    1.40404941923708   -0.59942239947543
C        -2.30780140116522    2.57853640718716   -0.58874281122301
C        -2.94487171977596   -0.70131842524964   -1.83791383288461
C        -1.94728533541179   -1.41969716353270   -2.59277752828812
C        -1.57125556172873   -2.58505297495852   -1.83574202452218
C        -2.33620244574498   -2.58571728178580   -0.61267001156751
C        -3.18568004413352   -1.42535938009220   -0.61781294162345
C        -0.98954064664629   -0.72100727027866   -3.31763034094274
C        -0.98875148939432    0.71990391335342   -3.31052864700201
C         0.38351086043445    1.16687577347037   -3.31450633123554
C         1.22960649106744    0.00243462315462   -3.31595406182282
C         0.38232350361295   -1.16370083608350   -3.31371890049249
Cl       -1.95500007571293   -0.00050365960928    5.23197367239931
Cl       -3.13724635301259    3.62645696600209    2.87240339287793
Cl        2.51940859395794   -4.11151860643674    2.88206849009274
63
 energy: -142.110360351248 gnorm: 0.004580406061 xtb: 6.4.1 (a3dbbd7)
C        -1.29745471249764    0.00491776662458    3.53961791563313
C        -0.37194977821914   -1.17420670254685    3.31462960304290
C         0.98562008251637   -0.72125786080358    3.26010074592689
C         0.97693922656569    0.71844269911131    3.25302329739898
C        -0.37400778613773    1.17920950711351    3.28987182247055
C         2.34748947201707   -2.59199522489490    0.57263627313514
C         3.15849651213714   -1.41857887302031    0.56926521864741
C         2.91795965763376   -0.69676843315487    1.79512603347235
C         1.96312753451730   -1.41542536291353    2.56745561133106
C         1.69375810481978   -2.75183252317530    1.92500262200080
C         3.17994729440940    1.41744396701897    0.57108707217952
C         2.33503805153197    2.58475850937446    0.57060057797481
C         1.57366617550973    2.57687730901407    1.79406624552981
C         1.94836271335795    1.41510879164242    2.54162836559549
C         2.94015540939058    0.69717195743723    1.79497587010359
C        -0.36953768164841    3.43390256718919    0.57499231831481
C        -1.73331707906934    3.02274856486938    0.57888206692478
C        -2.09866972466988    2.46872325402978    1.94376500521756
C        -0.73363685453202    2.28935598755648    2.57672387144174
C         0.24426734253942    2.98296706977420    1.79808040855495
C        -3.38068451012385    0.71020177971640    0.57265561494022
C        -3.39895459987940   -0.72490787648090    0.56497168116445
C        -2.77317365105522   -1.15472034043128    1.78406501473647
C        -2.39343137751891    0.03056250611216    2.52997118788883
C        -2.75265690248538    1.13624820872948    1.81137638374281
C        -1.73954671652879   -2.99644670736424    0.57355441285119
C        -0.35809448589711   -3.42553478496031    0.58700600255182
C         0.23712539748328   -3.00374127410247    1.80488508746667
C        -0.72193371525464   -2.26656754733808    2.54332832697119
C        -1.97264690615446   -2.27475411690502    1.78848848382045
C        -0.24441920774731   -3.00767891411809   -1.82025192666005
C         0.74744308920294   -2.28309443884535   -2.57945387169503
C         1.96937110207169   -2.27958138835203   -1.82189787050452
C         1.74177810518916   -2.99972558764293   -0.59607338039554
C         0.36639258843463   -3.46019145621563   -0.60443172566634
C         2.79286426113653   -1.15952251773704   -1.83265542927223
C         2.41528962682100    0.00470520527996   -2.59256196921483
C         2.79607791108079    1.17093276030721   -1.83634460400932
C         3.40614138644952    0.72338619759497   -0.61077344183299
C         3.40092811365950   -0.71866520183634   -0.61098663594693
C         1.97932430932744    2.29585584490875   -1.83595470398380
C         0.75076946118044    2.29386783466660   -2.59112538913308
C        -0.23866718338667    3.01151676324501   -1.82855848762505
C         0.36988669598778    3.45078051130806   -0.60740486971567
C         1.74302117336477    3.01310496185182   -0.60973975262740
C        -1.55831058181731    2.57278372472848   -1.81386307997900
C        -1.94121764594111    1.41178370503795   -2.57597133134860
C        -2.93834123061737    0.69004477897351   -1.82500606583249
C        -3.17252341862013    1.40421394411658   -0.59935286524009
C        -2.30813068415018    2.57869973006908   -0.58876889182088
C        -2.94497404569937   -0.70117216633151   -1.83812879471536
C        -1.94709595728124   -1.41947353361667   -2.59304996553601
C        -1.57105851605822   -2.58474317537023   -1.83631485701631
C        -2.33511361286688   -2.58490206715486   -0.61271651002030
C        -3.18531889429493   -1.42515908753875   -0.61785809315012
C        -0.98967511905987   -0.72056691546680   -3.31804316005667
C        -0.98902182881871    0.72037682569871   -3.31087100836740
C         0.38322078296733    1.16757439886079   -3.31500289320438
C         1.22925032862434    0.00313343770817   -3.31616400095814
C         0.38221513477933   -1.16324526389408   -3.31357619042893
Cl       -1.95558071620270    0.00377665733088    5.23209821730319
Cl       -3.13710400255799    3.62783773681103    2.87195684839428
Cl        2.51615375587750   -4.11621547449474    2.88147343596632
63
 energy: -142.110399116308 gnorm: 0.002581321914 xtb: 6.4.1 (a3dbbd7)
C        -1.29746027529266    0.00516892017877    3.53983609543818
C        -0.37244900768111   -1.17392712789220    3.31594604598565
C         0.98578506151600   -0.72176081075055    3.26047614195909
C         0.97703572430147    0.71778873406431    3.25230602911082
C        -0.37371778187622    1.17877708706632    3.28922050984758
C         2.34762335294210   -2.59286379320475    0.57321951788085
C         3.15736776544789   -1.41849180550860    0.56904048589705
C         2.91672886401213   -0.69682173113320    1.79503658495144
C         1.96340288564976   -1.41663689081457    2.56830799244732
C         1.69539092435339   -2.75389200710093    1.92632237704764
C         3.17956702074237    1.41743762534107    0.57101067636366
C         2.33500962551437    2.58500868822972    0.57078798535039
C         1.57359636310295    2.57715439634014    1.79420228215768
C         1.94817900893749    1.41510230539968    2.54146503407823
C         2.93952265032551    0.69690032020031    1.79442677652051
C        -0.36964084921298    3.43392720867839    0.57516442460988
C        -1.73333269029304    3.02244037349918    0.57909962176629
C        -2.09878562039541    2.46858010061797    1.94414814301773
C        -0.73362153955511    2.28936487700000    2.57708368345177
C         0.24417664926935    2.98297640863586    1.79816998915854
C        -3.38082873108500    0.70997037577148    0.57302548503286
C        -3.39882024270210   -0.72517865204206    0.56515112472111
C        -2.77303364503764   -1.15482716508976    1.78418712941391
C        -2.39342063097093    0.03034045366720    2.53017865615178
C        -2.75301940772848    1.13619071249145    1.81187120819549
C        -1.73854514369290   -2.99568725190587    0.57337040465723
C        -0.35673858707661   -3.42487520693589    0.58706189387876
C         0.23859394448957   -3.00118343970796    1.80355507378441
C        -0.72072316986931   -2.26593650601540    2.54298528442016
C        -1.97151735866225   -2.27403241205656    1.78794587410961
C        -0.24424741933561   -3.00820584550539   -1.82059733666119
C         0.74756237539765   -2.28292220842825   -2.57920314129760
C         1.96936578033970   -2.27920242185740   -1.82135074310102
C         1.74196274794809   -2.99987829571144   -0.59600176527750
C         0.36655560890819   -3.46112174790660   -0.60548465527165
C         2.79282308276549   -1.15935003346858   -1.83272586048103
C         2.41541401880648    0.00488939415549   -2.59284325125590
C         2.79615301484177    1.17105286367086   -1.83656666208091
C         3.40577846512557    0.72348594186353   -0.61079890906220
C         3.40027916155749   -0.71833921552293   -0.61069228829755
C         1.97942296180758    2.29600550095435   -1.83599813686382
C         0.75079886636363    2.29383520876436   -2.59104838514825
C        -0.23868437269156    3.01134454932320   -1.82838217260520
C         0.36988336512027    3.45073646591830   -0.60723932645262
C         1.74307285586036    3.01329821419255   -0.60964444611484
C        -1.55822602209183    2.57239692088516   -1.81360816909698
C        -1.94112358421019    1.41147057050146   -2.57576062243653
C        -2.93822141695489    0.68964150182679   -1.82476274911099
C        -3.17242446142545    1.40381048222615   -0.59905119384769
C        -2.30806144353020    2.57824793224564   -0.58849838512063
C        -2.94485763104089   -0.70152240866949   -1.83803733191255
C        -1.94689073328027   -1.41977626757499   -2.59313084275368
C        -1.57088484006431   -2.58500438973167   -1.83667329243059
C        -2.33470421825692   -2.58501716190105   -0.61275030059773
C        -3.18498758361158   -1.42542555255849   -0.61768950345903
C        -0.98957924964906   -0.72074914587071   -3.31813974266692
C        -0.98897473282686    0.72021234289444   -3.31083778834626
C         0.38323267833447    1.16754157243578   -3.31502211543692
C         1.22925735191496    0.00317423160961   -3.31613439192621
C         0.38237698097158   -1.16339833329598   -3.31366544729158
Cl       -1.95592567535127    0.00670586328924    5.23256554275113
Cl       -3.13679151753552    3.62838913669700    2.87181998762802
Cl        2.51015210011277   -4.11499880536994    2.87781077135749
63
 energy: -142.110412754367 gnorm: 0.001455121539 xtb: 6.4.1 (a3dbbd7)
C        -1.29732350542329    0.00514885457963    3.54011689834977
C        -0.37259636592435   -1.17375823991323    3.31623905477832
C         0.98573525605996   -0.72136297900447    3.26030531861350
C         0.97731777669503    0.71797637710093    3.25271073522848
C        -0.37354521503340    1.17874525693205    3.28943385441295
C         2.34715800996183   -2.59196843970924    0.57279522534153
C         3.15738962646077   -1.41806265665457    0.56885557416946
C         2.91682508352658   -0.69641895002683    1.79493418008813
C         1.96308566399332   -1.41594828707955    2.56783623501996
C         1.69525837229168   -2.75401734717120    1.92633732101421
C         3.17986355948712    1.41751485811434    0.57109447012441
C         2.33515549639772    2.58498358713955    0.57097115052296
C         1.57376310488023    2.57716401905321    1.79441400218206
C         1.94847575649417    1.41530523060082    2.54183320131406
C         2.93990942419856    0.69713283185171    1.79455787289558
C        -0.36955995256617    3.43364901575987    0.57534266643615
C        -1.73322121013550    3.02206864855919    0.57925631783750
C        -2.09870239236405    2.46830694855855    1.94435639537147
C        -0.73354756916478    2.28932995990656    2.57742313488038
C         0.24428711932418    2.98285358375343    1.79837731896816
C        -3.38073852482851    0.70968891672260    0.57324833932933
C        -3.39875532614037   -0.72545087416935    0.56529402127378
C        -2.77316291988738   -1.15506306787667    1.78443766067701
C        -2.39334725988963    0.03008287315379    2.53045131108976
C        -2.75297626982613    1.13594602617211    1.81215171298958
C        -1.73878178026533   -2.99594917751782    0.57341967905956
C        -0.35679968991332   -3.42446414740029    0.58682431057980
C         0.23848872923614   -2.99987629346661    1.80278613366800
C        -0.72083333773027   -2.26538990535233    2.54265883577296
C        -1.97172559587018   -2.27426733289201    1.78797245642983
C        -0.24409486332193   -3.00855842714883   -1.82087116765951
C         0.74777592265413   -2.28320950933036   -2.57945671362568
C         1.96968623828260   -2.27930673329103   -1.82163331396337
C         1.74188886227138   -2.99941952294185   -0.59629511347682
C         0.36658202416888   -3.46113171165877   -0.60572950792777
C         2.79316105266206   -1.15943922319123   -1.83292662717233
C         2.41562836251907    0.00482002632264   -2.59287184736013
C         2.79634147622253    1.17096778879460   -1.83656887908407
C         3.40608571615938    0.72353869458374   -0.61079397845228
C         3.40066910579405   -0.71821586472206   -0.61081229524242
C         1.97950324005800    2.29582530198838   -1.83584970044011
C         0.75086312976628    2.29354848360213   -2.59082783355725
C        -0.23862153134875    3.01101889695411   -1.82817825620074
C         0.36995412598204    3.45041200874957   -0.60705477170120
C         1.74315275415124    3.01310247261439   -0.60948643451042
C        -1.55812688052172    2.57203430414241   -1.81340785646373
C        -1.94099689917908    1.41112170746619   -2.57555168512994
C        -2.93807843137470    0.68928987333729   -1.82454422869932
C        -3.17227684027771    1.40343925822001   -0.59885909590195
C        -2.30795047099260    2.57786465546597   -0.58830466154140
C        -2.94473445351565   -0.70184480827634   -1.83787289767611
C        -1.94678846231357   -1.42010666979768   -2.59306620774942
C        -1.57079876366052   -2.58532747495664   -1.83674083664366
C        -2.33478212309593   -2.58542942150632   -0.61275849580674
C        -3.18489666700731   -1.42572807427084   -0.61754404390955
C        -0.98946434770429   -0.72103910013629   -3.31807314871899
C        -0.98887139278116    0.71992022598445   -3.31068828980222
C         0.38331702703831    1.16728266665896   -3.31485625727415
C         1.22939254102404    0.00298640397453   -3.31604082845206
C         0.38253983083187   -1.16366177435008   -3.31378115944432
Cl       -1.95601937999613    0.00761803071866    5.23295492842767
Cl       -3.13665918186344    3.62823809465177    2.87185832820694