156
 energy: -487.656378342004 gnorm: 10.328682063030 xtb: 6.4.1 (a3dbbd7)
C        -1.23626340000000    0.00000000000000    3.32997640000000
C        -0.38202640000000   -1.17575640000000    3.32997640000000
C         1.00015810000000   -0.72665740000000    3.32997640000000
C         1.00015810000000    0.72665740000000    3.32997640000000
C        -0.38202640000000    1.17575640000000    3.32997640000000
C         2.34433560000000   -2.60145750000000    0.59464210000000
C         3.19857260000000   -1.42570110000000    0.59464210000000
C         2.96246730000000   -0.69904370000000    1.83090550000000
C         1.96230920000000   -1.42570110000000    2.59495830000000
C         1.58028280000000   -2.60145750000000    1.83090550000000
C         3.19857260000000    1.42570110000000    0.59464210000000
C         2.34433560000000    2.60145750000000    0.59464210000000
C         1.58028280000000    2.60145750000000    1.83090550000000
C         1.96230920000000    1.42570110000000    2.59495830000000
C         2.96246730000000    0.69904370000000    1.83090550000000
C        -0.36750900000000    3.48258920000000    0.59464210000000
C        -1.74969350000000    3.03349030000000    0.59464210000000
C        -1.98579880000000    2.30683290000000    1.83090550000000
C        -0.74953540000000    2.30683290000000    2.59495830000000
C         0.25062270000000    3.03349030000000    1.83090550000000
C        -3.42570570000000    0.72665740000000    0.59464210000000
C        -3.42570570000000   -0.72665740000000    0.59464210000000
C        -2.80757400000000   -1.17575640000000    1.83090550000000
C        -2.42554760000000    0.00000000000000    2.59495830000000
C        -2.80757400000000    1.17575640000000    1.83090550000000
C        -1.74969350000000   -3.03349030000000    0.59464210000000
C        -0.36750900000000   -3.48258920000000    0.59464210000000
C         0.25062270000000   -3.03349030000000    1.83090550000000
C        -0.74953540000000   -2.30683290000000    2.59495830000000
C        -1.98579880000000   -2.30683290000000    1.83090550000000
C        -0.25062270000000   -3.03349030000000   -1.83090550000000
C         0.74953540000000   -2.30683290000000   -2.59495830000000
C         1.98579880000000   -2.30683290000000   -1.83090550000000
C         1.74969350000000   -3.03349030000000   -0.59464210000000
C         0.36750900000000   -3.48258920000000   -0.59464210000000
C         2.80757400000000   -1.17575640000000   -1.83090550000000
C         2.42554760000000    0.00000000000000   -2.59495830000000
C         2.80757400000000    1.17575640000000   -1.83090550000000
C         3.42570570000000    0.72665740000000   -0.59464210000000
C         3.42570570000000   -0.72665740000000   -0.59464210000000
C         1.98579880000000    2.30683290000000   -1.83090550000000
C         0.74953540000000    2.30683290000000   -2.59495830000000
C        -0.25062270000000    3.03349030000000   -1.83090550000000
C         0.36750900000000    3.48258920000000   -0.59464210000000
C         1.74969350000000    3.03349030000000   -0.59464210000000
C        -1.58028280000000    2.60145750000000   -1.83090550000000
C        -1.96230920000000    1.42570110000000   -2.59495830000000
C        -2.96246730000000    0.69904370000000   -1.83090550000000
C        -3.19857260000000    1.42570110000000   -0.59464210000000
C        -2.34433560000000    2.60145750000000   -0.59464210000000
C        -2.96246730000000   -0.69904370000000   -1.83090550000000
C        -1.96230920000000   -1.42570110000000   -2.59495830000000
C        -1.58028280000000   -2.60145750000000   -1.83090550000000
C        -2.34433560000000   -2.60145750000000   -0.59464210000000
C        -3.19857260000000   -1.42570110000000   -0.59464210000000
C        -1.00015810000000   -0.72665740000000   -3.32997640000000
C        -1.00015810000000    0.72665740000000   -3.32997640000000
C         0.38202640000000    1.17575640000000   -3.32997640000000
C         1.23626340000000    0.00000000000000   -3.32997640000000
C         0.38202640000000   -1.17575640000000   -3.32997640000000
C        -1.76086815247998    0.00000000000000    4.78849957557021
F        -0.76911826531252    0.00000000000000    5.67468926254662
F        -2.50968386795825   -1.06794314680471    5.04863888333743
F        -2.50968386795825    1.06794314680471    5.04863888333743
C        -0.54413818249354   -1.67468516033722    4.78849957845317
F        -0.23767107904745   -0.73147481112462    5.67468925997942
F        -1.79120914301982   -2.05683909935453    5.04863874564184
F         0.24013968171955   -2.71686350152345    5.04863903502921
C         1.42457227037960   -1.03501233722714    4.78849957248258
F         0.62223011468481   -0.45207589682711    5.67468926529602
F         1.40265511061956   -2.33913928186680    5.04863905501621
F         2.65809836182651   -0.61117154425495    5.04863869666890
C         1.42457227037960    1.03501233722714    4.78849957248258
F         0.62223011468481    0.45207589682711    5.67468926529602
F         2.65809836182651    0.61117154425495    5.04863869666891
F         1.40265511061956    2.33913928186680    5.04863905501621
C         3.37204091334889   -3.72927672645244    0.86730596148276
F         4.06564647311729   -3.51265957144658    1.98125763710227
F         4.25569947457670   -3.84739838595791   -0.11965645964809
F         2.78580317558591   -4.91533944031226    1.00324916143780
C         4.58877084110522   -2.05459160147071    0.86730597290559
F         4.59709252483521   -2.78118520641283    1.98125951001435
F         4.97417519512416   -2.85850196315549   -0.11965482382298
F         5.53562669678859   -1.13053295630600    1.00324569798425
C         3.37204091334889    3.72927672645244    0.86730596148276
F         4.06564647311729    3.51265957144658    1.98125763710227
F         4.25569947457670    3.84739838595791   -0.11965645964809
F         2.78580317558591    4.91533944031226    1.00324916143780
C         2.28376457660886    3.72927671755932    2.62817408867206
F         3.59030321655004    3.51265997057976    2.75037870097715
F         2.14318168460923    4.91533956626619    2.04303190988612
F         1.79618325340524    3.84739782561575    3.85992562899767
C         2.82790274436383    2.05459160758554    3.71645040671519
F         3.82797483682855    2.78118494419178    3.22571836876305
F         2.11749631416700    2.85850222732984    4.50254863174647
F         3.37293748548841    1.13053297859378    4.50255013394648
C        -2.50473491433418    4.35941144902977    0.86730593917895
F        -2.08438487052912    4.95213043104453    1.98125838386969
F        -2.34400857369757    5.23632280881804   -0.11965581818547
F        -3.81390519137296    4.16837996597314    1.00324768478856
C        -4.92005227074660   -1.03501232949151    0.86730592957069
F        -5.35386609588658   -0.45207588830481    1.98125865327758
F        -5.70437742108406   -0.61117153086585   -0.11965558739362
F        -5.14292645153878   -2.33913927311179    1.00324714649869
C        -1.08016271022039   -3.32439912180418    3.71645041587937
F        -1.46215754230407   -4.50005299330749    3.22571838851551
F        -0.03290491502764   -3.55721032900471    4.50254840735999
F        -2.06425285383526   -2.89718320022386    4.50255037491024
C        -2.84103082519036   -3.32439911178427    2.62817407941587
F        -2.23127406184888   -4.50005340761388    2.75037746012492
F        -4.01248672303643   -3.55720929213525    2.04303264409737
F        -3.10404037880941   -2.89718378306488    3.85992609894427
C        -0.34440953624153   -4.35941144868709   -2.62817404748705
F         0.83992598883967   -4.95213069234126   -2.75037577510431
F        -0.80829780400759   -4.16837989546168   -3.85992670963205
F        -1.15529636597892   -5.23632261667420   -2.04303359185445
C         2.50473491433418   -4.35941144902977   -0.86730593917895
F         2.08438487052912   -4.95213043104453   -1.98125838386969
F         3.81390519137296   -4.16837996597314   -1.00324768478856
F         2.34400857369757   -5.23632280881804    0.11965581818547
C         0.53602450593361   -4.99908416128281   -0.86730591619822
F         1.22448605650957   -5.23152837615597   -1.98125850960180
F        -0.63540201352706   -5.61404743764837   -1.00324736766175
F         1.18149064144157   -5.61404773804446    0.11965571789346
C         4.03961820246674   -1.67468514775899   -2.62817407948106
F         4.96930660042402   -0.73147479244130   -2.75037763231443
F         3.71458666614023   -2.05683907990834   -3.85992603200073
F         4.62303373288713   -2.71686348978893   -2.04303253910982
C         4.92005227074660    1.03501232949151   -0.86730592957069
F         5.35386609588658    0.45207588830481   -1.98125865327758
F         5.14292645153878    2.33913927311179   -1.00324714649869
F         5.70437742108406    0.61117153086585    0.11965558739362
C        -0.34440953624153    4.35941144868709   -2.62817404748705
F         0.83992598883967    4.95213069234126   -2.75037577510431
F        -0.80829780400759    4.16837989546168   -3.85992670963205
F        -1.15529636597892    5.23632261667420   -2.04303359185445
C         0.53602450593361    4.99908416128281   -0.86730591619822
F         1.22448605650957    5.23152837615597   -1.98125850960180
F        -0.63540201352706    5.61404743764837   -1.00324736766175
F         1.18149064144157    5.61404773804446    0.11965571789346
C        -2.82790274436383   -2.05459160758554   -3.71645040671519
F        -3.82797483682855   -2.78118494419178   -3.22571836876305
F        -3.37293748548841   -1.13053297859378   -4.50255013394648
F        -2.11749631416700   -2.85850222732984   -4.50254863174647
C         0.54413818249354    1.67468516033722   -4.78849957845317
F         0.23767107904745    0.73147481112462   -5.67468925997942
F        -0.24013968171955    2.71686350152345   -5.04863903502921
F         1.79120914301982    2.05683909935453   -5.04863874564184
C         1.76086815247998    0.00000000000000   -4.78849957557021
F         0.76911826531252    0.00000000000000   -5.67468926254662
F         2.50968386795825    1.06794314680471   -5.04863888333743
F         2.50968386795825   -1.06794314680471   -5.04863888333743
C         0.54413818249354   -1.67468516033722   -4.78849957845317
F         0.23767107904745   -0.73147481112462   -5.67468925997942
F        -0.24013968171955   -2.71686350152345   -5.04863903502921
F         1.79120914301982   -2.05683909935453   -5.04863874564184
156
 energy: -495.148128463535 gnorm: 7.727410120718 xtb: 6.4.1 (a3dbbd7)
C        -1.23728826512388    0.00104159903213    3.32455853780003
C        -0.37935044155946   -1.17175608287673    3.31689841150861
C         1.00012878639753   -0.72651812880672    3.31971028860907
C         0.99441701362991    0.72439387345522    3.31951906777710
C        -0.38199757050559    1.17702848377781    3.33225029049038
C         2.33889082713043   -2.59548221718050    0.59703766151769
C         3.19654827967902   -1.42126260828430    0.59405404155318
C         2.96239870015901   -0.69942689379731    1.83238195860428
C         1.96449137797003   -1.42651961066341    2.59315297304885
C         1.58222443505042   -2.60189434810039    1.83158437883614
C         3.19897143253430    1.42729443945962    0.59746359047457
C         2.34260046412948    2.59743421037173    0.59189469169682
C         1.57310507166929    2.59751274698348    1.82664311336137
C         1.95849850267633    1.42004546983359    2.58439949744193
C         2.96255720378517    0.69949272921639    1.83143308834976
C        -0.36698381684220    3.48295210124736    0.59649592653345
C        -1.75116817832061    3.03672758416100    0.59602338876271
C        -1.98418917801801    2.30450469330721    1.83297142795182
C        -0.75106928334594    2.30844301744132    2.59194474964882
C         0.24786129933954    3.03279749456853    1.83177606256918
C        -3.42610541807378    0.72935168302892    0.59608181788075
C        -3.42765103336919   -0.72665233696887    0.59558819266402
C        -2.80716080578940   -1.17417299643883    1.83236872136127
C        -2.42750332749594    0.00083777761158    2.59247859297728
C        -2.80728909700923    1.17468753918100    1.82968098380758
C        -1.74994531466278   -3.03447324471450    0.59285468664800
C        -0.36890796497943   -3.48325449289592    0.59621077057441
C         0.24959790435874   -3.03536655614448    1.83141197799063
C        -0.74644881156030   -2.30347599528028    2.58530917228960
C        -1.98607077399475   -2.30415192307848    1.82640425499833
C        -0.25220018325366   -3.02842718244980   -1.82991450147316
C         0.74983744348259   -2.30883389465226   -2.59587589067117
C         1.98533696987293   -2.30982665231976   -1.83097516395280
C         1.74506393261581   -3.02457906312828   -0.59560440581850
C         0.36444365580611   -3.47487497604104   -0.59002990052207
C         2.80962773108867   -1.17507062090942   -1.83136237577489
C         2.42595588377541    0.00201635377959   -2.59386634377150
C         2.80462783444585    1.17707052893458   -1.83164212813385
C         3.42748616563303    0.72680563430769   -0.59621098290260
C         3.42583750270913   -0.72616599295953   -0.59501528200955
C         1.98605597077092    2.30543566143657   -1.83054885714351
C         0.75161554765822    2.30718574143653   -2.59451764127815
C        -0.25133722031533    3.03153672892385   -1.83138414947301
C         0.36833503431752    3.48027411232153   -0.59230843489847
C         1.75039171451054    3.03435070847913   -0.59705579431595
C        -1.58364717264093    2.59933391358200   -1.83121248209654
C        -1.96251547052630    1.42553071206731   -2.59333015400653
C        -2.96207267612752    0.69940380950237   -1.83097924606744
C        -3.19720118852165    1.42649549521854   -0.59503582730135
C        -2.34560081134879    2.59779692082424   -0.59819628236044
C        -2.96279388435470   -0.69800715163112   -1.82710941759111
C        -1.96502927764836   -1.42751403057205   -2.59634276972171
C        -1.58194874216692   -2.60114951194085   -1.82889501956514
C        -2.34346499088222   -2.60019756585368   -0.59493275702809
C        -3.19608532439832   -1.42708276288864   -0.59909438490501
C        -0.99818673170703   -0.72510050558989   -3.33122217004607
C        -1.00186523164307    0.72723065510001   -3.33166062931769
C         0.37983645816927    1.17599102514756   -3.32518169204010
C         1.23770787250686    0.00011409853230   -3.32313663778366
C         0.37934199004406   -1.17530732091000   -3.32548788187094
C        -1.77855666010533    0.00445363351245    4.76377810425207
F        -0.80165290160150    0.04064864311776    5.70419906498809
F        -2.56700118226799   -1.01319617028157    5.05033183720328
F        -2.51100078019700    1.07207385862183    5.05232175294266
C        -0.54032771526753   -1.68292203609245    4.73881754326475
F        -0.26213760757833   -0.76573178171044    5.71694762573144
F        -1.76459239463993   -2.09055783859744    5.08643662068663
F         0.19730202697939   -2.72515386522821    5.08150813791466
C         1.42656838356830   -1.04312874506044    4.76060242623413
F         0.66494452701646   -0.47395681904812    5.71093619176840
F         1.48062041798115   -2.33196081336663    5.05523827065030
F         2.67125058895030   -0.68658291693686    5.05734490874448
C         1.44186268977447    1.03490715040195    4.74558655455728
F         0.61955766560769    0.50736777011075    5.71049789958750
F         2.65288078009042    0.65501424379845    5.08168844886050
F         1.36631025438193    2.34152543293628    5.08371121041523
C         3.35720791836696   -3.70690155398434    0.83788366210156
F         4.05048737303014   -3.55992147771060    2.01308935593039
F         4.24527242921848   -3.89624186047510   -0.09366272944548
F         2.79721963951323   -4.92844060434649    1.05989935971091
C         4.58411714356911   -2.04663517238708    0.85483941182636
F         4.63304241242640   -2.74447610966517    1.99793392607530
F         5.02574915421496   -2.79795957636092   -0.12208907648065
F         5.53909735569088   -1.13139422693041    1.00675285007623
C         3.35927303406031    3.73058051380218    0.84956415638485
F         4.11175207542491    3.51784258555709    1.94096718897660
F         4.25753767168378    3.85051893812912   -0.11996490098421
F         2.82582223523564    4.92041589321272    0.94267943630988
C         2.25984706652375    3.72669341031079    2.62147890870290
F         3.58150619581098    3.55649700176321    2.77251400445954
F         2.10560207954358    4.92188209641573    2.10349761486838
F         1.77134559459377    3.91479977072579    3.82845373012068
C         2.78767979971676    2.03793209446506    3.71103133058668
F         3.88242188983702    2.75277525977406    3.25405043252229
F         2.15898939715517    2.83737080770068    4.53418973812012
F         3.42400527022410    1.13987639512921    4.48966789966043
C        -2.50506016878226    4.35829067064190    0.86739842731521
F        -2.08437458396537    4.95355281747339    1.98248276835138
F        -2.34698285265657    5.23742246510603   -0.11888806582793
F        -3.81520562738686    4.16897824441659    1.00357388804001
C        -4.91959436773206   -1.03426581226742    0.86673032307715
F        -5.35512682829681   -0.45194654271585    1.98255603388355
F        -5.70570110612259   -0.61106002368626   -0.12014806352337
F        -5.14576275461408   -2.33873505976432    1.00198989314168
C        -1.08381753727293   -3.29035728462699    3.70496797801370
F        -1.41971187395005   -4.53106435197514    3.24820766479504
F        -0.01913990655652   -3.61199560044559    4.49323494563327
F        -2.02874574750375   -2.93261948899092    4.52980649074275
C        -2.84455612697409   -3.31056811636594    2.62471618941292
F        -2.27324483369246   -4.51803439506635    2.72175548572814
F        -4.01336342534487   -3.56141267196761    2.04365751241801
F        -3.17661831573779   -2.89421270833722    3.82548594898356
C        -0.36421133095284   -4.34773865760932   -2.62457643342819
F         0.82495457198958   -4.94801888718240   -2.81003410025624
F        -0.80714518085826   -4.17293821079084   -3.86073303021835
F        -1.18950918628896   -5.21785737093513   -2.10439972271378
C         2.49609059490352   -4.33310710770652   -0.82996321751716
F         2.14106504342666   -4.95904391780257   -2.01919338168745
F         3.81762754902133   -4.18349216519671   -1.04744290948814
F         2.39409750210081   -5.24317560681502    0.09025140804055
C         0.52455895426712   -4.98731215118994   -0.84823808010431
F         1.21205742237885   -5.27653474947036   -1.96381863249987
F        -0.60979328258923   -5.64161609854998   -0.94248717719283
F         1.10926309856476   -5.64522305643505    0.12684683757928
C         4.03877912892335   -1.67293834876399   -2.62811701522906
F         4.96400496501073   -0.75362738176389   -2.76629043179895
F         3.71649823342159   -2.06020079916315   -3.86077780129189
F         4.62560389329512   -2.71764062610368   -2.04698545062689
C         4.91909211620884    1.03504905132726   -0.86728773849763
F         5.36326407932598    0.47444183774579   -1.96836861761425
F         5.14558413056053    2.33942437967016   -1.00445761023845
F         5.70663326967076    0.61397066632165    0.11991360555017
C        -0.35512528341318    4.35342318379628   -2.62686963318192
F         0.82660145317117    4.94130510911747   -2.80064386858700
F        -0.80978589977692    4.17081658197452   -3.86184606633877
F        -1.18788218027653    5.21603682038290   -2.10623736506453
C         0.52972146142428    4.99670464271492   -0.85698967916290
F         1.25543769149065    5.25298997851266   -1.94385755565250
F        -0.60264974096043    5.63991647107211   -0.94236694428383
F         1.18134487740707    5.61762169291619    0.12019295684319
C        -2.82899152829422   -2.05424364746577   -3.71474492469842
F        -3.82921563410411   -2.78226756528534   -3.22616195027830
F        -3.37365215101457   -1.12996661831578   -4.50423539600034
F        -2.12170765541269   -2.85810328296244   -4.50477119679742
C         0.54836657205286    1.68775075332023   -4.77276609779691
F         0.20012546149682    0.77363588465241   -5.69198714106419
F        -0.24168062138787    2.71690125978244   -5.05262030827727
F         1.75242987060292    2.11957709660047   -5.05116800729877
C         1.77557488471057    0.00010395027602   -4.77052151741183
F         0.81321443986712    0.00002745237366   -5.69702576398884
F         2.55636601096636    1.01294902334943   -5.05116675613809
F         2.55413550790578   -1.01126964842438   -5.05309370487606
C         0.54794243425216   -1.68804585152897   -4.77260083673686
F         0.20017902323953   -0.77385403839103   -5.69172554662459
F        -0.23874466416043   -2.71715140786997   -5.05342787205038
F         1.75251414388987   -2.11939155660904   -5.05152772345928
156
 energy: -501.929391020402 gnorm: 7.076610066492 xtb: 6.4.1 (a3dbbd7)
C        -1.23824973131056    0.00441665542956    3.32192795558761
C        -0.37487991814707   -1.16935230432432    3.30938925326543
C         1.00071453707727   -0.72778420816947    3.30852965546965
C         0.98974146780304    0.72215331219754    3.31568245454152
C        -0.38170547770462    1.17843644222722    3.33438923228820
C         2.33558408862899   -2.59204156970151    0.60141776665865
C         3.19555254609862   -1.41605733285523    0.59348240484828
C         2.96192090505394   -0.69856618454593    1.83492870499089
C         1.96724474593808   -1.42791841111018    2.59109996983864
C         1.58444036410243   -2.60234965565809    1.83326252656557
C         3.19883770765888    1.42772012856872    0.60146624028153
C         2.34310482969114    2.59502899515501    0.58962831761691
C         1.56659632699957    2.59531643703013    1.82465915723335
C         1.95766421810969    1.41831606208161    2.57681985941439
C         2.96215668380471    0.69890318322264    1.82864367630701
C        -0.36636382865542    3.48289823771210    0.59834693569784
C        -1.75325315273787    3.04160184534013    0.59826470411521
C        -1.98177978884585    2.30235707190047    1.83607846091393
C        -0.75298955758104    2.30924220434726    2.58780367802825
C         0.24442206521054    3.03194884506695    1.83156560638931
C        -3.42253889695462    0.73284479198171    0.59625191611851
C        -3.43455244394456   -0.72660599280313    0.59766769538922
C        -2.80692754071640   -1.17120198688153    1.83361025593291
C        -2.43032247022838    0.00132197281975    2.58793093516763
C        -2.80663071002916    1.17341031376514    1.82828135317866
C        -1.75042668721619   -3.03555326027373    0.59031479319040
C        -0.37054609708425   -3.48310916543644    0.59766706928083
C         0.24832985579332   -3.03689975984131    1.83148003636085
C        -0.74232602013751   -2.30254297457346    2.57552211306931
C        -1.98778118593985   -2.30231841676418    1.82262531231554
C        -0.25345745630782   -3.02564398529778   -1.83124848954680
C         0.75038398880975   -2.31060175585099   -2.59595420643141
C         1.98384230278145   -2.31277092611807   -1.83027633252640
C         1.74213884242382   -3.01846603471676   -0.59916070760431
C         0.36074674355190   -3.47033262687886   -0.58541797589970
C         2.81281272718144   -1.17464509382295   -1.83275599212799
C         2.42651804031125    0.00446266404245   -2.59290642018680
C         2.80089157149906    1.17860488797648   -1.83296069176745
C         3.43197448824121    0.72717387013519   -0.59847183763123
C         3.42456363396459   -0.72581522371231   -0.59499793600555
C         1.98629656687541    2.30188393893297   -1.82951705995084
C         0.75421515333499    2.30923899949080   -2.59322980483701
C        -0.25110858469473    3.03163275260057   -1.83456922421526
C         0.36993175837541    3.47870856425938   -0.58937933578336
C         1.75117751916753    3.03481120792835   -0.60049998440794
C        -1.58887086617322    2.59606922523845   -1.82863059586965
C        -1.96316458547550    1.42517471499672   -2.59180574868158
C        -2.96208804994272    0.70005946880070   -1.83087373564028
C        -3.19599005174667    1.42675994968904   -0.59572048565643
C        -2.34572750817966    2.59344519647341   -0.60347004552660
C        -2.96302475849487   -0.69692822251369   -1.82208573506211
C        -1.96920053236740   -1.43020197346757   -2.59889940015592
C        -1.58466140248375   -2.60191789930232   -1.82543471943276
C        -2.34184483097280   -2.59692814892045   -0.59582061781800
C        -3.19298571992640   -1.42824446204032   -0.60503635536494
C        -0.99724643915301   -0.72058661120133   -3.33303490130493
C        -1.00419610781754    0.72565287080006   -3.32897010417372
C         0.37821527861603    1.17736230202870   -3.32420965766916
C         1.23921252052610    0.00036335923863   -3.31835826744410
C         0.37703467692788   -1.17571787600939   -3.32316610110120
C        -1.80067658618147   -0.00108788013956    4.73584116048996
F        -0.83824476794614    0.10596777934951    5.73160765549198
F        -2.60435814101872   -0.97461219124879    5.05117750051827
F        -2.51034393723758    1.07382102445400    5.05377120080191
C        -0.52302754957918   -1.70552073729036    4.68541628117812
F        -0.33480727843281   -0.83232982265521    5.77142099839689
F        -1.75098433282398   -2.10347748988577    5.13696123762881
F         0.16152836812508   -2.68175488098547    5.12873010950003
C         1.42466982591982   -1.04953493588985    4.73367448537299
F         0.78048834731403   -0.49301627923842    5.73345566104200
F         1.53586773606946   -2.32923324393464    5.05556232470601
F         2.68539983458369   -0.73745575512872    5.06163591731688
C         1.46786379107232    1.02145920298511    4.70228130350917
F         0.60325530770631    0.57917011535941    5.75246718669694
F         2.60611648095472    0.67661311204878    5.12763095923569
F         1.30725460459160    2.34224581821939    5.13473849014940
C         3.34435433232790   -3.68435899311886    0.80379519344475
F         4.04785069789992   -3.59253141725342    2.05075633790928
F         4.24695548017145   -3.92693318564240   -0.04472436319040
F         2.81827471695108   -4.92854451588988    1.13961967340576
C         4.58109443297162   -2.03874499680560    0.84185405659645
F         4.65673465555961   -2.72405605172573    2.01202184662767
F         5.05772905948057   -2.76011938277045   -0.12235068097449
F         5.54044595498450   -1.13440421406625    1.01039784480808
C         3.34346305110758    3.73239706439970    0.82968370375957
F         4.17020004547954    3.51554943591474    1.89815285649873
F         4.25803342547683    3.85377944165224   -0.11869677466098
F         2.85266487767049    4.92426930985279    0.90757624433822
C         2.23446922844774    3.72552971173733    2.61860524001517
F         3.54990335308232    3.61960274077877    2.79873596279956
F         2.08375035611590    4.92569384549081    2.13986408024867
F         1.75418302601636    3.95703966267159    3.80666156260232
C         2.74074844215363    2.02913334740257    3.70961569353281
F         3.94904234138542    2.71360591714853    3.28202080713816
F         2.22247090351648    2.82958778295085    4.53424761330666
F         3.49420585348406    1.15773368935286    4.46318240830228
C        -2.50557070247454    4.35734605462820    0.86764719231624
F        -2.08431184969895    4.95494653153914    1.98364928294618
F        -2.35081101764229    5.23832148401648   -0.11799216681894
F        -3.81660635302307    4.16961676530777    1.00393033699281
C        -4.91975878659517   -1.03342457772758    0.86606872366339
F        -5.35649925883599   -0.45171539509795    1.98404935950057
F        -5.70705768584341   -0.61085161852454   -0.12068208114008
F        -5.14915608714152   -2.33788226762569    1.00029477915636
C        -1.09453021247154   -3.24978705149017    3.69086470082548
F        -1.39250602770100   -4.57007190828158    3.25951495812015
F        -0.01045138131897   -3.69420601810024    4.46572840472861
F        -2.00946663142951   -2.97299410956848    4.54132802083626
C        -2.84780539295790   -3.29560300330047    2.62217447087012
F        -2.29785515041824   -4.53508835934179    2.70446545635413
F        -4.01213823809556   -3.56590568844716    2.04531832038484
F        -3.22296246245322   -2.89082594912338    3.80476473634896
C        -0.38632747797648   -4.33476843386496   -2.61910060564516
F         0.81723141791266   -4.94064731254440   -2.87907589443529
F        -0.80490358080760   -4.17860638027604   -3.85950880664434
F        -1.21030857286768   -5.20858014154900   -2.14154411129575
C         2.48447553562004   -4.31230453614641   -0.78996779781056
F         2.20608538892818   -4.96052576409436   -2.06689241810953
F         3.81047492483164   -4.20313096319842   -1.10626281857106
F         2.42082636420130   -5.25648802821002    0.02573421827939
C         0.51477905007863   -4.97654014586424   -0.82917331760619
F         1.18351674524853   -5.33050381803341   -1.92605714665925
F        -0.59389858454647   -5.65831648269878   -0.90623517524467
F         1.06380429859387   -5.66475128018822    0.13434673359627
C         4.03805859518501   -1.67044420029942   -2.62840780329837
F         4.95899722110585   -0.77560556464671   -2.78222887086705
F         3.71878695773685   -2.06433997052652   -3.86105467108421
F         4.62852573108278   -2.71808500979760   -2.05211382295778
C         4.91824308526134    1.03489950146256   -0.86789319901685
F         5.37279534788700    0.49656447748892   -1.95570469736376
F         5.14871732018751    2.33919800508874   -1.00608572167963
F         5.70914879884015    0.61739959110253    0.12012839513158