62
 energy: -137.473065755583 gnorm: 0.186554227138 xtb: 6.4.1 (a3dbbd7)
C        -1.23626340000000    0.00000000000000    3.32997640000000
C        -0.38202640000000   -1.17575640000000    3.32997640000000
C         1.00015810000000   -0.72665740000000    3.32997640000000
C         1.00015810000000    0.72665740000000    3.32997640000000
C        -0.38202640000000    1.17575640000000    3.32997640000000
C         2.34433560000000   -2.60145750000000    0.59464210000000
C         3.19857260000000   -1.42570110000000    0.59464210000000
C         2.96246730000000   -0.69904370000000    1.83090550000000
C         1.96230920000000   -1.42570110000000    2.59495830000000
C         1.58028280000000   -2.60145750000000    1.83090550000000
C         3.19857260000000    1.42570110000000    0.59464210000000
C         2.34433560000000    2.60145750000000    0.59464210000000
C         1.58028280000000    2.60145750000000    1.83090550000000
C         1.96230920000000    1.42570110000000    2.59495830000000
C         2.96246730000000    0.69904370000000    1.83090550000000
C        -0.36750900000000    3.48258920000000    0.59464210000000
C        -1.74969350000000    3.03349030000000    0.59464210000000
C        -1.98579880000000    2.30683290000000    1.83090550000000
C        -0.74953540000000    2.30683290000000    2.59495830000000
C         0.25062270000000    3.03349030000000    1.83090550000000
C        -3.42570570000000    0.72665740000000    0.59464210000000
C        -3.42570570000000   -0.72665740000000    0.59464210000000
C        -2.80757400000000   -1.17575640000000    1.83090550000000
C        -2.42554760000000    0.00000000000000    2.59495830000000
C        -2.80757400000000    1.17575640000000    1.83090550000000
C        -1.74969350000000   -3.03349030000000    0.59464210000000
C        -0.36750900000000   -3.48258920000000    0.59464210000000
C         0.25062270000000   -3.03349030000000    1.83090550000000
C        -0.74953540000000   -2.30683290000000    2.59495830000000
C        -1.98579880000000   -2.30683290000000    1.83090550000000
C        -0.25062270000000   -3.03349030000000   -1.83090550000000
C         0.74953540000000   -2.30683290000000   -2.59495830000000
C         1.98579880000000   -2.30683290000000   -1.83090550000000
C         1.74969350000000   -3.03349030000000   -0.59464210000000
C         0.36750900000000   -3.48258920000000   -0.59464210000000
C         2.80757400000000   -1.17575640000000   -1.83090550000000
C         2.42554760000000    0.00000000000000   -2.59495830000000
C         2.80757400000000    1.17575640000000   -1.83090550000000
C         3.42570570000000    0.72665740000000   -0.59464210000000
C         3.42570570000000   -0.72665740000000   -0.59464210000000
C         1.98579880000000    2.30683290000000   -1.83090550000000
C         0.74953540000000    2.30683290000000   -2.59495830000000
C        -0.25062270000000    3.03349030000000   -1.83090550000000
C         0.36750900000000    3.48258920000000   -0.59464210000000
C         1.74969350000000    3.03349030000000   -0.59464210000000
C        -1.58028280000000    2.60145750000000   -1.83090550000000
C        -1.96230920000000    1.42570110000000   -2.59495830000000
C        -2.96246730000000    0.69904370000000   -1.83090550000000
C        -3.19857260000000    1.42570110000000   -0.59464210000000
C        -2.34433560000000    2.60145750000000   -0.59464210000000
C        -2.96246730000000   -0.69904370000000   -1.83090550000000
C        -1.96230920000000   -1.42570110000000   -2.59495830000000
C        -1.58028280000000   -2.60145750000000   -1.83090550000000
C        -2.34433560000000   -2.60145750000000   -0.59464210000000
C        -3.19857260000000   -1.42570110000000   -0.59464210000000
C        -1.00015810000000   -0.72665740000000   -3.32997640000000
C        -1.00015810000000    0.72665740000000   -3.32997640000000
C         0.38202640000000    1.17575640000000   -3.32997640000000
C         1.23626340000000    0.00000000000000   -3.32997640000000
C         0.38202640000000   -1.17575640000000   -3.32997640000000
Cl       -1.84886636902500    0.00000000000000    5.03315507598844
Cl       -4.82196538477448    2.16008291139484   -0.91304313868330
62
 energy: -137.518324058452 gnorm: 0.101698507622 xtb: 6.4.1 (a3dbbd7)
C        -1.24750312978620   -0.00611115097749    3.36584247223079
C        -0.36173254878186   -1.18764572114500    3.33300472035532
C         1.00180117971329   -0.72722077237671    3.31717233206856
C         1.00008011930861    0.72295969685472    3.31715136254002
C        -0.36327369373305    1.17831726413505    3.33219363075955
C         2.33677452204546   -2.58935121736112    0.59099045154008
C         3.18551903198254   -1.41866502186337    0.59012891264406
C         2.95141138578992   -0.69589222070897    1.82045365117568
C         1.96112973772717   -1.42321763124275    2.58310030856852
C         1.58113151782951   -2.59135884943799    1.82333943795148
C         3.18522700346495    1.41997484199817    0.58992579861769
C         2.33668183418775    2.58971477537878    0.59073685779750
C         1.57926717402550    2.59031259996585    1.82265333588285
C         1.95980521383813    1.42159985091031    2.58296153015601
C         2.95047089974324    0.69640674656324    1.82115839700210
C        -0.35849705624265    3.46788075996171    0.59265025116300
C        -1.72832786811789    3.01164670890998    0.58809521050591
C        -1.96583064042635    2.28667755155912    1.81796943916908
C        -0.73471163572763    2.29149323348312    2.58334733690202
C         0.25594815695694    3.02136398204665    1.82411027425489
C        -3.41817881763231    0.70823326222610    0.59864761013481
C        -3.41506859294342   -0.72293602166509    0.58578627705098
C        -2.79006214921663   -1.17188622412938    1.81437205496513
C        -2.42852610924890   -0.01183255698237    2.55917718414603
C        -2.78244064597489    1.15243658166891    1.80484319729441
C        -1.73975606665379   -3.01929344147326    0.59800059561957
C        -0.36287791714907   -3.46332988186682    0.59498914600266
C         0.25778913866348   -3.02405758296594    1.82597965157554
C        -0.73215663333447   -2.29830488304960    2.58580550035049
C        -1.96991198400107   -2.30192375969115    1.82242313079375
C        -0.24995310644192   -3.01804165740046   -1.82181810019099
C         0.74488898689949   -2.29542611602640   -2.58297542576697
C         1.97518281374112   -2.29519128289325   -1.82270313931341
C         1.74152792583775   -3.01815094864471   -0.59197829123549
C         0.36652264316630   -3.46457002162638   -0.59002863990277
C         2.79434262818749   -1.16922003782933   -1.82365840777630
C         2.41460132368447    0.00021493807520   -2.58407826467099
C         2.79492327331304    1.17035277818092   -1.82362580998608
C         3.41025320702539    0.72375094113968   -0.59397288679547
C         3.40990507241563   -0.72255892359344   -0.59412929665499
C         1.97821240368256    2.29693559094204   -1.82326536204344
C         0.74740569853486    2.29692205865954   -2.58409052464823
C        -0.24292865522124    3.02180598574225   -1.82272485842611
C         0.37084211353507    3.46829089533183   -0.59304083062725
C         1.74485180980159    3.01990115205491   -0.59349095848496
C        -1.56649822196574    2.58494621741360   -1.82272596417357
C        -1.94666145677446    1.41252989651603   -2.58290338620379
C        -2.93527511455039    0.68692402601336   -1.83420024300252
C        -3.27707281153813    1.46291809096234   -0.61785436028550
C        -2.31580949875203    2.59164145548948   -0.59902678274474
C        -2.93711730108874   -0.69762565965898   -1.82622849642751
C        -1.95094825883797   -1.42260354704312   -2.58973563387500
C        -1.57346209354959   -2.58887893200198   -1.82245321976840
C        -2.33675448341230   -2.58632182120884   -0.59273365370971
C        -3.18781926292464   -1.42617264252346   -0.59797864648600
C        -0.99289115450737   -0.72474868260993   -3.32093161154905
C        -0.99187710551780    0.71936799222975   -3.32132595198737
C         0.38177649103639    1.17016546146472   -3.31682564804275
C         1.23104553707084    0.00009166043141   -3.31633285179681
C         0.38157055589249   -1.17035750891618   -3.31781459419538
Cl       -1.87107828076380    0.00573955949640    5.11401190356275
Cl       -4.92671885808418    2.22146107450313   -0.94625818470452
62
 energy: -137.538975550717 gnorm: 0.046645785974 xtb: 6.4.1 (a3dbbd7)
C        -1.28047206842532   -0.01118402379889    3.49382844237703
C        -0.34712365648485   -1.18875286927517    3.29437276807245
C         0.99561297251901   -0.72684524028551    3.28595118051985
C         0.99244204865203    0.71758300826312    3.28776718849562
C        -0.34945097081729    1.17032913691614    3.29322321802132
C         2.33341557552360   -2.58088544394898    0.58832309790087
C         3.17689655987635   -1.41431336522556    0.58704662816841
C         2.94365710460481   -0.69464591211579    1.81140458465627
C         1.96023012857241   -1.42314269012621    2.56750985891445
C         1.58258599444978   -2.58518436971150    1.81464567216454
C         3.17558745448514    1.41566737121665    0.58625733507639
C         2.33353857863971    2.58075979575914    0.58629461603520
C         1.57800629902751    2.58055907643376    1.81195158460619
C         1.95783580251313    1.41796086614012    2.56704061481977
C         2.94145687671208    0.69395774776583    1.81299333019884
C        -0.35469523724146    3.45151250934968    0.58452573921899
C        -1.71655865849028    2.99270475977151    0.57820800258875
C        -1.95469591124756    2.26704010784054    1.80206330935386
C        -0.72671533165236    2.27377921863413    2.55584172944501
C         0.25811177964006    3.00854459123193    1.81084435969637
C        -3.40583118278636    0.69168845810931    0.59721769648708
C        -3.37990897027713   -0.70641068705737    0.57795126972584
C        -2.75991508523674   -1.15668433653762    1.81174181803763
C        -2.42699553664450   -0.02343805269930    2.55915436628314
C        -2.75488809736488    1.12382790613242    1.78251214515512
C        -1.73338529758844   -3.00761303033170    0.60206222548772
C        -0.36016689525218   -3.45031023409266    0.59097274028585
C         0.26269736541046   -3.01749479955542    1.81499374950485
C        -0.71957919940576   -2.28981754596877    2.56268970012550
C        -1.96030657495574   -2.30474469189804    1.81372322023032
C        -0.24776704249024   -3.00316037246034   -1.81598819485153
C         0.74354206918277   -2.28555892291289   -2.57293928144422
C         1.96711385109916   -2.28483839451422   -1.81372689673022
C         1.73559042152197   -3.00613042086459   -0.58907326769483
C         0.36697008383026   -3.45048680326460   -0.58753009090868
C         2.78607896061939   -1.16381923229837   -1.81579387721912
C         2.40951617363252   -0.00027313969983   -2.57368466565002
C         2.78782791835920    1.16487375432959   -1.81622958790786
C         3.39935730960669    0.72038297598381   -0.59240367636003
C         3.39972850087712   -0.71996652144192   -0.59259643117995
C         1.97513319612020    2.28839091350839   -1.81632007274935
C         0.74848701021668    2.28797109197358   -2.57484239942056
C        -0.23491816002245    3.00971834542695   -1.81727584373656
C         0.37474725533853    3.45445823859737   -0.59536002996237
C         1.74393296242063    3.00981696803087   -0.59425265882174
C        -1.55631887947972    2.56701903330337   -1.80742863886495
C        -1.93275630959883    1.39787691332525   -2.56699628058764
C        -2.91491907830935    0.67656203423074   -1.84042045730466
C        -3.37003287874564    1.50542784062794   -0.64899449121327
C        -2.29552939325113    2.58174113106922   -0.60124220994725
C        -2.91857666962223   -0.69371382390704   -1.82819935468747
C        -1.93780543780583   -1.41566338552225   -2.58508882449286
C        -1.56470305022915   -2.57408125909808   -1.81617725517154
C        -2.33293989180562   -2.57178584104547   -0.59440388467073
C        -3.17061267443807   -1.42670928777969   -0.60260182032433
C        -0.98228142220823   -0.72108532666726   -3.31492934273573
C        -0.98085141177837    0.71313657002962   -3.31301619623810
C         0.38571786117980    1.16441415633070   -3.30566690105389
C         1.23115526338437   -0.00023827552239   -3.30503377437145
C         0.38510552584371   -1.16533006522417   -3.30901593495258
Cl       -1.89912017322172    0.01159893829439    5.27930612485850
Cl       -5.03308951078116    2.28508781762036   -0.98507403795310
62
 energy: -137.541512946086 gnorm: 0.027408542387 xtb: 6.4.1 (a3dbbd7)
C        -1.28126873729891   -0.01333292908209    3.51458347210826
C        -0.35462874173044   -1.19121549594539    3.32026099702790
C         0.99299611026071   -0.73049647146277    3.29390755966630
C         0.98995474119530    0.71369436168827    3.29480018480768
C        -0.35590909771023    1.16562305453717    3.31566509338594
C         2.34027745848551   -2.58300592154490    0.58863800858513
C         3.18364358203313   -1.41537689616398    0.58602202467311
C         2.94798746520546   -0.69646401996596    1.81177170518493
C         1.96125592477218   -1.42240706527159    2.56958957360101
C         1.58732809995124   -2.58483101134635    1.81585921881183
C         3.18115482329234    1.41472727053967    0.58468905325101
C         2.33786674029614    2.57958668297284    0.58478331162961
C         1.57825184685615    2.57293178977456    1.81001502916635
C         1.95635389003181    1.41091573810813    2.56659935464618
C         2.94501827858541    0.69201279694377    1.81244866708150
C        -0.35806889339060    3.43532293330402    0.58014978278312
C        -1.72520647944907    2.98694753464943    0.57241352353947
C        -1.95525994513518    2.25899876400989    1.80004927522771
C        -0.72928402428054    2.26367566121627    2.56441437878761
C         0.25544476698957    2.99062298663765    1.80784373248149
C        -3.41147435619425    0.70153447254640    0.58625340030045
C        -3.37694801021740   -0.69844474560948    0.57437560885514
C        -2.75310837013105   -1.14991903887798    1.81393702031274
C        -2.41797628264971   -0.02172976739133    2.57046626555116
C        -2.75698441646055    1.12533012985576    1.78424077647508
C        -1.73085981258077   -3.00171935485370    0.60424314267688
C        -0.35631956154764   -3.44523170890114    0.59248132928436
C         0.26493129320529   -3.01038232502939    1.81761261689258
C        -0.72140991696536   -2.29125529270769    2.57731709887400
C        -1.95818796334631   -2.30428380553227    1.81725860178027
C        -0.24567384120420   -2.99970438860533   -1.81709132606877
C         0.74660499853034   -2.28449180205350   -2.57579030594961
C         1.97040297749429   -2.28379362533094   -1.81524974800211
C         1.74014023294646   -3.00580219952139   -0.58969734978576
C         0.37011240372570   -3.44702086025308   -0.58650543100589
C         2.79160604003605   -1.16393613767127   -1.81914712248186
C         2.41467158510289   -0.00020647540992   -2.57856901917357
C         2.79392897578633    1.16526419230852   -1.82033482772025
C         3.40622881281408    0.72039927194504   -0.59553790812833
C         3.40635191674455   -0.72072167926187   -0.59497350884915
C         1.97910147293983    2.28844038959045   -1.81990623001798
C         0.75004789701066    2.28671959351249   -2.57769569679169
C        -0.23721575798989    3.00352168647946   -1.81951267736835
C         0.37438405899967    3.44735937273820   -0.59765284759045
C         1.74749447428318    3.00898535453790   -0.59677172222446
C        -1.56330668676211    2.56694621108484   -1.81141191050252
C        -1.94056255548844    1.39896910333194   -2.57161088147133
C        -2.93857149164713    0.68638015436287   -1.84867171157518
C        -3.38383110543453    1.51232108596792   -0.65790620959827
C        -2.31688825254034    2.58799710648238   -0.60920800584428
C        -2.92892707339442   -0.68901939693798   -1.83368085787791
C        -1.93711491305883   -1.41011566026616   -2.58506941253060
C        -1.56217163547155   -2.56965863028590   -1.81725468390810
C        -2.33145572505808   -2.56575650674197   -0.59440702206066
C        -3.17331239937534   -1.42526180146850   -0.60637859530018
C        -0.98076145919383   -0.71986877781351   -3.31883364906150
C        -0.98168798382109    0.71468980866722   -3.31457909527027
C         0.38706782612574    1.16395626525921   -3.30957089087787
C         1.23520743212138   -0.00012088965156   -3.31049278316233
C         0.38815590563607   -1.16538055206076   -3.31514147751712
Cl       -1.89301645277641    0.01238183121007    5.29185883089112
Cl       -5.03741184295277    2.29478254015216   -0.99578379331842
62
 energy: -137.542445742099 gnorm: 0.014608633341 xtb: 6.4.1 (a3dbbd7)
C        -1.28503557645102   -0.01402439883499    3.53717242356302
C        -0.36085679467347   -1.19120725697791    3.33004603751989
C         0.98958047042599   -0.73250989060968    3.29451981008747
C         0.98696771203927    0.71125535716824    3.29549249819942
C        -0.36114288153395    1.16132649618191    3.32427979928243
C         2.34442639503823   -2.58513517479180    0.58875149850030
C         3.18714811940605   -1.41639017398958    0.58565820185238
C         2.94912192021880   -0.69717134859206    1.81162708914645
C         1.96085276442881   -1.42165667471187    2.56929537901885
C         1.59007980206993   -2.58577626086692    1.81623926642871
C         3.18452526488080    1.41561283334361    0.58402748778041
C         2.34057157145463    2.57972239160177    0.58380872620481
C         1.57762137924300    2.56917076042119    1.80850646319906
C         1.95437322617521    1.40675336439709    2.56467948583331
C         2.94585225701175    0.69138199339823    1.81184296807779
C        -0.36143009757974    3.42369504009090    0.57643064790612
C        -1.73035071702413    2.98224204398099    0.56774865068643
C        -1.95834056532764    2.25413627892975    1.79922165399561
C        -0.73073858505737    2.25618789032799    2.56756720119069
C         0.25272874266532    2.97787841273627    1.80514314342043
C        -3.40978605665546    0.70650472906629    0.57872407485242
C        -3.36958659271480   -0.68922230399059    0.57163626806599
C        -2.74445693597626   -1.14195803313545    1.81645517450156
C        -2.40881745519983   -0.02050434797434    2.57648395875530
C        -2.76100042888853    1.13008942493112    1.78908710520755
C        -1.73101984986053   -2.99839429412808    0.60697914066093
C        -0.35426441686694   -3.44205340477269    0.59311807415894
C         0.26639604081136   -3.00660094060714    1.81843892087492
C        -0.72234447124244   -2.29157337321608    2.58271606022409
C        -1.95801493000283   -2.30716502485662    1.81801274669904
C        -0.24536116663303   -2.99723867649304   -1.81804043099064
C         0.74805859956018   -2.28393023412848   -2.57696995865385
C         1.97184604267180   -2.28331340975181   -1.81568930813893
C         1.74197346858940   -3.00572990971822   -0.58990519141468
C         0.37140460726507   -3.44518890617460   -0.58516701213685
C         2.79458001930085   -1.16409019572849   -1.82056772666629
C         2.41725971199354    0.00006786602130   -2.58062289597770
C         2.79762967648962    1.16613642932195   -1.82211491959254
C         3.41022144878485    0.72103720308342   -0.59685977761797
C         3.40970871705286   -0.72101492048282   -0.59560266054356
C         1.98187363328464    2.28965469842364   -1.82137225784441
C         0.75062603026102    2.28605439180309   -2.57812643527749
C        -0.23848930389671    2.99917699430038   -1.82022874320599
C         0.37386813034175    3.44353033872003   -0.59877234774629
C         1.74978823056071    3.00924282399975   -0.59820788599958
C        -1.56688283882243    2.56574287338148   -1.81218321035482
C        -1.94415689616639    1.39810307993311   -2.57236550648773
C        -2.95157339387292    0.69111754551360   -1.85157052513329
C        -3.39436258884419    1.51726830962309   -0.66315177679075
C        -2.32961467851418    2.59003514091399   -0.61305668396797
C        -2.93282133604611   -0.68664712076561   -1.83635176399841
C        -1.93614001224306   -1.40658893705757   -2.58562656596290
C        -1.56039831786203   -2.56619966152339   -1.81790510043254
C        -2.33265965104491   -2.56168287526880   -0.59455597240844
C        -3.17394987479731   -1.42683628480691   -0.60904338976526
C        -0.97949219772726   -0.71955461842897   -3.32180514944275
C        -0.98150258007474    0.71547367900671   -3.31434596628206
C         0.38766339960286    1.16355084470744   -3.31050073350607
C         1.23755868945635   -0.00022191258374   -3.31325173622349
C         0.39028219904704   -1.16581900422582   -3.31913940714327
Cl       -1.88495808006190    0.01276389450441    5.30328639791993
Cl       -5.03587075226908    2.30056935075618   -1.00378337680257
62
 energy: -137.542699257608 gnorm: 0.008051549175 xtb: 6.4.1 (a3dbbd7)
C        -1.28751167498899   -0.01368757268328    3.54614470975835
C        -0.36295343729873   -1.19026456340009    3.32794022356525
C         0.98822853370957   -0.73264438742466    3.29271287362495
C         0.98585406997054    0.71098640354075    3.29404724083185
C        -0.36294350917763    1.15998846227610    3.32219136567179
C         2.34507879095398   -2.58599587693639    0.58903996499077
C         3.18750484814230   -1.41676647873743    0.58595894500140
C         2.94881209107648   -0.69710261927785    1.81191989315301
C         1.96044211245537   -1.42139338358168    2.56900892864720
C         1.59046921590871   -2.58668057046201    1.81644416891629
C         3.18477748908263    1.41642375839268    0.58426671397584
C         2.34081042810752    2.58019688810205    0.58380258023603
C         1.57703048937728    2.56946462490396    1.80849880030956
C         1.95353900478759    1.40634579935619    2.56399893238466
C         2.94554203114649    0.69155954405609    1.81211274767305
C        -0.36281788130144    3.42209037963743    0.57564952512672
C        -1.73104706839124    2.98201761766785    0.56679105030633
C        -1.96064561699792    2.25375151134705    1.79954648995878
C        -0.73089889602595    2.25547800042801    2.56758758900729
C         0.25163192549329    2.97578655592203    1.80476545573054
C        -3.40767619103958    0.70648188871850    0.57689805681461
C        -3.36564063074192   -0.68531611132493    0.57116015301097
C        -2.74107194462418   -1.13852223917832    1.81808298159877
C        -2.40573502529245   -0.02076834547717    2.57772316860882
C        -2.76413681559373    1.13346596098320    1.79302873554607
C        -1.73205436212155   -2.99840729971057    0.60836134319719
C        -0.35399085130700   -3.44249132883883    0.59333091344497
C         0.26664601943832   -3.00658711657849    1.81850138634496
C        -0.72241601846636   -2.29170268929105    2.58225192855168
C        -1.95854904386416   -2.30947929633840    1.81721691251520
C        -0.24607969344499   -2.99716956530604   -1.81873794134846
C         0.74784424877365   -2.28395416677981   -2.57696183196615
C         1.97156198046103   -2.28341071184408   -1.81543427884080
C         1.74167266060611   -3.00590360591775   -0.58964831223698
C         0.37123609563314   -3.44560349620316   -0.58438994497273
C         2.79452791521402   -1.16420016679050   -1.82038310564532
C         2.41713274966783    0.00018722974204   -2.58062572518581
C         2.79780908224395    1.16644809289596   -1.82194943326613
C         3.41040301748782    0.72134098843857   -0.59669375302563
C         3.40981221056331   -0.72107504026369   -0.59514675188240
C         1.98208357356338    2.29039797933879   -1.82121164119021
C         0.75030334681591    2.28634528963821   -2.57808062575039
C        -0.23881141610376    2.99881253872877   -1.82038356581298
C         0.37339414286793    3.44386464593591   -0.59874564762070
C         1.74988306150459    3.00970093644967   -0.59832635601114
C        -1.56711322096672    2.56542764727491   -1.81193077824636
C        -1.94415540744238    1.39759235642718   -2.57200289093532
C        -2.95230357995262    0.69100875714013   -1.85066539777874
C        -3.39611366232053    1.51773228690511   -0.66320182571400
C        -2.33060720143358    2.58895111397516   -0.61266037460223
C        -2.93218358487107   -0.68660278695970   -1.83676786999595
C        -1.93606817580900   -1.40629947613368   -2.58656968900813
C        -1.56031640904344   -2.56612542249357   -1.81885088076768
C        -2.33412321868038   -2.56115245983929   -0.59495303259846
C        -3.17310165047597   -1.42852379099949   -0.60974028908270
C        -0.97941783253228   -0.71977848405832   -3.32302379256336
C        -0.98139688844006    0.71581905543021   -3.31440391945232
C         0.38744377481273    1.16371811772439   -3.31051036277297
C         1.23771834994789   -0.00025450009495   -3.31368836983222
C         0.39048649190703   -1.16606067427619   -3.32010062212136
Cl       -1.87951199943476    0.01243116974385    5.30182495377504
Cl       -5.02911859733551    2.30019153747547   -1.00490778474516
62
 energy: -137.542799493245 gnorm: 0.004434562626 xtb: 6.4.1 (a3dbbd7)
C        -1.28901743280639   -0.01321304415769    3.54965881108923
C        -0.36311636675978   -1.18956291036093    3.32379085014716
C         0.98797453789482   -0.73229928302413    3.29119270980374
C         0.98563586977394    0.71133401816737    3.29274521347243
C        -0.36314017924071    1.15990742733436    3.31808827169937
C         2.34460858845887   -2.58612500194111    0.58933812502718
C         3.18700231344091   -1.41679426377765    0.58630259733634
C         2.94841049134305   -0.69687958944185    1.81226057363780
C         1.96022989625246   -1.42138530040198    2.56891764421617
C         1.59013922366502   -2.58716297582856    1.81653822533042
C         3.18412325765834    1.41679595989995    0.58462593861529
C         2.34032089875261    2.58048958776606    0.58404725416981
C         1.57668554256081    2.57058742668064    1.80884920868910
C         1.95328137499769    1.40702278740343    2.56394695010287
C         2.94519843358421    0.69181613925062    1.81252701525113
C        -0.36314422700022    3.42391705248465    0.57601902827203
C        -1.73047394404980    2.98333185477221    0.56721732473243
C        -1.96177703463312    2.25424491345164    1.79976719277340
C        -0.73071847321919    2.25699359021005    2.56697801048753
C         0.25139593845898    2.97742001366764    1.80516882006866
C        -3.40686149767883    0.70504619743694    0.57720775439877
C        -3.36433420523496   -0.68444460382862    0.57162663889539
C        -2.74067980671282   -1.13765316919502    1.81904184658157
C        -2.40586707633978   -0.02158644405614    2.57773159813906
C        -2.76567828321860    1.13481602452411    1.79514517058814
C        -1.73289579514724   -2.99926873166389    0.60897935298930
C        -0.35420741083546   -3.44378026434221    0.59344107823274
C         0.26649730262493   -3.00750527810835    1.81843584177524
C        -0.72222921383600   -2.29187067214387    2.58090286290442
C        -1.95900692202037   -2.31064332860228    1.81631780048667
C        -0.24674112546436   -2.99768325857841   -1.81914732675962
C         0.74733030064311   -2.28410040457615   -2.57669297153515
C         1.97097381054640   -2.28356461837270   -1.81507215692012
C         1.74100080550830   -3.00606563100486   -0.58933418453481
C         0.37083231196586   -3.44637312058622   -0.58398849107454
C         2.79376011163736   -1.16425473482317   -1.81985136739021
C         2.41641060544257    0.00021164356083   -2.58008151398653
C         2.79703784190179    1.16643738158560   -1.82133385536382
C         3.40955802923493    0.72139331637603   -0.59623678430454
C         3.40910733933715   -0.72105124738322   -0.59460792374294
C         1.98151397294664    2.29060791485647   -1.82070100553071
C         0.74991665738654    2.28677728602207   -2.57806315209753
C        -0.23884508303514    2.99969096118688   -1.82041069411340
C         0.37308519688295    3.44507246572771   -0.59847458419832
C         1.74931653621615    3.00993750355849   -0.59807605929089
C        -1.56657826545668    2.56561908970713   -1.81175775823252
C        -1.94344565778923    1.39755298505876   -2.57182188313818
C        -2.94974393898154    0.68972410220219   -1.84946947981699
C        -3.39553019082887    1.51709303383217   -0.66203133715542
C        -2.32806425304701    2.58753134719490   -0.61142874443360
C        -2.93087873005048   -0.68707473142987   -1.83668346962878
C        -1.93632863485338   -1.40697599874990   -2.58732737560816
C        -1.56072729084669   -2.56707375461625   -1.81968195168661
C        -2.33508951873882   -2.56172517494652   -0.59534144768606
C        -3.17201507985070   -1.42944012374426   -0.60964277538951
C        -0.97966445399128   -0.72001324174115   -3.32330337380250
C        -0.98142829966879    0.71595061763946   -3.31465914753911
C         0.38714267567860    1.16401114538430   -3.31039534568359
C         1.23731130521994   -0.00021716452035   -3.31331848344249
C         0.39009978304807   -1.16606013478841   -3.31986340135299
Cl       -1.87619289769810    0.01226614466540    5.29519332484214
Cl       -5.02231141782816    2.29833118052252   -1.00309305201073
62
 energy: -137.542822948326 gnorm: 0.002473533459 xtb: 6.4.1 (a3dbbd7)
C        -1.28943499414531   -0.01309781287370    3.55018384448070
C        -0.36255523867660   -1.18960941313843    3.32237779019504
C         0.98817007840644   -0.73211270570965    3.29097211209943
C         0.98565741007757    0.71156580972775    3.29247859927449
C        -0.36287104869492    1.16021889755996    3.31657537508786