63
 energy: -142.070408776649 gnorm: 0.143207958138 xtb: 6.4.1 (a3dbbd7)
C        -1.32333194775417    0.00617886347970    3.59125188963251
C        -0.38909456310608   -1.27772716531095    3.58793274117145
C         0.98734837171535   -0.72675165446744    3.28582848483634
C         0.97037352147027    0.69420630050098    3.25749094477592
C        -0.37633960723915    1.14742685553706    3.29074190055216
C         2.33092254703306   -2.58746567485154    0.56610397604514
C         3.16875994483946   -1.41579758165486    0.56774606192583
C         2.91978889080344   -0.69314490348597    1.79074016083681
C         1.93018806170321   -1.40549148670748    2.54814074589443
C         1.57476788296703   -2.59634073810083    1.79100274817011
C         3.18328087896891    1.41909085132624    0.57258499213333
C         2.33432229320876    2.58580968143883    0.57559918777772
C         1.57332139543398    2.57095369604789    1.79851755002390
C         1.94352282881158    1.40414426944103    2.54285112768194
C         2.93804115459266    0.69543633516321    1.79366637265872
C        -0.36752716666001    3.44413435035873    0.58029879258012
C        -1.74013210357057    3.00741588983283    0.58054459941955
C        -1.97818665379860    2.28654468588757    1.80361199533287
C        -0.73393250395930    2.25581684802015    2.55761528373596
C         0.24647420110131    2.98080949443068    1.80023381740862
C        -3.39591089216029    0.72883802558845    0.57533866561121
C        -3.37932885665645   -0.70504006359254    0.57786353554246
C        -2.74934612856665   -1.12865052488571    1.82052481704193
C        -2.40026274086307   -0.01382700939334    2.55826017594831
C        -2.77435746218519    1.16021035149421    1.80187148511327
C        -1.70577977915925   -3.00504292266898    0.57191390059864
C        -0.34657433486683   -3.46193150719564    0.56452064530943
C         0.25810980605866   -3.00738238851431    1.79111395103090
C        -0.74203335365356   -2.29289841924391    2.55243835495534
C        -1.91196172287597   -2.27950749485726    1.81757326885181
C        -0.23558165862281   -3.01371296632646   -1.83961821271520
C         0.75175047781152   -2.28700579367404   -2.59867644532734
C         1.98089777627659   -2.28868303835222   -1.84308617931945
C         1.74918768154887   -3.01946296828987   -0.62050040464920
C         0.38088379041600   -3.46658963937948   -0.62079308111870
C         2.79204993046375   -1.16413556659148   -1.83875967224219
C         2.41002754086118    0.00666527739579   -2.59106683151125
C         2.78807241943814    1.16926264052202   -1.83130610074559
C         3.40298548527550    0.72369088805355   -0.60835037131266
C         3.40110069057525   -0.71955382898331   -0.60923004493565
C         1.96912615256614    2.29475463280888   -1.82840259178522
C         0.74474441569639    2.29528025280401   -2.58515694980539
C        -0.24988429155059    3.01642431380723   -1.82795956514323
C         0.36353023978106    3.45499162487799   -0.59844520421847
C         1.73735095077191    3.01278425815446   -0.60243935985793
C        -1.56944867307335    2.59059487249377   -1.83048045584010
C        -1.94787757007795    1.42311330884846   -2.58910001301826
C        -2.94122296022124    0.70465889669871   -1.83002690890673
C        -3.17947337159538    1.42642572884929   -0.60816005298080
C        -2.33307692209202    2.59081264516620   -0.60600270171083
C        -2.93172079240255   -0.68656028280689   -1.82266620418654
C        -1.94059925011627   -1.40887980593779   -2.58138532694875
C        -1.55636984787224   -2.57670213587000   -1.82754179967090
C        -2.29848528094837   -2.57416283302738   -0.59738768824741
C        -3.15456863482430   -1.39758782868201   -0.59434922362650
C        -0.98936986995949   -0.71482485845558   -3.31408037280858
C        -0.99159024528376    0.72723605185279   -3.31429029098428
C         0.38014149579772    1.17201579903766   -3.31523274930469
C         1.22728121177112    0.00778684511203   -3.31823795360647
C         0.38205649969615   -1.16057927312445   -3.31917058806611
Cl       -2.09995733548554    0.29360223981566    5.20530702406437
Cl       -0.35034641589922   -2.11046483688082    5.19906768498811
Cl       -5.11697676193246   -1.08598520607123    0.91187035540067
63
 energy: -142.093803709096 gnorm: 0.063569702739 xtb: 6.4.1 (a3dbbd7)
C        -1.32038228295715    0.00714074866868    3.59672864434853
C        -0.38580298598150   -1.27725198300883    3.59007060929888
C         0.98991433004016   -0.72590145748722    3.28678498909092
C         0.97183628895607    0.69496949782281    3.25718726192614
C        -0.37506375899344    1.14843967265321    3.28940006534648
C         2.33281408028589   -2.58758288216477    0.56758128843513
C         3.16964135102174   -1.41526647035470    0.56820836217225
C         2.92244438994176   -0.69244120769036    1.79155037455445
C         1.93269347241921   -1.40483970564302    2.54884948578393
C         1.57843340803434   -2.59605560821118    1.79199223645377
C         3.18423193378873    1.41974574762253    0.57317712188430
C         2.33633376497532    2.58636819035959    0.57643785830129
C         1.57605612967510    2.57247594256605    1.79958414968626
C         1.94538788695972    1.40492307141284    2.54334638174321
C         2.93980460737727    0.69609859766915    1.79426358258725
C        -0.36349440509800    3.44786366985641    0.58210348690071
C        -1.73750557739159    3.01638726404951    0.58433628457308
C        -1.97380718540197    2.29970660545032    1.80520931849198
C        -0.73082705242603    2.25994701506030    2.55820565096946
C         0.25046954650906    2.98491096825020    1.80215327820307
C        -3.38149366883878    0.74173716468019    0.57733707066421
C        -3.47802184535286   -0.72754865785559    0.59956703613416
C        -2.73120745801243   -1.12484835771482    1.82297997178334
C        -2.38380792609814   -0.01266305653491    2.55084628654595
C        -2.76086827408241    1.16452889400272    1.79587018689208
C        -1.70405815678661   -3.00243582169533    0.57190112624303
C        -0.34615990722290   -3.45800675203040    0.56475363806898
C         0.26087940108612   -3.00668835848599    1.79257644161053
C        -0.73463550084529   -2.29278534612092    2.55399752892296
C        -1.90339819769957   -2.27765069567533    1.81553915251825
C        -0.23259286371819   -3.01513001160862   -1.84525357493037
C         0.75503430972434   -2.28784644299432   -2.60187135299963
C         1.98199353362353   -2.28900634606372   -1.84296222122363
C         1.74933415559997   -3.01949336568176   -0.62033537229400
C         0.38243313287915   -3.46490435683545   -0.62128252258341
C         2.79251852382066   -1.16420431467859   -1.83858409181349
C         2.41077694973437    0.00652385455496   -2.59111115281417
C         2.78881258066115    1.16970717504737   -1.83088708779837
C         3.40305356356863    0.72384263614108   -0.60846122425971
C         3.40123513520990   -0.71922193556593   -0.60896669238637
C         1.96981188547563    2.29492424870755   -1.82783733622598
C         0.74521627323718    2.29607411129735   -2.58446637882467
C        -0.24811864540938    3.01661248672415   -1.82687877865654
C         0.36581871140299    3.45606688637188   -0.59746883894540
C         1.73884024632542    3.01318392365596   -0.60186515391908
C        -1.56770948213041    2.59046494702323   -1.82789166555146
C        -1.94554291186589    1.42106121619512   -2.58693132945329
C        -2.93439559105275    0.70264977340809   -1.83135726751024
C        -3.16466158873002    1.42923470855174   -0.60423184379715
C        -2.33021835971583    2.59815066741042   -0.60464366713839
C        -2.91802539048664   -0.69285079994054   -1.82609977674845
C        -1.93335538327212   -1.41482112396975   -2.59512160716788
C        -1.55074133437415   -2.58036090949211   -1.84037751271834
C        -2.29360769239309   -2.56732020664260   -0.60692519633030
C        -3.15682985365922   -1.41679722143086   -0.61871806866334
C        -0.98402973232512   -0.71688027316947   -3.32293010731034
C        -0.98778574059312    0.72638586909361   -3.31724983971175
C         0.38105563589253    1.17184757532441   -3.31631346867700
C         1.22985410000894    0.00795710504142   -3.31970924469779
C         0.38651725760184   -1.16161830419777   -3.32365451466364
Cl       -2.09866835520602    0.29511868974485    5.20992452585423
Cl       -0.34811044692969   -2.11029421069417    5.20057576513448
Cl       -5.24856019236413   -1.11710636331637    0.94561162114637
63
 energy: -142.099976186375 gnorm: 0.015560081101 xtb: 6.4.1 (a3dbbd7)
C        -1.31568210845390    0.00617219704513    3.58805836038151
C        -0.38059138442005   -1.27637832743446    3.58935122334505
C         0.99512733015909   -0.72444542919855    3.28700441565388
C         0.97610180667917    0.69638163842715    3.25524094773072
C        -0.37102450123975    1.14945280170690    3.28733667438000
C         2.33628222796714   -2.58680126630198    0.56847210532171
C         3.17289380925245   -1.41468376499158    0.56773617312830
C         2.92710455798934   -0.69140042459024    1.79143775909608
C         1.93763098882168   -1.40387867716000    2.54929999105249
C         1.58210379954406   -2.59444375317559    1.79217860218658
C         3.18812932112604    1.42089000811647    0.57286414309044
C         2.34073978975088    2.58718790030409    0.57651995291611
C         1.58076269674400    2.57395709443019    1.79967505526067
C         1.95032973110988    1.40640153106566    2.54289889259984
C         2.94438550456038    0.69713259582649    1.79385890136266
C        -0.35929343325203    3.45097109289991    0.58319919149841
C        -1.73337346805988    3.01779705406711    0.58672789762643
C        -1.97047227411517    2.30301848639274    1.80369471200825
C        -0.72727928385958    2.26140471997183    2.55757891378590
C         0.25516985024682    2.98683420984267    1.80285260555039
C        -3.38282889541483    0.74607060357005    0.57879182814388
C        -3.56956840523762   -0.74539203687948    0.62204363437623
C        -2.73286536523397   -1.12602553024462    1.82486738730803
C        -2.37807147272001   -0.01761248860085    2.53993371489327
C        -2.75505909339040    1.16249297653550    1.78522130654459
C        -1.70541234121595   -3.00010970162896    0.57481527609527
C        -0.34654598951550   -3.45180688864864    0.56469024990400
C         0.26253710235147   -3.00306328523637    1.79303580706272
C        -0.73192405552483   -2.28927690137950    2.55234866200728
C        -1.90538711794249   -2.27580326450364    1.81353624842507
C        -0.23062678290372   -3.01177136948728   -1.84613654460824
C         0.75854022808614   -2.28800529435570   -2.60417606326090
C         1.98439635389646   -2.28850642543714   -1.84307309229669
C         1.75051200959986   -3.01802330489984   -0.61992484654234
C         0.38484285858388   -3.46185897593372   -0.62018710724902
C         2.79492227439272   -1.16397163270658   -1.83896915336599
C         2.41351095004381    0.00649652662891   -2.59194590767654
C         2.79180107354952    1.17003131844723   -1.83092382278417
C         3.40574187846063    0.72411296658728   -0.60928597161777
C         3.40398539710733   -0.71871393976702   -0.60944962716050
C         1.97245921032577    2.29481861065648   -1.82759496028147
C         0.74782325022669    2.29658329747853   -2.58404360453752
C        -0.24479755863417    3.01594024848851   -1.82603918107564
C         0.36939782936115    3.45720651317140   -0.59680982184846
C         1.74187897974583    3.01341913895012   -0.60178069029595
C        -1.56399823347385    2.58762156121583   -1.82455222745702
C        -1.94288110568195    1.41727364233976   -2.58298708723059
C        -2.93307481200616    0.70212552920241   -1.83306484821288
C        -3.16094581409952    1.42674267123782   -0.59849197109782
C        -2.32542231965678    2.59435560119195   -0.60205209385623
C        -2.91097250889683   -0.69395181759260   -1.81916917322848
C        -1.92767386749568   -1.41364506760982   -2.59632608010121
C        -1.54686545296842   -2.57680022718068   -1.84184272486284
C        -2.29476976208687   -2.55382791430223   -0.60587985996075
C        -3.15023278691277   -1.41929486682255   -0.62365177664859
C        -0.97901182080452   -0.71677534350756   -3.32588894411789
C        -0.98295327043496    0.72645379138010   -3.31951732721676
C         0.38347358264454    1.17172322984496   -3.31715102106854
C         1.23427849245193    0.00813028533872   -3.32192073961765
C         0.39122043726780   -1.16202175223544   -3.32801552727200
Cl       -2.10487874116547    0.28939483620666    5.19421085935473
Cl       -0.34554437429586   -2.10878919275781    5.19975597653484
Cl       -5.34829608251069   -1.14628943653585    0.96987822038060
63
 energy: -142.100370126343 gnorm: 0.009516946413 xtb: 6.4.1 (a3dbbd7)
C        -1.31391368824213    0.00617865847510    3.58297321396300
C        -0.37880498255931   -1.27488989590217    3.58666197087100
C         0.99800659544692   -0.72395417516622    3.28624105755091
C         0.97939890534537    0.69666316433539    3.25460920399875
C        -0.36803588179978    1.14880068955643    3.28569828983488
C         2.33829245089830   -2.58610156025535    0.56838133897935
C         3.17552175748579   -1.41446398618964    0.56719469883122
C         2.93058819375056   -0.69101960750409    1.79120952464741
C         1.94065775271528   -1.40336112446638    2.54889135425727
C         1.58343241984860   -2.59305950347679    1.79154021059637
C         3.19130473014526    1.42142396326354    0.57252045443745
C         2.34392371349214    2.58767803598541    0.57653497655519
C         1.58396557478736    2.57452848077520    1.79985080966874
C         1.95401214697564    1.40690596155393    2.54297648708602
C         2.94808562585656    0.69753924221645    1.79368347389324
C        -0.35709188927276    3.45091428253320    0.58361872218928
C        -1.73101923679506    3.01522937759340    0.58737222745638
C        -1.96877422888721    2.29968001938688    1.80270522040256
C        -0.72481143385695    2.25984495185804    2.55624401010991
C         0.25790224095709    2.98670764999793    1.80298582633240
C        -3.39271994497408    0.74460500678933    0.58018445095173
C        -3.59358505826712   -0.74946952156308    0.62929730409888
C        -2.74367018902805   -1.13020574730840    1.82700051302314
C        -2.37881150925718   -0.02081745117267    2.53573191690655
C        -2.75612552457922    1.16033028581388    1.78198602186509
C        -1.70645934359993   -3.00078153899234    0.57680265070961
C        -0.34638135670788   -3.44940532176907    0.56443872762162
C         0.26274932593232   -2.99979978474122    1.79203946819133
C        -0.73254308092005   -2.28658879804194    2.55010984156456
C        -1.90993410754484   -2.27687382936756    1.81391297488676
C        -0.23033959545612   -3.00891339219491   -1.84503836186376
C         0.75937404484812   -2.28727661406152   -2.60428575940294
C         1.98553273746886   -2.28793863830256   -1.84330878562280
C         1.75141572748679   -3.01677501121929   -0.61978306637167
C         0.38592971724907   -3.46002370493254   -0.61934503308497
C         2.79649137065037   -1.16368330505794   -1.83951063032885
C         2.41493466237417    0.00676069572171   -2.59257213242328
C         2.79382639844071    1.17026961309642   -1.83121818989982
C         3.40807037852998    0.72432657324541   -0.60990958607464
C         3.40623291564794   -0.71845660111831   -0.61008644417326
C         1.97437320489540    2.29496455116792   -1.82754073670320
C         0.74942071257817    2.29676894086844   -2.58365302865819
C        -0.24313339938034    3.01485350905003   -1.82501725951633
C         0.37163233921395    3.45690935521228   -0.59623249620268
C         1.74426312701476    3.01362948367656   -0.60168528580529
C        -1.56205099397906    2.58493303987344   -1.82216568075140
C        -1.94227560767909    1.41599280706566   -2.58144675547303
C        -2.93502454224722    0.70285464073088   -1.83424962895245
C        -3.16516344602680    1.42497956386915   -0.59648818334640
C        -2.32340778519178    2.58928964222388   -0.59996843782981
C        -2.91286033852869   -0.69297663021353   -1.81548488500781
C        -1.92676533916391   -1.41120993468133   -2.59318958762628
C        -1.54609795603581   -2.57347304489891   -1.83900967433880
C        -2.29779331320314   -2.54996719608774   -0.60264681966817
C        -3.14958199187316   -1.41671597206838   -0.61971850809995
C        -0.97804564038809   -0.71598191670615   -3.32502631971917
C        -0.98153889022885    0.72704377069420   -3.31957770789328
C         0.38448797881477    1.17206643994252   -3.31702187021534
C         1.23588555977704    0.00852750805669   -3.32278779758784
C         0.39225086012512   -1.16151265842281   -3.32889504799665
Cl       -2.11695503044838    0.29137167194167    5.18111243778807
Cl       -0.34374138725787   -2.10586203600876    5.19756890570660
Cl       -5.36474761695030   -1.15578669721709    0.97304930811828
63
 energy: -142.100508353661 gnorm: 0.005018490963 xtb: 6.4.1 (a3dbbd7)
C        -1.31102849240078    0.00575385543453    3.57791229578586
C        -0.37775007903911   -1.27371512955170    3.58451513431844
C         0.99993865219634   -0.72356699511521    3.28592555860331
C         0.98196195442204    0.69702910400070    3.25464042364352
C        -0.36552866178139    1.14878142983785    3.28495679345482
C         2.33933374082370   -2.58579953921002    0.56853031698860
C         3.17694665234198   -1.41442932474608    0.56700928952918
C         2.93279167877805   -0.69076348614299    1.79123823569010
C         1.94260666136699   -1.40308494602317    2.54883502710557
C         1.58416610200502   -2.59229937514222    1.79149139784174
C         3.19294025574714    1.42179295450956    0.57222167363839
C         2.34568913047031    2.58812252272010    0.57643452967028
C         1.58593276907035    2.57521167526348    1.80002733957527
C         1.95650474174154    1.40751643834951    2.54324982735661
C         2.95034533185494    0.69785412001564    1.79361941175802
C        -0.35570404081897    3.45104191989819    0.58376040790715
C        -1.72944432585943    3.01360779243789    0.58755108283521
C        -1.96698414239342    2.29675702843609    1.80190443086290
C        -0.72292646287737    2.25902849653937    2.55557444293327
C         0.25959266255612    2.98706287699846    1.80308777123152
C        -3.39963977474627    0.74314326648261    0.58045499828313
C        -3.60629146930758   -0.75133640695446    0.63320500895941
C        -2.75179778800929   -1.13332803515425    1.82774279804233
C        -2.37737176299272   -0.02293614027850    2.53097651003150
C        -2.75608504599900    1.15890892161908    1.77938559004950
C        -1.70686825481461   -3.00190300520117    0.57864403963269
C        -0.34609954759660   -3.44839044699882    0.56461760415089
C         0.26275593315643   -2.99743431208510    1.79153675134313
C        -0.73305993352248   -2.28510860102586    2.54906495716551
C        -1.91262744892831   -2.27780742503841    1.81443795247054
C        -0.23061337081652   -3.00713669333862   -1.84398224916938
C         0.75916507235366   -2.28681146655145   -2.60390745243919
C         1.98567882322101   -2.28776699858492   -1.84327427352929
C         1.75172622902496   -3.01613408428163   -0.61943788399848
C         0.38642238796516   -3.45910765213333   -0.61840412439765
C         2.79683277579573   -1.16362018316972   -1.83976564981914
C         2.41504926184087    0.00680950302741   -2.59290438419491
C         2.79445563996470    1.17033529905761   -1.83145190081884
C         3.40889141285303    0.72437493648066   -0.61033400141249
C         3.40705603636796   -0.71837957798037   -0.61041900691902
C         1.97517099238987    2.29514364136263   -1.82766913060835
C         0.74997055247653    2.29696560899283   -2.58360263076105
C        -0.24242395795539    3.01431940412931   -1.82457737171508
C         0.37285038537520    3.45667231721389   -0.59600492984738
C         1.74557112257084    3.01392346046389   -0.60181936011892
C        -1.56099902754331    2.58312006636009   -1.82070117208829
C        -1.94235612434129    1.41576645715405   -2.58126459853846
C        -2.93670071537650    0.70405359510163   -1.83602409647762
C        -3.16804471108476    1.42404761843141   -0.59572292697215
C        -2.32208258867528    2.58589525639832   -0.59853329104339
C        -2.91471031577551   -0.69164268367411   -1.81313481906785
C        -1.92638465069568   -1.40929267287235   -2.59045743760151
C        -1.54566837256519   -2.57079977188348   -1.83640790519621
C        -2.29992394902375   -2.54741531771898   -0.59959865738082
C        -3.14807684865030   -1.41338364540150   -0.61570896344077
C        -0.97809321324224   -0.71544488687376   -3.32442341433286
C        -0.98118422828687    0.72764704681525   -3.31989897133062
C         0.38457679244075    1.17238731238230   -3.31708361701285
C         1.23617537226448    0.00871244715387   -3.32333821434819
C         0.39209592750578   -1.16122511352076   -3.32912235957188
Cl       -2.12056009333424    0.27999367425584    5.17379414190127
Cl       -0.35015960763979   -2.09566595565252    5.20016983538297
Cl       -5.36624720642522   -1.16082379755628    0.97072310846546
63
 energy: -142.100511361443 gnorm: 0.003682085847 xtb: 6.4.1 (a3dbbd7)
C        -1.31081095534864    0.00572941179020    3.57769092524679
C        -0.37732688100872   -1.27458694984799    3.58606088863075
C         1.00017662837987   -0.72419371180829    3.28615272593129
C         0.98246513464822    0.69647235574535    3.25573715893244
C        -0.36512294585163    1.14817854347421    3.28515380382802
C         2.33963253363177   -2.58604395816451    0.56857831353362
C         3.17724508250352   -1.41468642144531    0.56703033743660
C         2.93326535591936   -0.69095825439876    1.79137259466474
C         1.94289935914711   -1.40326889515702    2.54870739289893
C         1.58451420214977   -2.59244499331374    1.79158619740168
C         3.19296803001052    1.42161635023312    0.57248357881230
C         2.34585859696240    2.58795187979469    0.57684584848695
C         1.58624443783483    2.57503976663712    1.80061870118209
C         1.95678429066332    1.40715494803181    2.54398569931797
C         2.95058901604312    0.69759736216570    1.79396246997630
C        -0.35524472510983    3.45115907575854    0.58407391098157
C        -1.72890343790262    3.01320206971952    0.58764045838785
C        -1.96591114917520    2.29518015815391    1.80152633718794
C        -0.72225316845472    2.25808848635220    2.55534586254884
C         0.25996780873900    2.98702787600763    1.80343385014989
C        -3.40228445515216    0.74210554587220    0.58020393133225
C        -3.61118949418992   -0.75212311483169    0.63508720013987
C        -2.75541663618026   -1.13474470764816    1.82822755844179
C        -2.37492225422617   -0.02365286068778    2.52764326058410
C        -2.75503050251837    1.15814336259518    1.77765900582776
C        -1.70666591892969   -3.00244865060011    0.58026364049461
C        -0.34585161692647   -3.44823674816809    0.56500134998667
C         0.26279971708990   -2.99617192870277    1.79136092450000
C        -0.73271729419521   -2.28440388720525    2.54935101800966
C        -1.91310113597161   -2.27813536044062    1.81554988928520
C        -0.23108417042414   -3.00649486525549   -1.84335700032774
C         0.75852353334575   -2.28662181561864   -2.60348525217717
C         1.98530781196709   -2.28786865031467   -1.84321000019909
C         1.75166037087262   -3.01617162356983   -0.61928835194188
C         0.38646269883770   -3.45899237048187   -0.61775483961861
C         2.79647685748526   -1.16370919350773   -1.83976849730842
C         2.41449646404406    0.00676036807329   -2.59281508159070
C         2.79415253738305    1.17024244029327   -1.83124860964948
C         3.40857092730506    0.72418485485629   -0.61020108653047
C         3.40688387803790   -0.71852650543357   -0.61042469497336
C         1.97510526576997    2.29519441269589   -1.82743669405988
C         0.74980453045668    2.29711645751186   -2.58339061274369
C        -0.24245665029005    3.01428176255887   -1.82426737328329
C         0.37310916484258    3.45647782357884   -0.59564044040528
C         1.74577643393911    3.01389593926801   -0.60152555056104
C        -1.56082853589281    2.58246505439841   -1.81996603263642
C        -1.94283804110609    1.41617878772917   -2.58154278008235
C        -2.93763364884502    0.70504966713157   -1.83724042955550
C        -3.16909377315927    1.42375409891446   -0.59544444785111
C        -2.32164046519852    2.58453660283622   -0.59769257899426
C        -2.91548807372587   -0.69060577286982   -1.81165168831666
C        -1.92630194046187   -1.40829251743608   -2.58869339067757
C        -1.54549584918544   -2.56928159593344   -1.83468602667546
C        -2.30058663092279   -2.54578649503781   -0.59729752025094
C        -3.14589107258596   -1.41062929088126   -0.61257169473505
C        -0.97859961964239   -0.71515873099377   -3.32405269224823
C        -0.98144769475545    0.72813156468785   -3.32005215882471
C         0.38416229521231    1.17263445751156   -3.31697093576753
C         1.23576062502161    0.00879416911468   -3.32337526714761
C         0.39143856267660   -1.16107284146556   -3.32892371677013
Cl       -2.13679393868407    0.29829850080319    5.16238023105635
Cl       -0.33390706639659   -2.10920696584305    5.19550335033090
Cl       -5.36050357008023   -1.16289809976980    0.96602092283336
63
 energy: -142.100567216754 gnorm: 0.001794026513 xtb: 6.4.1 (a3dbbd7)
C        -1.31089880500584    0.00556422721697    3.57803407597292
C        -0.37765841640918   -1.27396443615366    3.58546055335643
C         1.00000013368976   -0.72401105429359    3.28621834479114
C         0.98210177579332    0.69663997520361    3.25541583203689
C        -0.36549322858103    1.14844922275460    3.28549669086641
C         2.33915474374582   -2.58618251868340    0.56854913394957
C         3.17666405286923   -1.41473933464123    0.56696380491246
C         2.93262857288536   -0.69100439523379    1.79121664833756
C         1.94252988026386   -1.40336732146403    2.54883214841384
C         1.58428916417356   -2.59280654645639    1.79179118587387
C         3.19243233956833    1.42153580875435    0.57222950863587
C         2.34527648133767    2.58785315029996    0.57656142165108
C         1.58573820124709    2.57500286163576    1.80031511329458
C         1.95632846265272    1.40722132504206    2.54359673887596
C         2.95000182713907    0.69756911833723    1.79366716535970
C        -0.35570009437148    3.45122405909756    0.58402942118260
C        -1.72941973477507    3.01392808985580    0.58769735829520
C        -1.96630107839272    2.29619893142983    1.80202447539753
C        -0.72268923890552    2.25867345043515    2.55582253466189
C         0.25951923371593    2.98711915126828    1.80338193290462
C        -3.39952498287263    0.74258354636028    0.58002730276254
C        -3.60713257689878   -0.75156836469403    0.63357648509139
C        -2.75244928650549   -1.13363943153559    1.82758477873649
C        -2.37510931503865   -0.02308791798101    2.52873129903520
C        -2.75475874568863    1.15863518893277    1.77859772880264
C        -1.70639419337672   -3.00220591252094    0.57965329243130
C        -0.34589240219267   -3.44886143752431    0.56510720037867
C         0.26281009706609   -2.99725918591193    1.79182360593575
C        -0.73265574218805   -2.28524220645075    2.54991758662694
C        -1.91187563885125   -2.27782135272576    1.81524514198189
C        -0.23109640825704   -3.00723732568564   -1.84373758832189
C         0.75838298446148   -2.28681616120048   -2.60359336268347
C         1.98505690183142   -2.28799560344469   -1.84324527586847
C         1.75144881281884   -3.01646042950070   -0.61939400802990
C         0.38624066374724   -3.45944805279650   -0.61798727227742
C         2.79613337420498   -1.16378933878439   -1.83980790140053
C         2.41419431134061    0.00665981802309   -2.59283860801378
C         2.79371206891878    1.17016483113574   -1.83139866956869
C         3.40815649847628    0.72412115417800   -0.61035129141564
C         3.40640006647253   -0.71860161744293   -0.61048511797288
C         1.97464961452099    2.29511601610915   -1.82762296054331
C         0.74936517275835    2.29706463544894   -2.58353896095433
C        -0.24288727827128    3.01456518923671   -1.82451081820662
C         0.37258692990423    3.45655520870279   -0.59579805150953
C         1.74523080695107    3.01381767028482   -0.60173796271824
C        -1.56137999478890    2.58324629431195   -1.82046704079106
C        -1.94305177944748    1.41651488614507   -2.58174760922912
C        -2.93709873539980    0.70484230624756   -1.83671537288952
C        -3.16787302430328    1.42419527162979   -0.59561605881378
C        -2.32211988390138    2.58585469920928   -0.59803094450985
C        -2.91464181660958   -0.69087133055228   -1.81241045895917
C        -1.92647591046460   -1.40896074752388   -2.58965639728764
C        -1.54563514665219   -2.57015530962339   -1.83563774223682
C        -2.29960628410299   -2.54641731253782   -0.59827313520704
C        -3.14556375706321   -1.41122771354878   -0.61367886303897
C        -0.97879626887697   -0.71533190737815   -3.32438139983332
C        -0.98181168524550    0.72800628734834   -3.32000728217890
C         0.38387098851288    1.17252419828917   -3.31704823874662
C         1.23538786867757    0.00868659382197   -3.32325503749797
C         0.39123295146807   -1.16120569097178   -3.32883027309012
Cl       -2.12829727075639    0.28663720793065    5.16882422891588
Cl       -0.34404912541907   -2.09989205349683    5.19943116950374