62
 energy: -137.556109422257 gnorm: 0.037889949817 xtb: 6.4.1 (a3dbbd7)
C        -1.32439284121738   -0.00143362176098    3.60444540646639
C        -0.39448104124584   -1.27548684483939    3.59828945737992
C         0.96641719038073   -0.72051124241546    3.27574980818311
C         0.97539641118173    0.70000419545211    3.26683000321655
C        -0.38043656287085    1.12757998654950    3.28694581713647
C         2.32098252667276   -2.57209999560857    0.56672810345313
C         3.16026595479589   -1.40277497556452    0.56741938238799
C         2.89896198703855   -0.68124736050043    1.78213843167974
C         1.91447819547517   -1.38986696236299    2.54626651650977
C         1.56117084375982   -2.57007541284991    1.77636539177326
C         3.17781186770932    1.41808061626577    0.55772117151464
C         2.33166715066100    2.58089387683916    0.56089424729283
C         1.57244101665584    2.55729662907862    1.78469001186345
C         1.93365062225720    1.39736192376980    2.53057291279723
C         2.92531583459292    0.69950668912799    1.77989854052716
C        -0.35832456797118    3.43079057962362    0.57984181306781
C        -1.72903893290033    2.99265293987947    0.57960461998539
C        -1.95794479141270    2.26461854708687    1.78691975696413
C        -0.72590627905181    2.23520845433545    2.55633661966663
C         0.25006596659982    2.95551927505488    1.79178083569638
C        -3.37292701167624    0.71992588083914    0.57363459758855
C        -3.37131032883245   -0.71031716801605    0.57496062850240
C        -2.74644590919729   -1.12845883647627    1.82086601151580
C        -2.39120588968301   -0.02023187194295    2.56315798809351
C        -2.76437833682892    1.15240085027360    1.80718828630766
C        -1.70909503412552   -2.99611575277607    0.57065634933440
C        -0.34822785719749   -3.43691935979410    0.56522674116474
C         0.25398825896153   -2.99418123656979    1.79815632371893
C        -0.74599698599339   -2.28171518047258    2.55725653344459
C        -1.91190084638097   -2.27584778196501    1.81840706987395
C        -0.23357566812279   -3.00473349326175   -1.83373723792650
C         0.75253613815065   -2.27981725700819   -2.59274516419418
C         1.98006812036834   -2.28105261233876   -1.83963098269169
C         1.74664426677468   -3.00289692679060   -0.62028237940818
C         0.37766602432479   -3.44758550276009   -0.61180454538278
C         2.78998733650184   -1.15664640694681   -1.84219209819196
C         2.40967032647073    0.00823197094797   -2.59408804550415
C         2.78752988997979    1.17229794117881   -1.83738798263114
C         3.39927589633368    0.72547486228162   -0.61675393170291
C         3.39065887752666   -0.71580177107429   -0.61177611406613
C         1.97171504423465    2.29343930132307   -1.83417232799280
C         0.74579742303444    2.29442682361225   -2.58731521298130
C        -0.24368297871921    3.01204296285821   -1.83076727754155
C         0.36379941610299    3.44356956308034   -0.60059716260148
C         1.73795623309336    3.00881976778314   -0.61047321313854
C        -1.56293085354476    2.58771852830155   -1.82777423705113
C        -1.94116617311736    1.42180942240388   -2.58393365984732
C        -2.93338693722141    0.70386043908106   -1.82634850640192
C        -3.16412091327363    1.41814928098705   -0.60179354372220
C        -2.31951437020057    2.58397859852937   -0.60759749661961
C        -2.92583612917271   -0.68444912399668   -1.81452866048848
C        -1.93493881224713   -1.40486704641403   -2.57012841570065
C        -1.55216851302461   -2.57116117068855   -1.81808659799381
C        -2.29880441768206   -2.57433733176280   -0.59276511298066
C        -3.15474380101774   -1.39801561332597   -0.59063645790677
C        -0.98629099933250   -0.71260240289014   -3.29866771769351
C        -0.98682387298699    0.72698601912372   -3.30357169287418
C         0.38183062245904    1.17121047742308   -3.31194338096495
C         1.22701043175422    0.00982133649344   -3.31563383089489
C         0.38337898257314   -1.15606607488479   -3.30871793047196
Cl       -2.12364837261004    0.27687409999197    5.21010221011525
Cl       -0.34728758855334   -2.12333408161667    5.20344298466558
62
 energy: -137.558671057803 gnorm: 0.015394216862 xtb: 6.4.1 (a3dbbd7)
C        -1.32188720265227    0.00411192882168    3.59431956286841
C        -0.38938075530515   -1.27545982687556    3.58933195419149
C         0.98206884796074   -0.72587510744019    3.28344330105351
C         0.97322096951703    0.69744078946264    3.26213769949448
C        -0.37907967600454    1.14313082686848    3.29199838951335
C         2.32865367756610   -2.58404040556723    0.56609808975126
C         3.16811928746714   -1.41231818640767    0.56774644674544
C         2.91486118900274   -0.68976412990395    1.78816316693009
C         1.92767034103781   -1.40199362824605    2.54874439250105
C         1.57107621613902   -2.58883139374455    1.78442386878898
C         3.18267489789443    1.41976194103377    0.56863647463904
C         2.33425355285988    2.58561262113363    0.57157617338037
C         1.57385574481171    2.56943912690510    1.79554074532748
C         1.94000514150289    1.40207887477722    2.53777681619183
C         2.93659471245073    0.69721266920616    1.79073947801646
C        -0.36520063225224    3.44181376104960    0.58028898645215
C        -1.73819209014013    3.00379727299577    0.58012002802516
C        -1.97277667747224    2.28034731230374    1.79651877043620
C        -0.73240884035053    2.25170048153229    2.55849926191408
C         0.24717017147795    2.97442002719133    1.79787939929466
C        -3.39007436207350    0.72698478255729    0.57485650355467
C        -3.37657081141773   -0.70629943941065    0.57723320579783
C        -2.74922409128196   -1.12854852898493    1.82207821166697
C        -2.39885905217866   -0.01528433314147    2.56087097367969
C        -2.77480322417409    1.15938246867838    1.80611438506699
C        -1.70590709881468   -3.00250191751894    0.57173427319232
C        -0.34605951336380   -3.45590403521465    0.56461768559011
C         0.25761739398511   -3.00715318204670    1.79579948228222
C        -0.74298177576530   -2.29154996467760    2.55529437011975
C        -1.91181494872855   -2.27966069872105    1.81926586140156
C        -0.23502313095184   -3.01194508288853   -1.83844100131164
C         0.75224504584333   -2.28598147236486   -2.59792190377266
C         1.98130357259089   -2.28793556573007   -1.84278190549580
C         1.74968467581506   -3.01548042105919   -0.62191725516870
C         0.38036449463881   -3.46292579898813   -0.61804566062600
C         2.79249475443491   -1.16208224935732   -1.84081225221581
C         2.41106406825010    0.00693556176962   -2.59263371246806
C         2.78899635344056    1.17105760812988   -1.83339687598278
C         3.40284022310728    0.72451168360589   -0.61064553100175
C         3.39865261783363   -0.71924544239927   -0.61055516396500
C         1.97064628381529    2.29546926051072   -1.83047311235081
C         0.74474031084247    2.29627259324251   -2.58649291892428
C        -0.24849757775436    3.01609286943559   -1.82981091506437
C         0.36238016846059    3.45252458501992   -0.59971121618923
C         1.73753227247866    3.01279500697055   -0.60476117340725
C        -1.56933595357219    2.59058329549574   -1.83035295276201
C        -1.94722223380664    1.42300821806718   -2.58853954281094
C        -2.93999120339382    0.70424492007150   -1.82937780578600
C        -3.17710742157422    1.42455125128565   -0.60605201493722
C        -2.33013113350055    2.58997679555794   -0.60790169708536
C        -2.93100183622393   -0.68634436171130   -1.82063401231096
C        -1.93950714494545   -1.40827122164817   -2.57859130288541
C        -1.55545325792661   -2.57609762482467   -1.82521120507973
C        -2.29883624419438   -2.57550356749458   -0.59633029064431
C        -3.15586927931708   -1.39814514337218   -0.59351818007619
C        -0.98867471450924   -0.71441344333770   -3.30955113060185
C        -0.99041618784075    0.72726006222324   -3.31127851305747
C         0.38065833760444    1.17208590435052   -3.31485786529632
C         1.22753951769798    0.00854798708039   -3.31806333409241
C         0.38268595621585   -1.15938971430946   -3.31631139787395
Cl       -2.10356179653759    0.28292384963217    5.20768871127549
Cl       -0.34861568970606   -2.10722902967813    5.20207882842114
62
 energy: -137.558882713712 gnorm: 0.005609570673 xtb: 6.4.1 (a3dbbd7)
C        -1.32290063443060    0.00650509472094    3.59256220299635
C        -0.38794897320885   -1.27746777803852    3.58871270829606
C         0.98712095377348   -0.72711205543834    3.28527122511854
C         0.97121901216997    0.69527745858133    3.25908445072187
C        -0.37758778124072    1.14749799069159    3.29158794625841
C         2.33133532667186   -2.58754422458509    0.56612313015621
C         3.16986602807165   -1.41528656851735    0.56778762707653
C         2.92033514240276   -0.69259160751632    1.79048245952925
C         1.93104859325496   -1.40526316208801    2.54822631906293
C         1.57496739747360   -2.59579165600558    1.78919386270246
C         3.18355588739344    1.41994637679327    0.57263934007932
C         2.33448497940542    2.58659185194840    0.57560060405282
C         1.57374392610035    2.57247388625321    1.79920203385522
C         1.94277729787296    1.40404766207563    2.54202759669315
C         2.93927525621759    0.69619837411234    1.79435442119740
C        -0.36769037737114    3.44479999526672    0.58046182201803
C        -1.74090563064753    3.00744353044462    0.58066211801427
C        -1.97826929836030    2.28618839560384    1.80190964290614
C        -0.73406447459063    2.25604562502247    2.55776754502845
C         0.24628005632604    2.98102839601798    1.80017709251410
C        -3.39598374003093    0.72895729182403    0.57547617182892
C        -3.37851881208027   -0.70509637211418    0.57836013874604
C        -2.74907677703506   -1.12852809085401    1.82170998968118
C        -2.40039574571442   -0.01370273874643    2.55911366464889
C        -2.77615668968613    1.16081613125450    1.80381461771247
C        -1.70477439442898   -3.00472649557198    0.57243910394957
C        -0.34550958155436   -3.46216601134430    0.56462179419859
C         0.25890420309861   -3.00927567744530    1.79311651064390
C        -0.74144253472087   -2.29359409763201    2.55366475443029
C        -1.91114501185731   -2.27990901416673    1.81878395077637
C        -0.23540176682002   -3.01401903804240   -1.83961698405503
C         0.75196019625477   -2.28751243448031   -2.59907724059660
C         1.98134584088201   -2.28929300774305   -1.84339916912854
C         1.75028270877153   -3.01946555426455   -0.62144391029135
C         0.38147625713607   -3.46740084467763   -0.62042230253481
C         2.79251241768971   -1.16374821389234   -1.83943618263468
C         2.41038252857641    0.00670248480644   -2.59152293289135
C         2.78827125287613    1.16999794587385   -1.83153687821929
C         3.40322535304230    0.72428423633857   -0.60838038358899
C         3.40110539894832   -0.71956394210475   -0.60971999853859
C         1.96917296466881    2.29535464707972   -1.82865194821839
C         0.74412966958573    2.29590707095931   -2.58557360574831
C        -0.25031936608453    3.01673564939624   -1.82852449485869
C         0.36248939855841    3.45516157630713   -0.59886893243208
C         1.73709661523708    3.01338396507528   -0.60249097512004
C        -1.57073680545266    2.59085676019296   -1.83069294323983
C        -1.94881285690394    1.42302224591104   -2.58944448985634
C        -2.94177505046533    0.70421403203614   -1.82996178385192
C        -3.18063883643149    1.42646851065700   -0.60771257167835
C        -2.33356452867843    2.59131950280087   -0.60685744574826
C        -2.93211197513749   -0.68698258214139   -1.82233336702567
C        -1.94083763760145   -1.40934519060719   -2.58126692609617
C        -1.55625681180497   -2.57726070730265   -1.82723864063655
C        -2.29828229796370   -2.57504630776752   -0.59702521524857
C        -3.15511087125196   -1.39802397436482   -0.59399049558617
C        -0.98957008368113   -0.71508005786389   -3.31372713130467
C        -0.99190339261233    0.72712259854367   -3.31411114061289
C         0.37983686521128    1.17210604125344   -3.31551089773914
C         1.22720207271680    0.00793922828069   -3.31854179950969
C         0.38211620079902   -1.16061471197506   -3.31905737798565
Cl       -2.10679061787662    0.30634214502042    5.20173212217722
Cl       -0.33583120644989   -2.11942316395059    5.19611485222565
62
 energy: -137.558869055607 gnorm: 0.004050714046 xtb: 6.4.1 (a3dbbd7)
C        -1.32163447115248    0.00688986708968    3.58875567928131
C        -0.38754081700552   -1.27653107383020    3.58558201908167
C         0.99022759408800   -0.72631743816344    3.28567851419839
C         0.97115339005093    0.69481039890776    3.25614230444361
C        -0.37519695291800    1.14969237620371    3.29046128251598
C         2.33235179323668   -2.58831617457735    0.56614824198407
C         3.17019667811735   -1.41616500396268    0.56743434147010
C         2.92276526931459   -0.69333180123624    1.79107221810576
C         1.93277022291376   -1.40599581849181    2.54789363104239
C         1.57669553273646   -2.59824175998833    1.79204562035823
C         3.18402293125012    1.42012725447378    0.57328732529940
C         2.33469851579460    2.58703479977596    0.57630529456483
C         1.57394898527416    2.57353369368668    1.79955348567623
C         1.94523896109785    1.40579928817175    2.54346058866630
C         2.94032726839482    0.69609216536666    1.79466974742200
C        -0.36855468593303    3.44562973188703    0.58017904165006
C        -1.74147302009694    3.00860672526461    0.58093196656357
C        -1.98011306654870    2.28846117662389    1.80503304431600
C        -0.73406580616377    2.25804019360905    2.55733858363452
C         0.24636383711926    2.98384648603168    1.80071615370202
C        -3.39818925976054    0.72950053743678    0.57582199742298
C        -3.37968918254473   -0.70474720121571    0.57840749194401
C        -2.74885974257933   -1.12869549488225    1.82045487202014
C        -2.40105366470585   -0.01358533839917    2.55783995004601
C        -2.77580209621033    1.16094437804263    1.80227606294686
C        -1.70449028988236   -3.00593220446520    0.57228750673144
C        -0.34540435227350   -3.46440018923968    0.56470082796762
C         0.25938827510236   -3.00914953060081    1.79138028415179
C        -0.74120241327174   -2.29413104394696    2.55227014828742
C        -1.91091368470539   -2.27977328058891    1.81744787328818
C        -0.23539715686831   -3.01458197933426   -1.83995996839688
C         0.75182687593224   -2.28774144055082   -2.59930570005299
C         1.98122576162041   -2.28924677776344   -1.84353803595744
C         1.75023536360911   -3.02059957974072   -0.62075578175674
C         0.38198692664269   -3.46848738759806   -0.62142481443718
C         2.79222079406419   -1.16429350255905   -1.83885192050019
C         2.40970492153259    0.00671658677444   -2.59126583559964
C         2.78763609881663    1.16939515540669   -1.83130011704436
C         3.40329110836861    0.72428983864915   -0.60823091167908
C         3.40204476077704   -0.71925233041150   -0.60960787753106
C         1.96826893721658    2.29508042665727   -1.82839918877786
C         0.74383762761990    2.29538896385383   -2.58537050265688
C        -0.25105462555888    3.01670401940869   -1.82795690899449
C         0.36290048656180    3.45606296252614   -0.59871135653627
C         1.73694964056666    3.01352091064537   -0.60228150424568
C        -1.57079213671621    2.59064335838523   -1.83069300437695
C        -1.94909578494263    1.42288193909857   -2.58954660371981
C        -2.94217877422258    0.70422445599747   -1.83006369988452
C        -3.18131249010496    1.42700553227032   -0.60841081621684
C        -2.33458857282228    2.59137351480949   -0.60590689500230
C        -2.93223417743126   -0.68715942529437   -1.82310328327527
C        -1.94116341852446   -1.40964836673672   -2.58233967491126
C        -1.55636931713377   -2.57746230072064   -1.82813463027839
C        -2.29789864517422   -2.57454982984145   -0.59751192122623
C        -3.15439453120402   -1.39793278743077   -0.59437982907693
C        -0.98988484725799   -0.71530826694492   -3.31559005319041
C        -0.99254984273824    0.72699473027434   -3.31537423028381
C         0.37936463878582    1.17200168711740   -3.31588353084019
C         1.22687813017974    0.00763836564248   -3.31885379471405
C         0.38178634097645   -1.16109879309698   -3.32027584725154
Cl       -2.08954573009799    0.28037547857215    5.20976627675565
Cl       -0.36045887219835   -2.09672945714696    5.20432951719671
62
 energy: -137.558948185309 gnorm: 0.001311756022 xtb: 6.4.1 (a3dbbd7)
C        -1.32254229663456    0.00646960110767    3.59122989616139
C        -0.38809005297683   -1.27722422519389    3.58774557739788
C         0.98808229197599   -0.72632023022538    3.28548421584457
C         0.97103599177747    0.69490622709220    3.25750306668782
C        -0.37613061676854    1.14786602466079    3.29075399298565
C         2.33151068618024   -2.58717749468990    0.56607502483238
C         3.16939585791529   -1.41524311881177    0.56749035650451
C         2.92052600535457   -0.69253034552172    1.79042051908679
C         1.93110968778569   -1.40498055830246    2.54797187352875
C         1.57547950971362   -2.59604691648725    1.79068513211623
C         3.18338288042648    1.41984227010676    0.57227489875078
C         2.33427778823088    2.58644930032136    0.57529946532564
C         1.57351194037348    2.57192990232086    1.79849274542684
C         1.94381089778962    1.40477863116685    2.54256128377298
C         2.93874032764782    0.69618605350526    1.79361751212396
C        -0.36788597369478    3.44447641433933    0.58018500876906
C        -1.74061433698516    3.00742295801626    0.58069290033383
C        -1.97838827818672    2.28657897239298    1.80346989600582
C        -0.73376232209139    2.25615853873351    2.55749386788120
C         0.24638396261477    2.98133480403220    1.80004764743400
C        -3.39609427732154    0.72868255027979    0.57569826652231
C        -3.37894899384688   -0.70524615953818    0.57832350603665
C        -2.74877934204175   -1.12870807541486    1.82095473844268
C        -2.40006211592821   -0.01390366844734    2.55854772642692
C        -2.77478217518629    1.16026891731043    1.80260095692269
C        -1.70490273753805   -3.00508514214893    0.57232705845513
C        -0.34567494679909   -3.46214305064557    0.56476607968553
C         0.25898511852887   -3.00783948339112    1.79180027750967
C        -0.74133616947559   -2.29302221901546    2.55284672573942
C        -1.91108291900480   -2.27957146994051    1.81796846277914
C        -0.23526998223029   -3.01385741128698   -1.83946510977483
C         0.75190533205380   -2.28713265116544   -2.59876574921182
C         1.98119216051125   -2.28865123972370   -1.84325813566437
C         1.74993068320985   -3.01931234364088   -0.62076260535533
C         0.38157439036900   -3.46683125238687   -0.62063446157402
C         2.79216871182451   -1.16374525931161   -1.83909368093229
C         2.40985656314110    0.00687879657553   -2.59139345894762
C         2.78778052989434    1.16968888154918   -1.83164621499367
C         3.40298226423284    0.72430324177164   -0.60870998124124
C         3.40123104821929   -0.71908669688176   -0.60966971455283
C         1.96865302035226    2.29505971315370   -1.82872452422076
C         0.74408334106347    2.29541761584243   -2.58543281458950
C        -0.25049157254351    3.01644705789959   -1.82817573392481
C         0.36289458146139    3.45517080978292   -0.59877532269830
C         1.73695397396491    3.01318575807362   -0.60275164422049
C        -1.57021198677499    2.59047288186273   -1.83050509043640
C        -1.94848319709998    1.42281111271633   -2.58908366238414
C        -2.94155062891142    0.70419507452033   -1.82975876421881
C        -3.17997897255912    1.42623734249639   -0.60784901266577
C        -2.33352970316039    2.59080567037276   -0.60609804163144
C        -2.93180572658085   -0.68699373447290   -1.82233796179925
C        -1.94068212928382   -1.40928267117872   -2.58122841638154
C        -1.55610199967358   -2.57702352179558   -1.82726546852917
C        -2.29801515651601   -2.57454342044683   -0.59701154695983
C        -3.15444624816163   -1.39797488230457   -0.59394457286291
C        -0.98958173101794   -0.71509185192000   -3.31406164535463
C        -0.99204604463365    0.72700942090594   -3.31432254276403
C         0.37964078980024    1.17199037096198   -3.31545729663069
C         1.22698695782460    0.00785394720607   -3.31848685767481
C         0.38195725890003   -1.16066905033044   -3.31924930511053
Cl       -2.09929594062664    0.29410587354039    5.20555083886568
Cl       -0.34825073987063   -2.10984517009585    5.19968347326992
62
 energy: -137.558950002121 gnorm: 0.000238479060 xtb: 6.4.1 (a3dbbd7)
C        -1.32269548512579    0.00639810552814    3.59137402692130
C        -0.38822634153043   -1.27738554517820    3.58798396444840
C         0.98806556628766   -0.72621675104236    3.28574924501494
C         0.97083356119157    0.69470836983871    3.25728919656118
C        -0.37594706504351    1.14772888089594    3.29071032132554
C         2.33151633005633   -2.58692016363499    0.56597264518786
C         3.16916502107637   -1.41511288701051    0.56739716633489
C         2.92023622719521   -0.69242265436142    1.79033498462528
C         1.93088695505448   -1.40485087036260    2.54796127097010
C         1.57555089835447   -2.59582786738067    1.79093386905147
C         3.18323923786804    1.41975216578429    0.57203212476521
C         2.33412521719335    2.58632374690021    0.57507770522685
C         1.57330022466936    2.57145605514545    1.79810414303409
C         1.94378803090542    1.40476072514431    2.54252186670245
C         2.93827247529677    0.69615917266129    1.79321582429062
C        -0.36785775336141    3.44423057025422    0.58008308004553
C        -1.74040039276661    3.00730247348112    0.58057893587753
C        -1.97818135271860    2.28649696128566    1.80369303456404
C        -0.73375395246596    2.25596504048859    2.55750803161447
C         0.24637471076322    2.98104965468581    1.79993168703273
C        -3.39581233184224    0.72848741450865    0.57575115926193
C        -3.37897690528349   -0.70536964035272    0.57835463612370
C        -2.74875732509427   -1.12877690481482    1.82096649951387
C        -2.39980090464059   -0.01390041253085    2.55859510017061
C        -2.77417510797125    1.16004630329070    1.80221299727175
C        -1.70503016336711   -3.00507461001465    0.57235653191618
C        -0.34577400043522   -3.46179262482425    0.56482517940386
C         0.25899779995384   -3.00712468209876    1.79136847965794
C        -0.74120000201686   -2.29264657165678    2.55273243558005
C        -1.91114619793240   -2.27948564498479    1.81796274212073
C        -0.23521736938330   -3.01373319521341   -1.83935197113119
C         0.75190369227945   -2.28694349846871   -2.59860336490620
C         1.98115993642761   -2.28837407028276   -1.84320156316956
C         1.74975423405169   -3.01910860456517   -0.62055175117595
C         0.38150873529146   -3.46642387115238   -0.62058316678324
C         2.79211931879939   -1.16368443028252   -1.83905792894390
C         2.40979410168040    0.00698625530422   -2.59139656772408
C         2.78775787071554    1.16968775838155   -1.83176628583146
C         3.40290942756280    0.72430887475447   -0.60887622667659
C         3.40123555617292   -0.71892620270205   -0.60966145068808
C         1.96863415274477    2.29504220699166   -1.82882937197094
C         0.74416180381900    2.29532132518069   -2.58542422737669
C        -0.25045903358566    3.01637549064444   -1.82814394232858
C         0.36303525492676    3.45511178891313   -0.59876143703086
C         1.73692297861948    3.01312193912120   -0.60290028665985
C        -1.56996627631957    2.59035151794367   -1.83046115429439
C        -1.94830337854259    1.42274341793449   -2.58892353520329
C        -2.94142452949923    0.70419359026719   -1.82965972229309
C        -3.17961261254115    1.42603470050601   -0.60781772373972
C        -2.33341005621299    2.59055971808559   -0.60590524734945
C        -2.93169044873634   -0.68700067672260   -1.82220160165410
C        -1.94058588996109   -1.40922810752187   -2.58101267979868
C        -1.55605606891744   -2.57691661884904   -1.82712477477316
C        -2.29797439809090   -2.57439237900204   -0.59688004931686
C        -3.15426726285174   -1.39797758360192   -0.59381224916334
C        -0.98955705943293   -0.71508112192723   -3.31389287945741
C        -0.99201230906292    0.72697211472143   -3.31421297434289
C         0.37964593780208    1.17196478625991   -3.31537522992051
C         1.22696713541044    0.00786744465796   -3.31841323666102
C         0.38193451969207   -1.16062685641644   -3.31913725156853
Cl       -2.09922350670162    0.29380528176151    5.20555295970645
Cl       -0.34909619141371   -2.11008738446437    5.19945166193205
62
 energy: -137.558950060714 gnorm: 0.000096861412 xtb: 6.4.1 (a3dbbd7)
C        -1.32273125264098    0.00642585294776    3.59143600365963
C        -0.38822132792078   -1.27743859944896    3.58804988559275
C         0.98811553947260   -0.72623353471858    3.28584155348522
C         0.97082104888061    0.69468690747910    3.25727566027598
C        -0.37592660261883    1.14776405290026    3.29074810839200
C         2.33157994540522   -2.58694068371388    0.56594420306679
C         3.16919727508476   -1.41512930823815    0.56739870509028
C         2.92028611098183   -0.69243425602108    1.79037294075853
C         1.93090611096022   -1.40488883522552    2.54796450814720
C         1.57561987788321   -2.59586151675795    1.79098115093528
C         3.18327479658160    1.41976381386317    0.57204272319458
C         2.33413637970275    2.58635443430815    0.57508816186294
C         1.57329194433888    2.57146013042431    1.79809815645008
C         1.94378936007914    1.40475896253225    2.54247806945469
C         2.93828860324255    0.69615474995946    1.79320426394824
C        -0.36786532910884    3.44426668205855    0.58008472774981
C        -1.74040229479468    3.00735337052784    0.58055128707896
C        -1.97819629455836    2.28655562148968    1.80373688372018
C        -0.73379326645936    2.25601268852648    2.55752679888110
C         0.24637983063898    2.98111112532018    1.79996447872209
C        -3.39582451840677    0.72847642797284    0.57575682779993
C        -3.37900216498104   -0.70539141159274    0.57836480065919
C        -2.74878964005082   -1.12880274762311    1.82101295780302
C        -2.39978266917198   -0.01387061764021    2.55862611470971
C        -2.77413808579459    1.16004324535105    1.80216224897846
C        -1.70505998617929   -3.00511401361285    0.57236110344034
C        -0.34578491984316   -3.46181388444345    0.56482007864483
C         0.25901229531127   -3.00706456814231    1.79129007658680
C        -0.74114343794772   -2.29260635642489    2.55269222583821
C        -1.91119097736054   -2.27952490395214    1.81800877799345
C        -0.23521812580645   -3.01377150263180   -1.83937421231408
C         0.75190682206331   -2.28696552449974   -2.59861764912682
C         1.98116559600576   -2.28838252979287   -1.84320503965957
C         1.74973936129937   -3.01914220073528   -0.62052360084886
C         0.38149306040796   -3.46645434415095   -0.62060095567121
C         2.79214100427123   -1.16370711424602   -1.83905904455865
C         2.40981651336498    0.00699392762946   -2.59140054740353
C         2.78779002080267    1.16970199987788   -1.83177983585348
C         3.40294021481108    0.72431343661950   -0.60887345113019
C         3.40129391016219   -0.71892673498496   -0.60964991624187
C         1.96865282469838    2.29507225537123   -1.82884251768609
C         0.74417114673754    2.29533962260547   -2.58542776682478
C        -0.25048131477427    3.01639857816121   -1.82814722456049
C         0.36304734336567    3.45516505337246   -0.59875282119182
C         1.73693090630299    3.01315760273003   -0.60289881177970
C        -1.56997864099492    2.59035512780840   -1.83046632217127
C        -1.94832546094171    1.42274701420417   -2.58893421452411
C        -2.94145710838295    0.70419475909895   -1.82967034488458
C        -3.17964752793519    1.42602063748465   -0.60782843812173
C        -2.33345543213770    2.59055276492089   -0.60587673078580
C        -2.93171732455011   -0.68702155951051   -1.82221276747519
C        -1.94060276619865   -1.40924669063289   -2.58102064767200
C        -1.55607700702385   -2.57694613177445   -1.82714572353070
C        -2.29799091027980   -2.57441147670802   -0.59688636474445
C        -3.15427797211431   -1.39799682574569   -0.59381431086403
C        -0.98957365035691   -0.71509647931687   -3.31390471555131
C        -0.99202798720297    0.72696650618653   -3.31421423150463
C         0.37964098875903    1.17196429496822   -3.31537053939964
C         1.22696776571554    0.00786439627893   -3.31840895841312
C         0.38192743197484   -1.16064072864317   -3.31914133182361
Cl       -2.09915811984146    0.29386753547908    5.20551823822458
Cl       -0.34927667391409   -2.11013707762783    5.19929096949247
