72
 energy: -177.482703106684 gnorm: 0.000117648679 xtb: 6.4.1 (a3dbbd7)
C        -1.28788754957916   -0.00452853420049    3.58288242954193
C        -0.35065778326572   -1.18728214961604    3.33652711211500
C         0.99726944922773   -0.72590854206622    3.29981326882655
C         0.99328096202018    0.71660157230633    3.29744332661060
C        -0.35132648598198    1.17058287091010    3.32864618370913
C         2.34937952442666   -2.57263730016690    0.59391466963064
C         3.19264026103112   -1.41320383872844    0.59460954954119
C         2.95970454772809   -0.69359282785825    1.82044814839297
C         1.96952594752880   -1.41767090110265    2.57793601335548
C         1.59532476691421   -2.57717370675734    1.82193529156310
C         3.18787745547504    1.41905587254402    0.58618220185249
C         2.34886168296176    2.58515307496008    0.58722647334607
C         1.58516893577217    2.57351614459802    1.81095252103108
C         1.96324360363220    1.41189450931291    2.56823740908948
C         2.95199375465326    0.69507005048339    1.81630574493576
C        -0.35368690772566    3.43216279890852    0.58089318552549
C        -1.72305150064820    2.99298749167282    0.57600701170601
C        -1.95411582749740    2.26828075128950    1.80893901951732
C        -0.72263555544768    2.26418751946735    2.57056802376605
C         0.26067176494638    2.98266327777294    1.80911934484060
C        -3.40045736872901    0.70873256967471    0.59023965562180
C        -3.35612647283440   -0.68100251440936    0.57552323532633
C        -2.73525739316295   -1.13417820465420    1.82462232683418
C        -2.40608312373799   -0.01320963918164    2.58105300654716
C        -2.75350234122299    1.13943170135532    1.79933702626208
C        -1.72236262299869   -2.99162398632985    0.61622638730312
C        -0.35243327461855   -3.43029926943257    0.59916374459695
C         0.27097525513678   -2.99602757460673    1.82163801321892
C        -0.71631104899574   -2.28453413891060    2.59034625872019
C        -1.95534199014492   -2.30338030888045    1.82905388372468
C        -0.24448604266048   -3.01572622158428   -1.81856407889994
C         0.81915639413673   -2.46719235267272   -2.76715808942583
C         1.99712017695276   -2.29020598890883   -1.81427259027654
C         1.74192322011711   -2.97861864072920   -0.59340579615723
C         0.36908782342580   -3.41645618950909   -0.59041170048944
C         2.79063157856818   -1.16528699662964   -1.81200732503758
C         2.42534225635997    0.01017169113167   -2.58459523898083
C         2.79640304560876    1.16680603529925   -1.82309381295761
C         3.40652646368212    0.72137139948114   -0.59479984606860
C         3.40517752281639   -0.71791819970568   -0.59098883298663
C         1.98712779036220    2.30259797015487   -1.81793622110793
C         0.75384420387539    2.30163738291020   -2.57370810247328
C        -0.23269358767586    3.01520538557754   -1.81649859583313
C         0.38084015409058    3.45556208733501   -0.59338625103516
C         1.75732681436985    3.01660111017435   -0.59675770155143
C        -1.56177266410359    2.57961511957913   -1.80608736947470
C        -1.93727322616308    1.41204910291526   -2.56640413593645
C        -2.94203909767862    0.69873977886080   -1.85453533696249
C        -3.40543690593797    1.53491329144327   -0.66182299197244
C        -2.31985532513061    2.60379003515078   -0.60581021802554
C        -2.91512305112398   -0.68253579827990   -1.83771576047967
C        -1.93390024426936   -1.40328361501022   -2.59075313010585
C        -1.53917236049869   -2.55842843552288   -1.81130206616462
C        -2.31247010183406   -2.54711582408502   -0.58857080896059
C        -3.15660782678398   -1.41834383172898   -0.60597805355094
C        -0.95472162919112   -0.71121328626095   -3.30698752558195
C        -0.97179637702829    0.73232496447772   -3.30585418736436
C         0.38750156709770    1.17902115925212   -3.30250062137548
C         1.22888763230993   -0.00036673798508   -3.29989056242681
C         0.39247218161370   -1.14477902249707   -3.34019058152254
C        -1.81237901244313    0.00273140019196    5.02678498620045
F        -0.81764139283536    0.00357201854537    5.92344605627283
F        -2.56805431951123   -1.06778092006005    5.28682049328173
F        -2.55999500814839    1.08284301092337    5.27757244713637
C        -4.78394853480212    2.16084451032014   -0.92503165211575
F        -4.79777267721610    2.89504964644088   -2.04447992983664
F        -5.73411569712344    1.23184683393906   -1.05783904636011
F        -5.15926982856065    2.96877501963539    0.07207570736430
C         1.15134513957518   -3.47529445550440   -3.87997446561436
F         1.53460371271180   -4.65840297963048   -3.38701534325872
F         0.10006651415913   -3.70501782841012   -4.67234098622294
F         2.14491866384865   -3.04020231437421   -4.66277853966858
