72
 energy: -177.500517376750 gnorm: 0.000194704831 xtb: 6.4.1 (a3dbbd7)
C        -1.30106278615093    0.00677197632139    3.52915365886238
C        -0.35282388756739   -1.16696184968785    3.28373697517780
C         0.95822271861114   -0.71849625159110    3.27558492730684
C         0.97866456322998    0.71244396843199    3.25513610105541
C        -0.37060497925968    1.18590717231599    3.29002402177767
C         2.31240577113006   -2.57931948683009    0.57329817190084
C         3.16066550715562   -1.41465215624725    0.57351800237923
C         2.96353465750693   -0.70367000882186    1.79383050326631
C         2.09979514491077   -1.53568362098102    2.73680830840776
C         1.57893452102258   -2.61086418692629    1.79026057882482
C         3.17472211725980    1.39225807556480    0.56935046950846
C         2.33099998429661    2.55864249024558    0.57711038805130
C         1.58578896978107    2.56283800517708    1.80479801277817
C         1.96206582983580    1.41471203522025    2.56450935579782
C         2.94671165716026    0.67032748276887    1.79177209441591
C        -0.35033533853497    3.43678249945547    0.57731310015536
C        -1.74329598612110    3.00974937871820    0.59516767304181
C        -1.97817168009677    2.30953278415935    1.79065498347678
C        -0.73217340856880    2.28338981028041    2.55348762989940
C         0.25957238745947    2.99573145685889    1.79663593500905
C        -3.40091133846243    0.70682900238553    0.56146446698488
C        -3.40247649670300   -0.73122623702322    0.56626290991967
C        -2.77357308868397   -1.15235793392060    1.79713358588110
C        -2.42529717584171    0.00958139589438    2.53340383379516
C        -2.77751567482423    1.14874776180242    1.79707614827055
C        -1.72623271803506   -3.00483883928070    0.57240718029795
C        -0.35735559012791   -3.44887556383237    0.56537872729699
C         0.25803463118371   -3.00143837848308    1.78315184717260
C        -0.74580422264358   -2.29830733872352    2.56096278427724
C        -1.95688089546990   -2.29109266925071    1.80829365912082
C        -0.24924160816529   -3.02741656791645   -1.84720686701320
C         0.73865617380048   -2.29696042684235   -2.59971528185381
C         1.96770578308778   -2.29686840742462   -1.84113116206199
C         1.73119243835338   -3.01642402353599   -0.61979070076968
C         0.36667932216343   -3.46220674011980   -0.62119488838132
C         2.78841661910733   -1.17673567643769   -1.84220455401591
C         2.40936045162717   -0.00843915961041   -2.59503402447339
C         2.78457454595920    1.14960567813955   -1.83935129792782
C         3.40228300777119    0.70431738591190   -0.61619315794311
C         3.40140761381521   -0.72979977781661   -0.61598260468029
C         1.94845791413257    2.26615663197113   -1.83042365123889
C         0.75367773347242    2.28439909515370   -2.60042930578009
C        -0.25616511338958    3.23440753028915   -1.96145595937924
C         0.37742869361434    3.46364129626013   -0.59184647601146
C         1.71843804730866    2.98401436184601   -0.59965948505338
C        -1.59614180244135    2.56913584535680   -1.81730206535608
C        -1.94944752944433    1.40347490295641   -2.57528137107025
C        -2.95255776624487    0.67602638928496   -1.83552802663111
C        -3.17731332448586    1.39391893211912   -0.61237504770419
C        -2.31058560519355    2.56286015469588   -0.62115732626002
C        -2.95493831806505   -0.71282949380013   -1.83679243012997
C        -1.95585860092734   -1.42985481857482   -2.59178841873789
C        -1.57070743854409   -2.59274778109826   -1.83687609065144
C        -2.32306421507665   -2.59186832622810   -0.60861855439545
C        -3.18481749474282   -1.42861367724498   -0.61185074228939
C        -1.00109278463469   -0.72314973309106   -3.31613464216457
C        -1.00603583409994    0.71401157586784   -3.31933768794972
C         0.37703156786979    1.16358562846471   -3.30548550764855
C         1.21657179545162   -0.00193110861173   -3.31149906239546
C         0.37111152279741   -1.16793444791049   -3.31740293812508
C        -1.83439660132797   -0.01059664869928    4.96893849971441
F        -0.84728977500851   -0.01499936957950    5.86997524837730
F        -2.58634686547883   -1.08987031410800    5.20638953003903
F        -2.59383943800363    1.05921664108657    5.22680054312332
C         2.93243265895744   -2.14269635227913    3.87749903306457
F         3.94786451150707   -2.87974261822658    3.41376605074323
F         3.46184149397860   -1.19975358177924    4.66227775293743
F         2.19695766786823   -2.93957180386540    4.65868375869524
C        -0.36923079214866    4.54549352224145   -2.75323528628496
F         0.81461896815393    5.15278512924418   -2.89042141692718
F        -0.84619720921292    4.34095385285436   -3.98604162776595
F        -1.18816409786327    5.41797842251911   -2.15704476984872
