72
 energy: -177.496933294638 gnorm: 0.000237342651 xtb: 6.4.1 (a3dbbd7)
C        -1.31667341996304    0.00326141020085    3.52784963972028
C        -0.38694672780766   -1.17356854556109    3.28602540690719
C         0.95667750622846   -0.70464223495483    3.24359987233007
C         0.94470058032581    0.71941482783879    3.26198811801897
C        -0.36736729187170    1.17653378722197    3.28469014481560
C         2.49658722754277   -2.75815060496346    0.61894757367827
C         3.17558193018841   -1.39438184491217    0.56338278092681
C         2.91180802532090   -0.67569132785575    1.76201321080981
C         1.92702690801496   -1.42278509170412    2.52848684369998
C         1.56744287638770   -2.57486025888723    1.81618864257190
C         3.14017051906428    1.40816151401576    0.56828337987792
C         2.30320439736037    2.58233157836213    0.56343018110804
C         1.56551639238029    2.61289692027406    1.78354594082882
C         2.08874264167046    1.53865671735586    2.73293775471248
C         2.94191310712556    0.70338061599276    1.78327384094932
C        -0.36542888366549    3.44988802494683    0.55891164042258
C        -1.73021266237875    3.00371000046051    0.56872847781014
C        -1.96251602138569    2.29906547598474    1.81022494270688
C        -0.76075456326848    2.30368071160173    2.55928384138430
C         0.25175338024903    3.00804058259010    1.77685513675992
C        -3.40515987275542    0.71531897372972    0.55822314678949
C        -3.41691340975293   -0.71804310034407    0.55547083611805
C        -2.79458960328110   -1.15563057953486    1.78647735667828
C        -2.44609165157676    0.00750884256828    2.53789224471999
C        -2.77935231673517    1.14404259216583    1.79914169403643
C        -1.74241011441115   -2.99669470647632    0.57257089726931
C        -0.37585382817832   -3.43999391213726    0.57901486103980
C         0.24095949788132   -2.99461335098229    1.79364601316902
C        -0.74798705739538   -2.27176580371916    2.54870359495198
C        -1.99348078227681   -2.28795253390903    1.79162625858526
C        -0.26485967374726   -2.99631219243687   -1.84524722606624
C         0.72099482637031   -2.28236625292574   -2.60847456143399
C         1.94233883715419   -2.28253816156202   -1.83778616025900
C         1.70987274376485   -3.01027388697669   -0.63607806588536
C         0.36586369537540   -3.42541298013195   -0.61427365218931
C         2.77362724813889   -1.16540949548528   -1.86029596351576
C         2.39051905124352   -0.00673814548176   -2.60698972466656
C         2.76403516874413    1.16150246666383   -1.84640306625984
C         3.37409506274546    0.71612644169345   -0.61901002052016
C         3.37887554279001   -0.71413929514989   -0.61561372031742
C         1.95730894263025    2.28763579797358   -1.85459622573452
C         0.73352974711043    2.29303784638578   -2.61409955143971
C        -0.25413333816104    3.01598712312328   -1.85329531988155
C         0.36166142943804    3.45902469893547   -0.63008086691604
C         1.72119441866025    3.01194168397421   -0.62645399431782
C        -1.57494714056947    2.58087611110006   -1.83898467138186
C        -1.95847936813227    1.41653543156336   -2.59988213053559
C        -2.95253608466061    0.69500771647397   -1.84324820104141
C        -3.17958868066876    1.41102738958884   -0.61524173570384
C        -2.32295861984106    2.57919099207417   -0.61277637008244
C        -2.95928687212851   -0.69367399187175   -1.85021550768877
C        -1.96732941360832   -1.41293425013180   -2.60926258987871
C        -1.58548863214207   -2.57507787559402   -1.84447635670738
C        -2.34363824409403   -2.57709740255243   -0.62052972931761
C        -3.19076063804047   -1.41648332730295   -0.62417804820613
C        -1.01314842998785   -0.71841444033674   -3.34008675877992
C        -1.00917698199146    0.72414779668905   -3.33613446823575
C         0.36501294387291    1.16592059508947   -3.34106119166661
C         1.20614954009443    0.00129832751295   -3.34661253609111
C         0.35820506819381   -1.16262967508893   -3.34310049414147
C        -1.84834937107079    0.01768375525304    4.96918435422427
F        -0.86080133120081    0.02092759678453    5.86849697260854
F        -2.60702708599621   -1.05316475435565    5.22461232868484
F        -2.60089766032760    1.09563893065301    5.20813326370889
C         2.91961739120657    2.14741857661381    3.87279379517513
F         3.93681645526813    2.88197434026081    3.40892443333858
F         2.18299543096774    2.94848090298064    4.65039683041313
F         3.44513877987497    1.20663915203197    4.66250204440665
C         3.51380849710390   -3.88388197235904    0.86432978564312
F         4.22735788687075   -3.68368390352903    1.97593394870018
F         4.38491144263236   -3.99217934092190   -0.14481908185718
F         2.91527789684837   -5.07259337506132    0.99247640675652
