63
 energy: -142.087618226020 gnorm: 0.127249903853 xtb: 6.4.1 (a3dbbd7)
C        -1.30524132879597    0.00000000000538    3.57807329023422
C        -0.38198622120159   -1.16615737488772    3.28622995044209
C         0.97316446785684   -0.71953336628746    3.26852105894251
C         0.97316446785530    0.71953336630216    3.26852105894473
C        -0.38198622120459    1.16615737490379    3.28622995045274
C         2.33525790565848   -2.58178581715533    0.58265918378867
C         3.18402429064640   -1.41551052449968    0.58305164633927
C         2.94575551469093   -0.69331830539435    1.80727245276214
C         1.94633616722705   -1.41428833030776    2.55691587181014
C         1.57537284635923   -2.57710002453835    1.80571263196464
C         3.18402429064568    1.41551052450295    0.58305164633618
C         2.33525790565840    2.58178581715875    0.58265918378237
C         1.57537284635929    2.57710002454614    1.80571263195897
C         1.94633616722623    1.41428833031814    2.55691587180842
C         2.94575551468950    0.69331830540176    1.80727245276124
C        -0.36286725388684    3.43716117593932    0.57905462418204
C        -1.73307079475598    2.99275061625332    0.57524951534827
C        -1.97752320629156    2.27496221823572    1.79457083857807
C        -0.73661625909686    2.27496497778529    2.56523814188962
C         0.24797249911112    2.99276091828423    1.80557303834060
C        -3.36590164017822    0.71953732333088    0.57375248902312
C        -3.36590164017888   -0.71953732332215    0.57375248902510
C        -2.78105190250946   -1.16617827543313    1.79633080427055
C        -2.63331800734743    0.00000000000824    2.75326019131418
C        -2.78105190250706    1.16617827544612    1.79633080426590
C        -1.73307079475815   -2.99275061624643    0.57524951535621
C        -0.36286725388906   -3.43716117593443    0.57905462419038
C         0.24797249911082   -2.99276091827599    1.80557303834608
C        -0.73661625909661   -2.27496497777287    2.56523814188986
C        -1.97752320629363   -2.27496221822376    1.79457083858313
C        -0.24045690066217   -3.00743782548085   -1.83034246730529
C         0.75231661586805   -2.28840993805800   -2.58424128273324
C         1.97824017738855   -2.28845527885670   -1.82288383798471
C         1.74258918722144   -3.00745695556584   -0.59875134393160
C         0.36899288245124   -3.44813425118672   -0.59934302533638
C         2.79566620008723   -1.16591822783908   -1.82325695863853
C         2.41697359109874   -0.00000000000271   -2.58108531976838
C         2.79566620008779    1.16591822783556   -1.82325695864148
C         3.40959680691412    0.72110795434846   -0.59778286565664
C         3.40959680691433   -0.72110795434857   -0.59778286565546
C         1.97824017738961    2.28845527885345   -1.82288383799084
C         0.75231661586926    2.28840993805322   -2.58424128273948
C        -0.24045690066036    3.00743782547884   -1.83034246731341
C         0.36899288245285    3.44813425118749   -0.59934302534530
C         1.74258918722258    3.00745695556589   -0.59875134393955
C        -1.56217286029713    2.58178679356912   -1.83784975797872
C        -1.93879975252934    1.41553008402889   -2.59849355392507
C        -2.93052386427469    0.69331652856981   -1.84222173469045
C        -3.15943698990261    1.41427069975303   -0.61403881020582
C        -2.32163160591617    2.57707956787764   -0.61452432163280
C        -2.93052386427455   -0.69331652856949   -1.84222173468868
C        -1.93879975252999   -1.41553008403179   -2.59849355392122
C        -1.56217286029877   -2.58178679357009   -1.83784975797151
C        -2.32163160591823   -2.57707956787401   -0.61452432162573
C        -3.15943698990344   -1.41427069974849   -0.61403881020168
C        -0.98033776527170   -0.72109715720207   -3.32415755726590
C        -0.98033776527144    0.72109715719620   -3.32415755726739
C         0.39032106020777    1.16579648770428   -3.31706046827290
C         1.23757908177170   -0.00000000000348   -3.31355725238661
C         0.39032106020722   -1.16579648771087   -3.31706046826971
Cl       -1.60949318930206   -0.00000000015797    5.36443419001363
Cl       -4.09957109178614    0.00000000004209    3.81802953081684
Cl        4.44555713651169   -1.06993824545805    2.74793844870875
63
 energy: -142.108679361909 gnorm: 0.068018220052 xtb: 6.4.1 (a3dbbd7)
C        -1.30637146848481    0.00195251211707    3.57648217231838
C        -0.38952333435612   -1.16804630622809    3.28638584983659
C         0.96104573756918   -0.71819606920153    3.25808478889167
C         0.97072833783675    0.72474627936391    3.26248133738308
C        -0.38045678553539    1.16740844416965    3.28265414327454
C         2.32223853429364   -2.57454745577515    0.57291902702174
C         3.16414933012417   -1.41500520902088    0.56491804099637
C         3.01579742150232   -0.70971886674619    1.85185452696370
C         1.92175012738038   -1.41337910888883    2.54726429021208
C         1.56068460055669   -2.56863091786662    1.79726107535883
C         3.18057424864815    1.42503777422884    0.59098752194628
C         2.33354546225156    2.59591393235341    0.58313740673984
C         1.57493630167592    2.59106948959910    1.80387080648861
C         1.95140328135976    1.42299313106308    2.55057962427903
C         2.98822560051651    0.72873468660359    1.83477052428718
C        -0.36642886012133    3.44123537862719    0.57631454561480
C        -1.73553555707561    2.99355589207950    0.57306764594446
C        -1.97785912692500    2.27591862590793    1.79344313707397
C        -0.73892757902521    2.28005246575910    2.56234576837120
C         0.24546611270641    2.99951624953936    1.80291128922152
C        -3.36602840451301    0.71814985106384    0.57377500732224
C        -3.36659362471279   -0.72155251960202    0.57375790103119
C        -2.78291548901275   -1.16782474728518    1.79574284761591
C        -2.63395252309001   -0.00065369349590    2.75198142329243
C        -2.78229569733963    1.16559000354283    1.79561130362074
C        -1.73712068171586   -2.99680194751424    0.57435015392223
C        -0.36779386634345   -3.44169147345093    0.57689808851128
C         0.23741900219418   -2.99724911278028    1.80517957019083
C        -0.74376397742526   -2.27963445735356    2.56571594455386
C        -1.98200040167355   -2.27880016677447    1.79396399721537
C        -0.24303691051026   -3.01144048115696   -1.83327107418222
C         0.75018646770155   -2.29194060109360   -2.58742464948614
C         1.97644255779581   -2.29378442241754   -1.82967749324949
C         1.73788013269490   -3.01178690901156   -0.60803802951897
C         0.36478133195030   -3.45252702465085   -0.60269943788061
C         2.79378739165568   -1.16834359604764   -1.83003638008971
C         2.41413012746333    0.00047269722852   -2.58032700648402
C         2.79225124326477    1.16717741659758   -1.81965546063747
C         3.40276717486545    0.72677794553489   -0.59615703923960
C         3.39533738796580   -0.72004582744734   -0.60348820104491
C         1.97483995729128    2.29299469275903   -1.82363799122512
C         0.75088044781415    2.28920259574708   -2.58440912427804
C        -0.24347245936607    3.00817639532978   -1.83189548183903
C         0.36514170471389    3.45205916692521   -0.60176133604724
C         1.73928259301444    3.01401615698861   -0.60009492657831
C        -1.56412057532652    2.58078124108505   -1.83916133388740
C        -1.94012457396535    1.41352770098135   -2.59891563184385
C        -2.93099195129546    0.69129854928165   -1.84227573875351
C        -3.16034102054761    1.41219787441752   -0.61486253451738
C        -2.32347400838171    2.57605134072431   -0.61569631080244
C        -2.93102210738465   -0.69633612124006   -1.84239531688161
C        -1.93983774261943   -1.41801218428244   -2.59878130290336
C        -1.56405084431302   -2.58461630159005   -1.83899364028013
C        -2.32368472438569   -2.57996684964754   -0.61560667826685
C        -3.16009719277838   -1.41664376740013   -0.61455999771078
C        -0.98081890177430   -0.72321123026987   -3.32441341400859
C        -0.98082063629151    0.71966875482535   -3.32417790384674
C         0.38869945288399    1.16534693045779   -3.31797861711098
C         1.23562823103716   -0.00050823173829   -3.31318126519262
C         0.38894451804221   -1.16736749031603   -3.31797709597010
Cl       -1.60932107372868    0.00088639760466    5.36284648416292
Cl       -4.09978344239958   -0.00166299977372    3.81687519979480
Cl        4.55256612561647   -1.12252272789731    2.81058057348573
63
 energy: -142.116845972670 gnorm: 0.027097707139 xtb: 6.4.1 (a3dbbd7)
C        -1.30796486976986    0.00005672737693    3.57323577250700
C        -0.39117280153603   -1.16842335445877    3.28010690606555
C         0.95907878730066   -0.72150576432565    3.24819995806739
C         0.96520791508370    0.72622750810548    3.26267057968083
C        -0.38045225288238    1.16516886832687    3.27963494874525
C         2.32019512235129   -2.56637435850668    0.57001677671234
C         3.16610190443911   -1.42234839206388    0.56043098576079
C         3.12316791156889   -0.74553759572120    1.91955574678676
C         1.91968303123514   -1.42007607021852    2.55081143738976
C         1.55753636649106   -2.55910555898231    1.79554209817157
C         3.16093382770168    1.42145653743589    0.58748828531485
C         2.32174799578676    2.59907483783527    0.57699098166249
C         1.56402684512112    2.59402353461209    1.79582314161913
C         1.93906012189227    1.41805423607660    2.53384262916662
C         2.96641346597749    0.73928365197896    1.82223491916060
C        -0.37136045911136    3.44748850876465    0.57366061903292
C        -1.73934553830969    2.99719720990074    0.57166037010759
C        -1.97960084763133    2.27828272532715    1.79320633740266
C        -0.74462120948511    2.28388821928152    2.56085692726797
C         0.23792025297999    3.00487541457399    1.80049765841899
C        -3.36681199587226    0.72041088393704    0.57331854039106
C        -3.36790847371456   -0.71996130678792    0.57281694779711
C        -2.78563169548111   -1.16741576170464    1.79391781784181
C        -2.63608247578312    0.00014395320586    2.75021054627090
C        -2.78522055033056    1.16688056032126    1.79480120653548
C        -1.74099060528043   -2.99736788996871    0.57163434951546
C        -0.37148152714791   -3.44192325353262    0.57473800369350
C         0.23307691954006   -2.99695360276115    1.80375255313502
C        -0.74735003777006   -2.28172164313142    2.56153402081938
C        -1.98637114039317   -2.28069725506286    1.79229161821926
C        -0.24744436154495   -3.01208111565226   -1.83536454117282
C         0.74665875264198   -2.29383175179029   -2.59040534341510
C         1.97146808258372   -2.29690330018788   -1.83182707087346
C         1.73484099535086   -3.01172891222097   -0.61162718724499
C         0.36100411320550   -3.45283440226009   -0.60510163652526
C         2.78737434411920   -1.16931172373899   -1.82892384746303
C         2.40965468660939   -0.00062037311770   -2.57895808345497
C         2.78879195586657    1.16625062788877   -1.81707316945654
C         3.40023567376067    0.72907455342476   -0.59950287094613
C         3.38560579634464   -0.72401041170774   -0.60077941501254
C         1.97121234301684    2.29682045186990   -1.82771291177670
C         0.74932221169981    2.29153961480216   -2.58640158039990
C        -0.24644959567808    3.01181816901858   -1.83493868794891
C         0.36064450532796    3.45823331036440   -0.60520783524420
C         1.73389010718868    3.01977381119345   -0.60579437783177
C        -1.56595570281166    2.58369437572173   -1.84068388981907
C        -1.94180172065854    1.41593586065314   -2.59964420364155
C        -2.93153425114403    0.69429326491269   -1.84228156987083
C        -3.16166215853020    1.41446925147862   -0.61582818270700
C        -2.32542814627743    2.57892152940060   -0.61655290287066
C        -2.93345216456212   -0.69437620323945   -1.84366205241521
C        -1.94303789177082   -1.41612025849390   -2.59992829386882
C        -1.56813008457165   -2.58349106028773   -1.84121949663822
C        -2.32762010321563   -2.57891213643288   -0.61808328048265
C        -3.16240699104904   -1.41467688052230   -0.61657120011531
C        -0.98268802655038   -0.72176225344250   -3.32491067608707
C        -0.98202963748119    0.72189098437477   -3.32444556274144
C         0.38639138779608    1.16651916912282   -3.32001659213728
C         1.23275127574787   -0.00030223837265   -3.31361795192454
C         0.38582376490114   -1.16728721471373   -3.31936729578110
Cl       -1.60936276863835    0.00196545750322    5.35966942434621
Cl       -4.10151893113604   -0.00122358115772    3.81524069377442
Cl        4.69201395445770   -1.15476642968282    2.89350051167256
63
 energy: -142.117783805345 gnorm: 0.017134077811 xtb: 6.4.1 (a3dbbd7)
C        -1.30659157040237    0.00096571459907    3.56979445534480
C        -0.38697423811553   -1.16493800870971    3.27501808725895
C         0.96646641340337   -0.72162604017960    3.25218368742964
C         0.96767912496434    0.72594209919700    3.26531973328484
C        -0.37891099522848    1.16555468951649    3.27811466244765
C         2.32349886991513   -2.56424377685978    0.57261213343507
C         3.17891933877918   -1.42411920792058    0.56907465355179
C         3.12264893677143   -0.74731105127942    1.91931580058667
C         1.93266561456612   -1.42132884389327    2.55857757056068
C         1.56107963754310   -2.55670373193720    1.79763240523392
C         3.16545153122587    1.41708913085974    0.59023902900786
C         2.32258073188434    2.59378061156146    0.57769099909426
C         1.56539228708813    2.58891008373283    1.79601124774418
C         1.94384012317589    1.41384194040355    2.53643280953055
C         2.96392578874053    0.72932069777467    1.82082230909860
C        -0.37191513548477    3.44757009093311    0.57313220740116
C        -1.74035119361674    2.99740056186440    0.57047689060359
C        -1.97965116635729    2.27751988638326    1.79174896089653
C        -0.74440989509052    2.28324280349726    2.55961706942836
C         0.23895708074051    3.00238788040199    1.79915382977780
C        -3.36843889963288    0.72033833340341    0.57180590280118
C        -3.36997141940866   -0.72007580691945    0.57122427854253
C        -2.78714905291066   -1.16729488128910    1.79222175141111
C        -2.63600670313249    0.00008080659840    2.74821998475775
C        -2.78595908933461    1.16669630427387    1.79302888455920
C        -1.74225977635515   -2.99666600240178    0.57040618604885
C        -0.37193386172013   -3.43912656646722    0.57394649026846
C         0.23519125848958   -2.99200677775627    1.80128280466964
C        -0.74588295367245   -2.27798529418488    2.55807716844058
C        -1.98711887152389   -2.27983050486271    1.79105093537379
C        -0.24912797400643   -3.01142896278635   -1.83589281544709
C         0.74509931108233   -2.29295675105614   -2.59038764961978
C         1.96894350760966   -2.29368574986310   -1.82868544523779
C         1.73371991522920   -3.00756474531185   -0.60839215682107
C         0.36011732048955   -3.45028615776408   -0.60507316340889
C         2.78394475193487   -1.16635325444645   -1.82216323859523
C         2.40699573436995    0.00017949357417   -2.57605696448765
C         2.78763183874758    1.16622058037040   -1.81516471535839
C         3.40346893377625    0.72835424019234   -0.59843855620973
C         3.39193616188055   -0.72465923019456   -0.59554534539136
C         1.96987734046025    2.29599758293959   -1.82724276001599
C         0.74767591349895    2.29121950414702   -2.58622072444288
C        -0.24815557931354    3.01220951592080   -1.83542536891947
C         0.35990780415456    3.45839087846492   -0.60559351704222
C         1.73307461729756    3.01736808994644   -0.60458985612298
C        -1.56796421207869    2.58404475967677   -1.84182904375588
C        -1.94417593393099    1.41610722864475   -2.60080344912095
C        -2.93386412128098    0.69415105441916   -1.84358594208734
C        -3.16374234464484    1.41457555287161   -0.61724765322811
C        -2.32730816085046    2.57918471638611   -0.61765240970225
C        -2.93600328667629   -0.69455934870112   -1.84513016467233
C        -1.94550455012710   -1.41645732220678   -2.60141705563466
C        -1.57043701265040   -2.58393702869411   -1.84266725692003
C        -2.33005021833238   -2.57937937075095   -0.61941537939752
C        -3.16505313784158   -1.41509079520131   -0.61807317617132
C        -0.98493375549077   -0.72173428080547   -3.32573615073758
C        -0.98427680056942    0.72195313316726   -3.32521930790454
C         0.38428393589968    1.16665481971210   -3.32003024923793
C         1.23084213661904    0.00015902892187   -3.31248091113267
C         0.38384470026207   -1.16680889759356   -3.31943737042060
Cl       -1.60866475431612   -0.00008919865263    5.35595034200679
Cl       -4.10051100158701   -0.00150338819043    3.81457212606305
Cl        4.68258240705282   -1.14759908293401    2.88830400377054
63
 energy: -142.118313849958 gnorm: 0.010129242028 xtb: 6.4.1 (a3dbbd7)
C        -1.30521394526720    0.00067606109471    3.56796086361656
C        -0.38368959875969   -1.16313885651827    3.27044351439357
C         0.97191295315734   -0.72213856108891    3.25423083822480
C         0.96703367445585    0.72558318611240    3.26886483709456
C        -0.37891425667919    1.16608131605765    3.27816176470689
C         2.32556731910796   -2.56073218768205    0.57458810370825
C         3.19037411954819   -1.42536843382250    0.57758765018807
C         3.13157327526528   -0.75195895512924    1.92537666138448
C         1.94479437246979   -1.42204540260350    2.56568571378449
C         1.56321981090780   -2.55275228882350    1.79911867254902
C         3.16550686316697    1.41100425801613    0.59086550560881
C         2.32116761048782    2.58852161201957    0.57724495780486
C         1.56449370031159    2.58376521407425    1.79475319404389
C         1.94446673533349    1.40773145175387    2.53609330047363
C         2.95137533405226    0.71691472900479    1.81362487802527
C        -0.37212818460569    3.44794317493791    0.57281037860815
C        -1.74090984438711    2.99805212774106    0.56996859117649
C        -1.97971741285807    2.27718671795485    1.79112456156471
C        -0.74521044184346    2.28305177978559    2.55941795767657
C         0.23902769135077    3.00072694170889    1.79830515750122
C        -3.36911030866504    0.72077680218867    0.57087495722186
C        -3.37142187966711   -0.71964331449543    0.57022234974021
C        -2.78823168516299   -1.16670561952902    1.79102981631344
C        -2.63556606051924    0.00025969593249    2.74714201552669
C        -2.78636557435893    1.16678186741547    1.79200275508512
C        -1.74376499260938   -2.99615306685019    0.56960000772700
C        -0.37258870575145   -3.43616217118489    0.57317755965719
C         0.23670167775843   -2.98687256870959    1.79852501950236
C        -0.74541298814729   -2.27555813089542    2.55532879457735
C        -1.98830433609696   -2.27921318941386    1.79022947055637
C        -0.25052215895714   -3.01100304979281   -1.83662195694497
C         0.74371454514950   -2.29251986860423   -2.59085895082028
C         1.96668622218578   -2.29147518994912   -1.82633937095134
C         1.73213062232905   -3.00319472615011   -0.60532048977528
C         0.35915311203563   -3.44758547449714   -0.60504754415908
C         2.78035860927788   -1.16446311549676   -1.81608247409987
C         2.40467214195780    0.00029101821474   -2.57356688845163
C         2.78748250650260    1.16619713217344   -1.81499620697149
C         3.40640196469025    0.72774703098764   -0.59983595821617
C         3.39525454852705   -0.72551223408420   -0.59076769221285
C         1.96946143717736    2.29544001012204   -1.82789844588930
C         0.74722528702169    2.29098694921318   -2.58663306402882
C        -0.24855554477861    3.01288723676546   -1.83616537660274
C         0.35978873247748    3.45879887742210   -0.60600844935130
C         1.73255280132526    3.01587603825481   -0.60440509654392
C        -1.56846015766636    2.58472133522960   -1.84263273580946
C        -1.94504340240837    1.41662570924909   -2.60159199158639
C        -2.93454686630676    0.69458216135199   -1.84419418396533
C        -3.16452883717226    1.41517250632444   -0.61812752687033
C        -2.32789569658065    2.57986323953656   -0.61822832930892
C        -2.93740063490208   -0.69420462610502   -1.84603483322542
C        -1.94716726583378   -1.41646894301327   -2.60258019844021
C        -1.57232637373852   -2.58427840061947   -1.84392244201511
C        -2.33221428982256   -2.57969228256747   -0.62041715258730
C        -3.16692125045571   -1.41496666984454   -0.61908616772868
C        -0.98639274027329   -0.72155803067609   -3.32662009157688
C        -0.98532979536996    0.72221689618339   -3.32598828243564
C         0.38334373647693    1.16671951192039   -3.32059070886637
C         1.22974769645488    0.00024468503716   -3.31203521498237
C         0.38237057265895   -1.16649217402637   -3.31965252601336
Cl       -1.60430928702927   -0.00594895822009    5.35451858108254
Cl       -4.09986248393903   -0.00088616476079    3.81377529574696
Cl        4.67941272896033   -1.13467286408851    2.88705822874558
63
 energy: -142.118460912415 gnorm: 0.006530837781 xtb: 6.4.1 (a3dbbd7)
C        -1.30518485430249    0.00001837590537    3.56787074760886
C        -0.38334315161991   -1.16353203382931    3.26973767016623
C         0.97212407324278   -0.72252616028062    3.25387548173818
C         0.96540869648252    0.72532715798390    3.27051788174844
C        -0.37961142154806    1.16630199447076    3.27976060706918
C         2.32545639758333   -2.55956589702485    0.57459855759922
C         3.19202653458621   -1.42534657608012    0.57905723128374
C         3.13803052092493   -0.75383486849479    1.92945241193448
C         1.94686899972499   -1.42182679632515    2.56666110491405
C         1.56306291017222   -2.55143458906685    1.79915905243377
C         3.16303722814089    1.40851400947652    0.58937379571308
C         2.32010110625295    2.58741211491918    0.57659431185145
C         1.56362980582263    2.58268989498673    1.79381062640351
C         1.94233860374106    1.40522960588973    2.53436788070491
C         2.94169908416236    0.71167731981898    1.80770380821246
C        -0.37156330250997    3.44801072743656    0.57300983860921
C        -1.74038711219738    2.99837050652134    0.57035726806308
C        -1.97931824450723    2.27731022927083    1.79158034752980
C        -0.74546214551220    2.28312925569690    2.56021238935251
C         0.23900751707902    3.00073610970519    1.79860979866830
C        -3.36866904955246    0.72111125470219    0.57118684813128
C        -3.37141509327205   -0.71932899705389    0.57047909696069
C        -2.78846409550559   -1.16667662776368    1.79126767932228
C        -2.63520330086316    0.00025276131695    2.74726927869548
C        -2.78607007969786    1.16698452134175    1.79234336990996
C        -1.74401323953224   -2.99611081872101    0.56972971986455
C        -0.37261348348662   -3.43546673903316    0.57313313107152
C         0.23695657589516   -2.98596179848030    1.79794101471178
C        -0.74571661250292   -2.27566260367405    2.55514517698797
C        -1.98875073174163   -2.27939594707933    1.79039942454538
C        -0.25054725563156   -3.01095303257482   -1.83679554877447
C         0.74358388832277   -2.29270770965048   -2.59122047793751
C         1.96652539114916   -2.29166474196520   -1.82641295728581
C         1.73175812845441   -3.00242938223766   -0.60479173625929
C         0.35909793678761   -3.44696801199832   -0.60499175208966
C         2.77985569094585   -1.16483336202279   -1.81545574510782
C         2.40488117987216   -0.00016181431169   -2.57375386639192
C         2.78862539679051    1.16614385467360   -1.81648890957337
C         3.40726212010918    0.72738355519261   -0.60188033679319
C         3.39460598073806   -0.72604635893777   -0.59039883301981
C         1.97026453673043    2.29533677076498   -1.82870696901947
C         0.74798665827781    2.29093382807167   -2.58687407646234
C        -0.24774070098781    3.01305004604166   -1.83621701815293
C         0.36044921694323    3.45885010585223   -0.60597125933189
C         1.73301799270273    3.01595092915128   -0.60491171454321
C        -1.56758501540559    2.58497803600509   -1.84235820309786
C        -1.94429575529048    1.41691366846729   -2.60129507361916
C        -2.93378374215495    0.69500688518165   -1.84377240349748
C        -3.16385034705693    1.41555670865916   -0.61779853654964
C        -2.32708150049049    2.58017500919666   -0.61786235929943
C        -2.93707715535204   -0.69377527252288   -1.84579079812035
C        -1.94700215928111   -1.41618019107631   -2.60244487044538
C        -1.57238108373262   -2.58415467424862   -1.84394066514881
C        -2.33236019983962   -2.57956671644267   -0.62034271452068
C        -3.16680346355331   -1.41462064123246   -0.61890843064316
C        -0.98619996021146   -0.72135555441865   -3.32664307553889
C        -0.98481800816500    0.72242806233036   -3.32593475340283
C         0.38394670365336    1.16668588291922   -3.32085181139775
C         1.23018650624653    0.00003532092851   -3.31243814268468
C         0.38241026911052   -1.16650012574909   -3.31968311433827
Cl       -1.60899219891000   -0.01021377862184    5.35351912797873
Cl       -4.09677929234295    0.00034919440804    3.81757928543807
Cl        4.67782350808112   -1.12399012182659    2.88609379101113
63
 energy: -142.118499163560 gnorm: 0.003493009996 xtb: 6.4.1 (a3dbbd7)
C        -1.30590394148615   -0.00064128959323    3.57060392372205
C        -0.38392307005807   -1.16396403599061    3.27023718973911
C         0.97097752493250   -0.72290864204826    3.25302856315295
C         0.96409637855057    0.72490882248538    3.27113190625079
C        -0.38036891365881    1.16576537162927    3.28150330573880
C         2.32483725232999   -2.55957667679935    0.57420084084715
C         3.19064442820812   -1.42526503329265    0.57811676281292
C         3.14241989236742   -0.75419968585712    1.93205035536457
C         1.94556839170016   -1.42164295214577    2.56576107343136
C         1.56233369573172   -2.55139166189212    1.79894558927228
C         3.16042008495128    1.40762938596180    0.58772401203380
C         2.31954113500985    2.58775107720531    0.57631212592110
C         1.56311308931536    2.58300435948833    1.79344847171779
C         1.93995772033375    1.40431201555682    2.53270845984047
C         2.93494513669433    0.70926198557628    1.80343413586259
C        -0.37101812699145    3.44780048016275    0.57353022888053
C        -1.73972199601214    2.99823614325211    0.57105355794641
C        -1.97889975497776    2.27719868303345    1.79239656186342
C        -0.74552900254368    2.28281582101195    2.56127734852913
C         0.23887924711534    3.00087134289966    1.79940055566826
C        -3.36790111967105    0.72127578151543    0.57162346910146
C        -3.37088192419730   -0.71903688159512    0.57091184834948
C        -2.78835007790234   -1.16635965804842    1.79190812627237
C        -2.63657390479463    0.00022764556360    2.74883991342355
C        -2.78546723644710    1.16670453559157    1.79293554296735
C        -1.74391910042135   -2.99589301418606    0.57023492010287
C        -0.37259616510282   -3.43547179365188    0.57349616136687
C         0.23665282051599   -2.98637590649952    1.79836705828560
C        -0.74629850245046   -2.27615767472837    2.55594334088248
C        -1.98894158283208   -2.27940517528273    1.79098212196959
C        -0.25030818362366   -3.01094594680856   -1.83659786858423
C         0.74375065450659   -2.29302815535386   -2.59129854287118
C         1.96690710228407   -2.29248243089973   -1.82701409938476
C         1.73178299530637   -3.00295752862800   -0.60502448052808
C         0.35917217755496   -3.44705416196022   -0.60476103248894
C         2.78038925058552   -1.16578460136050   -1.81644811488158
C         2.40585472431913   -0.00068798183645   -2.57467581791316
C         2.78989942718224    1.16599856374695   -1.81794231028399
C         3.40739934731960    0.72698555992602   -0.60337718096125
C         3.39333582276629   -0.72658514717998   -0.59131431884661
C         1.97117060606532    2.29529510993186   -1.82908761771929
C         0.74884092252826    2.29091202145400   -2.58675611178878
C        -0.24688063236199    3.01296673043872   -1.83583855822220
C         0.36106164897578    3.45869417473667   -0.60558983654967
C         1.73361071624217    3.01630749404052   -0.60527816782740
C        -1.56664514390782    2.58503720048380   -1.84175976910781
C        -1.94336575436782    1.41710426302871   -2.60079052131636
C        -2.93295377656611    0.69535296605110   -1.84330817371248
C        -3.16296721806223    1.41575546003080   -0.61730368342976
C        -2.32612307273834    2.58022441566338   -0.61726484354800
C        -2.93648735832090   -0.69340180796893   -1.84540525911641
C        -1.94644857499808   -1.41584986734631   -2.60198429976494
C        -1.57200286246152   -2.58382775204746   -1.84352014716836
C        -2.33193676051531   -2.57917531164765   -0.61991502347941
C        -3.16618402517268   -1.41420078231153   -0.61850906236510
C        -0.98563473519666   -0.72116730975729   -3.32635085867658
C        -0.98404342417724    0.72260208057785   -3.32560186106502
C         0.38479687753098    1.16664864258308   -3.32079542887330
C         1.23090217927057   -0.00020338103919   -3.31281913624386
C         0.38281201494371   -1.16660531490502   -3.31954614387883
Cl       -1.59755591717890   -0.01317903674533    5.35856990750564
Cl       -4.10617132847419    0.00184131300883    3.80853363618903