156
 energy: -495.247615330656 gnorm: 8.524938450303 xtb: 6.4.1 (a3dbbd7)
C        -1.23626340000000    0.00000000000000    3.32997640000000
C        -0.38202640000000   -1.17575640000000    3.32997640000000
C         1.00015810000000   -0.72665740000000    3.32997640000000
C         1.00015810000000    0.72665740000000    3.32997640000000
C        -0.38202640000000    1.17575640000000    3.32997640000000
C         2.34433560000000   -2.60145750000000    0.59464210000000
C         3.19857260000000   -1.42570110000000    0.59464210000000
C         2.96246730000000   -0.69904370000000    1.83090550000000
C         1.96230920000000   -1.42570110000000    2.59495830000000
C         1.58028280000000   -2.60145750000000    1.83090550000000
C         3.19857260000000    1.42570110000000    0.59464210000000
C         2.34433560000000    2.60145750000000    0.59464210000000
C         1.58028280000000    2.60145750000000    1.83090550000000
C         1.96230920000000    1.42570110000000    2.59495830000000
C         2.96246730000000    0.69904370000000    1.83090550000000
C        -0.36750900000000    3.48258920000000    0.59464210000000
C        -1.74969350000000    3.03349030000000    0.59464210000000
C        -1.98579880000000    2.30683290000000    1.83090550000000
C        -0.74953540000000    2.30683290000000    2.59495830000000
C         0.25062270000000    3.03349030000000    1.83090550000000
C        -3.42570570000000    0.72665740000000    0.59464210000000
C        -3.42570570000000   -0.72665740000000    0.59464210000000
C        -2.80757400000000   -1.17575640000000    1.83090550000000
C        -2.42554760000000    0.00000000000000    2.59495830000000
C        -2.80757400000000    1.17575640000000    1.83090550000000
C        -1.74969350000000   -3.03349030000000    0.59464210000000
C        -0.36750900000000   -3.48258920000000    0.59464210000000
C         0.25062270000000   -3.03349030000000    1.83090550000000
C        -0.74953540000000   -2.30683290000000    2.59495830000000
C        -1.98579880000000   -2.30683290000000    1.83090550000000
C        -0.25062270000000   -3.03349030000000   -1.83090550000000
C         0.74953540000000   -2.30683290000000   -2.59495830000000
C         1.98579880000000   -2.30683290000000   -1.83090550000000
C         1.74969350000000   -3.03349030000000   -0.59464210000000
C         0.36750900000000   -3.48258920000000   -0.59464210000000
C         2.80757400000000   -1.17575640000000   -1.83090550000000
C         2.42554760000000    0.00000000000000   -2.59495830000000
C         2.80757400000000    1.17575640000000   -1.83090550000000
C         3.42570570000000    0.72665740000000   -0.59464210000000
C         3.42570570000000   -0.72665740000000   -0.59464210000000
C         1.98579880000000    2.30683290000000   -1.83090550000000
C         0.74953540000000    2.30683290000000   -2.59495830000000
C        -0.25062270000000    3.03349030000000   -1.83090550000000
C         0.36750900000000    3.48258920000000   -0.59464210000000
C         1.74969350000000    3.03349030000000   -0.59464210000000
C        -1.58028280000000    2.60145750000000   -1.83090550000000
C        -1.96230920000000    1.42570110000000   -2.59495830000000
C        -2.96246730000000    0.69904370000000   -1.83090550000000
C        -3.19857260000000    1.42570110000000   -0.59464210000000
C        -2.34433560000000    2.60145750000000   -0.59464210000000
C        -2.96246730000000   -0.69904370000000   -1.83090550000000
C        -1.96230920000000   -1.42570110000000   -2.59495830000000
C        -1.58028280000000   -2.60145750000000   -1.83090550000000
C        -2.34433560000000   -2.60145750000000   -0.59464210000000
C        -3.19857260000000   -1.42570110000000   -0.59464210000000
C        -1.00015810000000   -0.72665740000000   -3.32997640000000
C        -1.00015810000000    0.72665740000000   -3.32997640000000
C         0.38202640000000    1.17575640000000   -3.32997640000000
C         1.23626340000000    0.00000000000000   -3.32997640000000
C         0.38202640000000   -1.17575640000000   -3.32997640000000
C        -1.76086815247998    0.00000000000000    4.78849957557021
F        -0.76911826531252    0.00000000000000    5.67468926254662
F        -2.50968386795825   -1.06794314680471    5.04863888333743
F        -2.50968386795825    1.06794314680471    5.04863888333743
C        -0.54413818249354   -1.67468516033722    4.78849957845317
F        -0.23767107904745   -0.73147481112462    5.67468925997942
F        -1.79120914301982   -2.05683909935453    5.04863874564184
F         0.24013968171955   -2.71686350152345    5.04863903502921
C         1.42457227037960   -1.03501233722714    4.78849957248258
F         0.62223011468481   -0.45207589682711    5.67468926529602
F         1.40265511061956   -2.33913928186680    5.04863905501621
F         2.65809836182651   -0.61117154425495    5.04863869666890
C         1.42457227037960    1.03501233722714    4.78849957248258
F         0.62223011468481    0.45207589682711    5.67468926529602
F         2.65809836182651    0.61117154425495    5.04863869666891
F         1.40265511061956    2.33913928186680    5.04863905501621
C         4.58877084110522   -2.05459160147071    0.86730597290559
F         4.59709252483521   -2.78118520641283    1.98125951001435
F         4.97417519512416   -2.85850196315549   -0.11965482382298
F         5.53562669678859   -1.13053295630600    1.00324569798425
C         2.28376457660886   -3.72927671755932    2.62817408867206
F         3.59030321655004   -3.51265997057976    2.75037870097715
F         2.14318168460923   -4.91533956626619    2.04303190988612
F         1.79618325340524   -3.84739782561575    3.85992562899767
C         4.58877084110522    2.05459160147071    0.86730597290559
F         4.59709252483521    2.78118520641283    1.98125951001435
F         4.97417519512416    2.85850196315549   -0.11965482382298
F         5.53562669678859    1.13053295630600    1.00324569798425
C         3.37204091334889    3.72927672645244    0.86730596148276
F         4.06564647311728    3.51265957144659    1.98125763710228
F         4.25569947457670    3.84739838595791   -0.11965645964809
F         2.78580317558591    4.91533944031226    1.00324916143779
C        -0.53602450593361    4.99908416128281    0.86730591619822
F        -1.22448605650957    5.23152837615597    1.98125850960180
F        -1.18149064144157    5.61404773804446   -0.11965571789346
F         0.63540201352706    5.61404743764837    1.00324736766175
C        -2.84103082519036    3.32439911178427    2.62817407941587
F        -2.23127406184888    4.50005340761388    2.75037746012491
F        -4.01248672303644    3.55720929213525    2.04303264409737
F        -3.10404037880940    2.89718378306489    3.85992609894427
C         0.34440953624153    4.35941144868709    2.62817404748705
F        -0.83992598883967    4.95213069234126    2.75037577510431
F         1.15529636597892    5.23632261667420    2.04303359185445
F         0.80829780400759    4.16837989546168    3.85992670963205
C        -4.92005227074660    1.03501232949151    0.86730592957069
F        -5.35386609588658    0.45207588830481    1.98125865327758
F        -5.70437742108406    0.61117153086585   -0.11965558739362
F        -5.14292645153878    2.33913927311179    1.00324714649869
C        -4.03961820246674   -1.67468514775899    2.62817407948106
F        -4.96930660042402   -0.73147479244129    2.75037763231441
F        -4.62303373288711   -2.71686348978894    2.04303253910982
F        -3.71458666614022   -2.05683907990832    3.85992603200073
C        -2.50473491433418   -4.35941144902977    0.86730593917895
F        -2.08438487052912   -4.95213043104453    1.98125838386969
F        -2.34400857369757   -5.23632280881804   -0.11965581818547
F        -3.81390519137296   -4.16837996597314    1.00324768478856
C         2.84103082519036   -3.32439911178427   -2.62817407941587
F         2.23127406184888   -4.50005340761388   -2.75037746012495
F         3.10404037880944   -2.89718378306489   -3.85992609894426
F         4.01248672303643   -3.55720929213529   -2.04303264409737
C         3.49548004549360    0.00000000000000   -3.71645041414084
F         4.73163621497510    0.00000000000000   -3.22571838476757
F         3.39327517264965   -1.06794314680471   -4.50254938956302
F         3.39327517264965    1.06794314680471   -4.50254938956303
C         4.03961820246674    1.67468514775899   -2.62817407948106
F         4.96930660042402    0.73147479244129   -2.75037763231441
F         3.71458666614022    2.05683907990832   -3.85992603200073
F         4.62303373288711    2.71686348978894   -2.04303253910982
C         4.92005227074660    1.03501232949151   -0.86730592957069
F         5.35386609588658    0.45207588830481   -1.98125865327758
F         5.14292645153878    2.33913927311179   -1.00324714649869
F         5.70437742108406    0.61117153086585    0.11965558739362
C         0.53602450593361    4.99908416128281   -0.86730591619822
F         1.22448605650957    5.23152837615597   -1.98125850960180
F        -0.63540201352706    5.61404743764837   -1.00324736766175
F         1.18149064144157    5.61404773804446    0.11965571789346
C         2.50473491433418    4.35941144902977   -0.86730593917895
F         2.08438487052912    4.95213043104453   -1.98125838386969
F         3.81390519137296    4.16837996597314   -1.00324768478856
F         2.34400857369757    5.23632280881804    0.11965581818547
C        -2.28376457660886    3.72927671755932   -2.62817408867206
F        -3.59030321655004    3.51265997057978   -2.75037870097715
F        -1.79618325340527    3.84739782561575   -3.85992562899768
F        -2.14318168460923    4.91533956626621   -2.04303190988614
C        -4.25247495652193   -1.01957928511255   -2.62817407757680
F        -4.45020405360857   -2.32910962270745   -2.75037677428973
F        -4.21414295278389   -0.51936236815949   -3.85992636334022
F        -5.33704498641440   -0.51936149478962   -2.04303305824599
C         0.54413818249354    1.67468516033722   -4.78849957845317
F         0.23767107904745    0.73147481112462   -5.67468925997942
F        -0.24013968171955    2.71686350152345   -5.04863903502921
F         1.79120914301982    2.05683909935453   -5.04863874564184
C         0.54413818249354   -1.67468516033722   -4.78849957845317
F         0.23767107904745   -0.73147481112462   -5.67468925997942
F        -0.24013968171955   -2.71686350152345   -5.04863903502921
F         1.79120914301982   -2.05683909935453   -5.04863874564184
156
 energy: -501.317425882987 gnorm: 6.634314721175 xtb: 6.4.1 (a3dbbd7)
C        -1.23640249470639    0.00100096727669    3.32513976277134
C        -0.38276480362934   -1.17836120843247    3.32154510692964
C         1.00132706634229   -0.72784381775208    3.32091302306831
C         0.99940017114062    0.72812298883072    3.32409585071469
C        -0.38135447251483    1.17458745412786    3.33253016522489
C         2.34156463745397   -2.60371302281678    0.59073668318826
C         3.20166913716967   -1.42797521489286    0.59662353973024
C         2.95969358029542   -0.69880617685290    1.83265028510055
C         1.96433086572839   -1.42340287115955    2.59190631529441
C         1.58357334614567   -2.60339967191415    1.83183074458517
C         3.18627577885884    1.41795703616858    0.59817472383950
C         2.33341967151895    2.59052802598558    0.59615116531177
C         1.58269086996126    2.60104389841533    1.83176008967507
C         1.96472808925549    1.42625264990811    2.59416080890409
C         2.96176264876247    0.69843080869671    1.83177384724088
C        -0.37125999751692    3.47323329682246    0.59507503073201
C        -1.74981708918420    3.03447977150216    0.59326323154240
C        -1.98667300394469    2.30886456003000    1.83132979351496
C        -0.74938712412411    2.30968245778482    2.59482344138969
C         0.25035485094837    3.02662629675252    1.83114810001627
C        -3.42865061987236    0.72693274622095    0.59597099253013
C        -3.42585068877980   -0.72868208652217    0.59092715837927
C        -2.81201714969925   -1.17664186388519    1.83193486161390
C        -2.42584054341754    0.00343186592113    2.59124386350519
C        -2.80611435682468    1.17083556436274    1.83335533971940
C        -1.75132601137612   -3.03824889600980    0.59641029335706
C        -0.36356853743981   -3.48075843356075    0.59607453993303
C         0.24528868162878   -3.03404642115164    1.83000290690269
C        -0.75093997201243   -2.30893823017813    2.58883421657467
C        -1.98112589106855   -2.30668977914146    1.83368772307356
C        -0.24784330630030   -3.03227027842910   -1.83130233318064
C         0.74557139280871   -2.31113735304660   -2.59015066537273
C         1.98710131425597   -2.31014965626026   -1.83192861217457
C         1.74727602700166   -3.03227576472930   -0.59075494926243
C         0.36812842726784   -3.48227718838294   -0.59461024039644
C         2.81049659801723   -1.17345312275729   -1.83232498995578
C         2.41996075925602   -0.00174004670286   -2.59219208849565
C         2.79974881772627    1.17728833400188   -1.82771723571247
C         3.41378701644356    0.71938669733670   -0.59255191135678
C         3.42545905102571   -0.72420733125371   -0.59736307487682
C         1.98340411968775    2.30805909410546   -1.83191232054500
C         0.74929890635991    2.30988187303717   -2.59172935749459
C        -0.24632963562376    3.03243327954114   -1.83211845243251
C         0.36408748034056    3.46814389640149   -0.59722304644928
C         1.74246513876066    3.01895719032356   -0.59572367986941
C        -1.58390274303919    2.60290356711494   -1.83243384017423
C        -1.96284756085934    1.42110571049790   -2.59433056771867
C        -2.96241046642978    0.70483083986199   -1.83164897858727
C        -3.19356268834754    1.42834284745243   -0.59936363173999
C        -2.34648533050751    2.59926126486611   -0.59331173233251
C        -2.96487177430444   -0.70145279040340   -1.83213661384962
C        -1.95830113508437   -1.42684897876772   -2.59497423798413
C        -1.58200664666610   -2.59998109059346   -1.83003352710411
C        -2.34495326450489   -2.59785579796476   -0.59975838655592
C        -3.19553828918163   -1.42598887269935   -0.59106442959930
C        -1.00306558855237   -0.72457805286455   -3.32975363574606
C        -1.00286210326010    0.72433235811486   -3.33033089295885
C         0.38184605917528    1.17632716354603   -3.33129047894209
C         1.23632372097078    0.00019994693504   -3.33158361778917
C         0.38185339341233   -1.17671478572842   -3.33137140546445
C        -1.78626471616982    0.00434924772130    4.76390135243182
F        -0.81144228458606    0.04406083742605    5.70277294791114
F        -2.56166088130552   -1.00037625526503    5.05291526026533
F        -2.51105040853205    1.07222112994659    5.05168571616465
C        -0.55310068048103   -1.70231192772607    4.75831550519777
F        -0.26825001862841   -0.78219861089999    5.71213757454948
F        -1.74736217067624   -2.12736750012646    5.05084836030247
F         0.16329554372058   -2.74914793401336    5.05141174125363
C         1.44505109568008   -1.05134737669093    4.76037055924350
F         0.67460548082873   -0.47819224382727    5.71179890354222
F         1.48311783750384   -2.31674073374568    5.05316619859720
F         2.66559666300609   -0.69547988415274    5.05106315498962
C         1.44478724860655    1.04739553041549    4.76403570303266
F         0.63054259964550    0.51704989593310    5.70254459000366
F         2.66601334704196    0.69811392273880    5.05127038668326
F         1.40158868256625    2.34352182081914    5.05200784100015
C         4.58718550553913   -2.05689848630061    0.86649048148637
F         4.62189293356828   -2.76538339924714    1.96546735616862
F         4.97609703330972   -2.85862960096905   -0.12021939490415
F         5.53935282776470   -1.13082021434666    1.00465301860030
C         2.28247928857136   -3.73098897361250    2.62720100291857
F         3.56997546974559   -3.53000286129895    2.76955258208765
F         2.14317274857904   -4.91660313532517    2.04290973456664
F         1.79608747481469   -3.85112369347448    3.86030889779262
C         4.55951188384837    2.03498082244329    0.85470830979732
F         4.64186954655627    2.74625770218484    2.01575094257007
F         5.04022196334617    2.84536478251548   -0.08661073813961
F         5.55028409313769    1.13037567375892    1.04975231496432
C         3.35201901012512    3.70083078171417    0.84894198890677
F         4.04514355805564    3.56597743516651    2.01510437431865
F         4.25673674892775    3.91356324494527   -0.09686474619147
F         2.80268741775646    4.92976438663872    1.06576819331117
C        -0.51174273234696    4.96874525849008    0.85194477571939
F        -1.25581316140506    5.27269547294915    1.94769183327545
F        -1.23051667968309    5.63221305772563   -0.10870630018752
F         0.57888683502048    5.65839177737044    0.99127354424458
C        -2.84542714176848    3.31901623220483    2.62753544794360
F        -2.26510049481820    4.48931864825055    2.76422274116994
F        -4.01181535669848    3.56048975241127    2.04504715538522
F        -3.10483031177935    2.89773924438056    3.86172904690141
C         0.35414618731154    4.34834305532529    2.62513323140672
F        -0.81316714283017    4.95042599982777    2.80469766588737
F         1.20333196131896    5.21570919040728    2.12527325239903
F         0.80888501394171    4.16927003327890    3.86549604494538
C        -4.92052934167438    1.03551705349393    0.86559541424013
F        -5.36448771613668    0.47915010593681    1.96551297549471
F        -5.70548613643276    0.61150917373006   -0.11973796105448
F        -5.14580096699592    2.33894923547278    1.00093403039787
C        -4.03992867112474   -1.67629725160338    2.62731119930156
F        -4.96261934057952   -0.75776971107952    2.76951283673240
F        -4.62529631894433   -2.71503152816009    2.04500700992331
F        -3.71646038906256   -2.05995814713099    3.86020747712001
C        -2.50483586210290   -4.35976252632602    0.86699045112611
F        -2.08438085869202   -4.95316918402027    1.98225548757888
F        -2.34405623388321   -5.23736631097269   -0.12011742059989
F        -3.81319411838924   -4.17175822540144    1.00128838274912
C         2.83950969875935   -3.32590378120633   -2.62777523438980
F         2.23151913466551   -4.50135907107707   -2.75086782837873
F         3.10727567374613   -2.90185940115857   -3.85805007633103
F         4.01402111670159   -3.55775484996883   -2.04370716059873
C         3.47210888163634   -0.00613783615377   -3.72528263174179
F         4.73247536500714   -0.05526000157492   -3.26891163709068
F         3.39733470208101   -1.06564525893463   -4.50445491595750
F         3.37530908151193    1.00120840551794   -4.55056029846654
C         4.01485730666885    1.68576485895924   -2.62182142315850
F         4.98859647469531    0.77624374191816   -2.77907849215048
F         3.73726158642568    2.12698210860041   -3.82212052962053
F         4.59153592892145    2.75916537206730   -2.12145415863420
C         4.88059697994204    1.05126351269417   -0.83813416225490
F         5.41468567821734    0.40997911591994   -1.95689332162233
F         5.20468010623282    2.30397158277730   -0.98876212910130
F         5.73193894244141    0.57787380173162    0.10032256992850
C         0.52871034155898    4.96701906788459   -0.85182856691978
F         1.17784946191498    5.26350896034243   -2.01732710050367
F        -0.63725092911713    5.62907513264759   -1.04488395652561
F         1.14366201557689    5.66923195105456    0.08446363341504
C         2.48546866430485    4.33169160633188   -0.84931229900297
F         2.14113773113006    4.94940840977053   -2.01460961174892
F         3.82140213695029    4.18856094247013   -1.06557629650421
F         2.40533613524342    5.25849710725244    0.09748335630717
C        -2.28547995456822    3.72582429408775   -2.62950181608310
F        -3.59127754564437    3.51349680229509   -2.75076797277232
F        -1.79650792136105    3.84899021457408   -3.86037867012444
F        -2.14579867443189    4.91743372163187   -2.04418024939143
C        -4.25275748406751   -1.01996610833257   -2.62810657164085
F        -4.45087932803525   -2.33003029495852   -2.75089828355493
F        -4.21450308371706   -0.51915713292429   -3.86088837260361
F        -5.33792368775725   -0.51961175988350   -2.04377734729253
C         0.54240245233831    1.67521031835070   -4.78819967290693
F         0.23746669973784    0.76474667575413   -5.67712534853579
F        -0.24013169662369    2.71895060090521   -5.04957612977539
F         1.79036480657684    2.06011491274863   -5.05059093557004
C         0.54324470409642   -1.67669029685287   -4.78805371683489
F         0.23725131785492   -0.76432211389664   -5.67724597806310
F        -0.24080162524073   -2.71855558636284   -5.04905700527361
F         1.78758282288320   -2.05771325796254   -5.05271831254661
156
 energy: -506.988954391274 gnorm: 5.599372912252 xtb: 6.4.1 (a3dbbd7)
C        -1.23683216591560    0.00471554645642    3.32496188830997
C        -0.38283006251641   -1.18140453504515    3.32095639188067
C         1.00295100753533   -0.72905900325353    3.31586154600701
C         0.99839361972575    0.72988875854549    3.32119182803599
C        -0.38127088495235    1.17425138948568    3.33411517098218
C         2.33751786622002   -2.60309195812692    0.58566569248671
C         3.20663201620235   -1.43105536264724    0.59963749947660
C         2.95610474833863   -0.69807602173129    1.83440285729896
C         1.96709604932136   -1.42082185346733    2.58836089418724
C         1.58789587609953   -2.60920905477342    1.83585468827306
C         3.18037426954611    1.41246782125200    0.60245546401285
C         2.32808902956084    2.58519796806792    0.60005749729795
C         1.58584364790367    2.60091128994624    1.83224263709963
C         1.96877821726473    1.42648082435523    2.59276748654995
C         2.95941357080346    0.69663644373533    1.83368727163403
C        -0.37563905875276    3.46834134037584    0.59703189392460
C        -1.75037300997538    3.03440702681019    0.59095647445812
C        -1.98897183360292    2.31343009642081    1.83486834749378
C        -0.74898100151163    2.31023830053185    2.59479073235661
C         0.25035479411631    3.02097514404990    1.83293754281542
C        -3.43617885135156    0.72727710195719    0.59826570912998
C        -3.42210161607448   -0.73100440923716    0.58549679771362
C        -2.81807236811332   -1.17810268256457    1.83578297816452
C        -2.42749349613257    0.00861118203232    2.58534495755507
C        -2.80323898372296    1.16341404984092    1.83405699873899
C        -1.75351867888070   -3.04409344393462    0.59916484871505
C        -0.35882254936288   -3.47811255296882    0.59659126335953
C         0.23875508318897   -3.03440246643118    1.82628801037326
C        -0.75274428836517   -2.31111589771409    2.58108305316514
C        -1.97490234989917   -2.30716488260656    1.83485837647244
C        -0.24437130631216   -3.03062273895374   -1.83170048841578
C         0.74047628243465   -2.31406000874444   -2.58444053411360
C         1.98899118780324   -2.31646041162325   -1.83478144663356
C         1.74469847523965   -3.03083526397008   -0.58575570515654
C         0.36854332587825   -3.48259288780205   -0.59479487857502
C         2.81276525020924   -1.17113689781148   -1.83063001963814
C         2.41683998601053   -0.00558453661912   -2.59107538815997
C         2.79592951840485    1.17942191708373   -1.82746915613888
C         3.40663491919761    0.71238382247884   -0.59089052088350
C         3.42449187759278   -0.72161713360164   -0.60081127900099
C         1.98099467034357    2.30942323599289   -1.83313946565099
C         0.74901536660483    2.31313160918294   -2.58776104911001
C        -0.24156635072652    3.03084989841206   -1.83211623601886
C         0.36055748295882    3.45997924949598   -0.60112563164891
C         1.73938928050305    3.01303729789314   -0.59911429136726
C        -1.58882174846091    2.60763732143528   -1.83635091751174
C        -1.96339625527134    1.41579407825858   -2.59335633272517
C        -2.95752135934408    0.71141896311727   -1.82916615147496
C        -3.18795112094514    1.43137937562880   -0.60477577497243
C        -2.34808687292015    2.59343041029225   -0.59141163432739
C        -2.97236540886342   -0.70438739584205   -1.83662277913126
C        -1.95368752924133   -1.42810095637344   -2.59482496672945
C        -1.58436611078583   -2.59808152929363   -1.82902390806323
C        -2.34548066489561   -2.59384253805335   -0.60608742970627
C        -3.19187479224099   -1.42630412802068   -0.58678820084586
C        -1.00650463628092   -0.72211291807145   -3.32550178528161
C        -1.00618838374223    0.72149155596455   -3.32650062586738
C         0.38169806206783    1.17714534662096   -3.33910392295438
C         1.23579224537436    0.00025432318830   -3.32916213572751
C         0.38165932142081   -1.17804481313296   -3.33902854048610
C        -1.80792663633568    0.00090233868487    4.74336074091329
F        -0.85186207464257    0.10043803705623    5.72582678534654
F        -2.59120795787830   -0.95883951795732    5.05860646322012
F        -2.51039009836960    1.07385410113880    5.05353809807735
C        -0.55709368000993   -1.72510740102125    4.73167260516213
F        -0.36984479316027   -0.86330081848510    5.74325860754159
F        -1.72087183870478   -2.16806991750327    5.05297577777081
F         0.11627562086167   -2.76938804081341    5.05300454437124
C         1.46226945430488   -1.06616293425244    4.73643138941037
F         0.80970241380651   -0.50426492249827    5.74018604654872
F         1.53202868389444   -2.30147679779645    5.05765447890109
F         2.66966371334777   -0.74302927476213    5.05295319183234
C         1.46208515147939    1.05733049944402    4.74305225330933
F         0.62594848883358    0.59939218401126    5.72610505122412
F         2.66983175263943    0.74819599595105    5.05393115813443
F         1.40037133484373    2.34528455414798    5.05409780127068
C         4.58572647219653   -2.05951533090743    0.86631849993569
F         4.64480928599616   -2.75071481300240    1.95078982513811
F         4.97777011589907   -2.85866209953350   -0.12058942166573
F         5.54215025647798   -1.13250694967138    1.00670845389821
C         2.28218436814238   -3.73277822944387    2.62632095050375
F         3.55107897744649   -3.54601371749211    2.78729498080139
F         2.14305294606565   -4.91781495544091    2.04267079652990
F         1.79577717301434   -3.85543146952608    3.85997502607508
C         4.53142073782094    2.01513495197518    0.82310993108894
F         4.68049331696858    2.72970787843211    2.05646328558070
F         5.08931354081043    2.83849025432180   -0.03049219469116
F         5.55149877776340    1.16274933022501    1.13400378505975
C         3.33869845179791    3.66849321493900    0.81406848026757
F         4.03386877494886    3.60764787585544    2.04812112718188
F         4.26465688637591    3.95937378449711   -0.01826825346535
F         2.83135878211198    4.93193970793180    1.16137141274257
C        -0.47586426372021    4.93478082335501    0.83970472095855
F        -1.28406113004443    5.31397216662052    1.93229169797538
F        -1.29349030609955    5.65143145716701   -0.06230263191052
F         0.51895399199485    5.68743286362927    1.01379305938069
C        -2.85027932233326    3.31419942876598    2.62701089097608
F        -2.29949526765321    4.47662505675066    2.77850515162147
F        -4.01081500463593    3.56424398072325    2.04731178995587
F        -3.10556641604065    2.89827436946275    3.86357617323649
C         0.36268599253808    4.33974980785813    2.62057211585877
F        -0.79155241428654    4.95425536586821    2.84109354266868
F         1.23281419403550    5.20224857759879    2.17641404195412
F         0.80895305681100    4.17059694973400    3.86837284282655
C        -4.92174033655062    1.03565129579200    0.86464980495203
F        -5.37432206721389    0.50428752979945    1.95100186030285
F        -5.70640146613195    0.61191490518112   -0.11971093119470
F        -5.14900259641192    2.33833327488841    0.99822508896590
C        -4.04131401660170   -1.67751282485047    2.62654586082957
F        -4.95645899665954   -0.78193875004872    2.78737049450021
F        -4.62783107575595   -2.71267176129747    2.04724398655593
F        -3.71853740201143   -2.06360995630877    3.85993511646746
C        -2.50521765324954   -4.36060814585972    0.86687752266508
F        -2.08437233097329   -4.95414321427841    1.98329570672921
F        -2.34406890443625   -5.23824851625585   -0.12054205596257
F        -3.81215541880984   -4.17557438620947    0.99892732546166
C         2.83838742758329   -3.32794210182858   -2.62770450405489
F         2.23165682852799   -4.50263464333616   -2.75128026752740
F         3.11070356508521   -2.90743644097718   -3.85546979278280
F         4.01535965228810   -3.55836078793897   -2.04441536496307
C         3.44770222865821   -0.00540227668985   -3.73373057054752
F         4.73627963351361   -0.12234578281138   -3.30707610075624
F         3.40239255113263   -1.06092316681981   -4.50496644666117
F         3.36778613005689    0.96041290639952   -4.57999908730104
C         3.99609958047572    1.69178102468606   -2.61518152431962
F         4.99319990222139    0.84909961456262   -2.81234029609780
F         3.75121970105014    2.17036461841139   -3.79991984039966
F         4.57136764670167    2.78611752049283   -2.17030992225247
C         4.84560647316787    1.07167140624535   -0.80899031885877
F         5.48221298298966    0.35336226747668   -1.93141830446279
F         5.25316208644733    2.25889500669631   -1.00188778059031
F         5.75647169868035    0.53470006697462    0.02782781385379