63
 energy: -142.067096138900 gnorm: 0.137428931272 xtb: 6.4.1 (a3dbbd7)
C        -1.29380189142293    0.00518810975266    3.53475042546279
C        -0.36795491470580   -1.17109445736895    3.30532490038581
C         0.98604358283337   -0.72205662153057    3.28338601634011
C         0.99279845569028    0.71960958020434    3.28670177220412
C        -0.35984581254024    1.17608479242461    3.30752732760340
C         2.33713649004571   -2.58532145161085    0.58372316331785
C         3.18546133793759   -1.42134997264655    0.58338208878717
C         2.95082976620164   -0.69852042803930    1.80993186584047
C         1.95446102216782   -1.41753025851411    2.56281800021944
C         1.57847833033781   -2.57892028349053    1.80920393433954
C         3.19288167803387    1.41169296432545    0.58672865582473
C         2.35105136029066    2.58084981847724    0.59261819528430
C         1.59758832697668    2.57820008875605    1.81796532275165
C         1.96559431354784    1.41132811232743    2.56849274624772
C         2.95756435296723    0.68790137312963    1.81257795942740
C        -0.35275196897409    3.42887133849168    0.59421742049523
C        -1.72920692229924    2.99230129003520    0.61519127722458
C        -1.95197042618735    2.29668273330733    1.78890012206403
C        -0.71485852606077    2.27608556030605    2.56877936383865
C         0.27214507062583    2.99541427636099    1.81693304163630
C        -3.38721742288295    0.70448508843178    0.56514887497333
C        -3.39044375775274   -0.72968934853056    0.56550558817146
C        -2.77113539472441   -1.15912612265277    1.79248966840215
C        -2.41317429079729    0.01751644177935    2.54950357180152
C        -2.77182627205049    1.13563561134442    1.81994410998792
C        -1.73355122268659   -3.00708034664607    0.58129730270537
C        -0.36181166270692   -3.44426421951826    0.58345136711438
C         0.25275073307619   -2.99321810486982    1.80880479424469
C        -0.73039712791208   -2.27135950943121    2.56586851742324
C        -1.97279304600038   -2.28576170766145    1.80102269682824
C        -0.24238615112945   -3.01793584622875   -1.82445515299701
C         0.75219722331257   -2.29732681147523   -2.58092298223561
C         1.97624114646521   -2.29597968001587   -1.82132020587332
C         1.74307643045859   -3.01315945447727   -0.59635165459212
C         0.36952394179264   -3.45595661079619   -0.59532061061890
C         2.79389381083502   -1.17006079615157   -1.82189978789697
C         2.41348009957297   -0.00705489229052   -2.57818086595715
C         2.78999064750528    1.16020365821852   -1.81761248140956
C         3.41015703318610    0.71618948342090   -0.59477681854074
C         3.40904188499398   -0.72628404265143   -0.59717927367984
C         1.96766155284354    2.27743617061842   -1.80961098452332
C         0.73818631315969    2.27318131636995   -2.56526366176596
C        -0.25452817372238    2.98697308127654   -1.81304848877457
C         0.37433917950606    3.44714002836196   -0.57954542322151
C         1.74069841374485    3.00184911275993   -0.58628229109115
C        -1.56594286660743    2.57622153348487   -1.82757382821072
C        -1.93060359076478    1.40833920854940   -2.56142004737257
C        -2.92558718059454    0.68471965133326   -1.80985060540908
C        -3.18336452045091    1.39842201201719   -0.60046258538095
C        -2.49261081939282    2.74597890286004   -0.64190319443319
C        -2.93337982074983   -0.70819502150591   -1.82878957204493
C        -1.94087750651851   -1.42668590891227   -2.58871417977512
C        -1.56447467303262   -2.59492957963295   -1.83010971308821
C        -2.32899579696595   -2.59691491413030   -0.60898361949216
C        -3.17400858337551   -1.43281811038797   -0.61332327338214
C        -0.98438829443742   -0.73034962028861   -3.31153930258603
C        -0.98168514679102    0.71067458913262   -3.30542238699281
C         0.38278275322509    1.15383295034001   -3.30684835980828
C         1.23382314639336   -0.00939761816394   -3.31093861539930
C         0.38818347913191   -1.17531879821918   -3.31264620408259
Cl       -1.92621810876854    0.00794379942123    5.24496950921280
Cl       -3.69873659772651    4.07913281862690   -0.94789575544924
Cl        4.45280629205849   -1.08101039970884    2.74474090374459
63
 energy: -142.091390803838 gnorm: 0.059435098622 xtb: 6.4.1 (a3dbbd7)
C        -1.29531281571126    0.00471013343880    3.53439461117870
C        -0.37467053934206   -1.17461337489657    3.30464880439497
C         0.97597861423034   -0.72421552395521    3.27246858236501
C         0.98757149875426    0.72123213721543    3.28324628698354
C        -0.35996042665664    1.17543316059985    3.30682312632932
C         2.32852656423393   -2.58109029043500    0.57733565581221
C         3.17539228775554   -1.42568069864960    0.57111800726105
C         3.04122792670286   -0.72406509233896    1.86669061936972
C         1.93912209888583   -1.42278196286511    2.56023427674092
C         1.56836994323068   -2.57374748967175    1.80396609149798
C         3.17886616159833    1.41766215046507    0.58601473973418
C         2.34540565271775    2.59431287204051    0.58950660483877
C         1.59242705677285    2.59008123986518    1.81300378826703
C         1.95905447194065    1.41562772905744    2.55628828354784
C         2.96273164622766    0.71251605292826    1.81716954094016
C        -0.35646085239756    3.43360527553904    0.59092755388512
C        -1.73086892112215    2.99426266506272    0.61338601056019
C        -1.95167767999555    2.29713689898460    1.78920654426455
C        -0.71780354704611    2.28006487463399    2.56812281885275
C         0.26743566546977    3.00204633172066    1.81457834546507
C        -3.38721316343674    0.70506134046170    0.56480376993158
C        -3.39178430718803   -0.72942974033949    0.56468034628409
C        -2.77298072659853   -1.15917325890688    1.79113681525249
C        -2.41390789039615    0.01724847778372    2.54869118174146
C        -2.77167848158900    1.13562639236022    1.81972613142272
C        -1.73795552850378   -3.00888116087542    0.57963216405692
C        -0.36659041384885   -3.44667343211024    0.58136634823716
C         0.24397377373852   -2.99744439221360    1.80827425302075
C        -0.73682450227630   -2.27622730793548    2.56529195538013
C        -1.97743276216839   -2.28779213739266    1.79923294436795
C        -0.24568496377712   -3.02032628615353   -1.82692330632134
C         0.74946077168719   -2.29955747265041   -2.58335464793418
C         1.97399229877951   -2.30104099088115   -1.82662202662451
C         1.73884794306398   -3.01622722308488   -0.60320984348116
C         0.36516514577876   -3.45848050944591   -0.59827955790788
C         2.79159028724433   -1.17325611286569   -1.82723457951163
C         2.41127909454992   -0.00777835057525   -2.57788092351108
C         2.78787995198934    1.16089273303379   -1.81640153477619
C         3.40393626908274    0.71943549449196   -0.59597006054408
C         3.39505800951410   -0.72759365725592   -0.60059822572561
C         1.96540162661656    2.28154959558550   -1.81137584177030
C         0.73719869246471    2.27439531326809   -2.56592317564629
C        -0.25669845204690    2.98886654333336   -1.81514760132122
C         0.37082506523138    3.45273883040347   -0.58318863893588
C         1.73745148162167    3.01042309229326   -0.59071468661516
C        -1.56739783089152    2.57700975404793   -1.82858974004704
C        -1.93143572249456    1.40816894629022   -2.56169308451341
C        -2.92617504146589    0.68498257931545   -1.81057508871757
C        -3.18372281803800    1.39872244370149   -0.60077001464901
C        -2.49389298812423    2.74655535069224   -0.64289593006996
C        -2.93437315193359   -0.70809391341358   -1.82964529351962
C        -1.94246819042674   -1.42687963724575   -2.58958951366346
C        -1.56722773194310   -2.59549702729187   -1.83161947416601
C        -2.33200102337783   -2.59730612434373   -0.61073333860601
C        -3.17568225663765   -1.43257603913492   -0.61441980694442
C        -0.98532439700453   -0.73067709316435   -3.31214442106382
C        -0.98202826215702    0.71052240911661   -3.30549222119086
C         0.38189555298167    1.15380283106708   -3.30752053812017
C         1.23228989382584   -0.00986290752058   -3.31083808998980
C         0.38657874437078   -1.17602357021186   -3.31332502694900
Cl       -1.92701230932750    0.00766849989708    5.24458480789783
Cl       -3.70060569860950    4.07951612836474   -0.94813951364658
Cl        4.58025888365671   -1.11747094053598    2.81797331442100
63
 energy: -142.097469530656 gnorm: 0.014017032519 xtb: 6.4.1 (a3dbbd7)
C        -1.29646068687459    0.00461026137397    3.53099514299621
C        -0.37398043430927   -1.17193537603040    3.29656546504574
C         0.97844494861185   -0.72599993601564    3.26607324713247
C         0.98593525526167    0.72200223215433    3.28416540504298
C        -0.35844987275556    1.17357228984008    3.30392773051335
C         2.32582489415366   -2.57082610752498    0.57525965483512
C         3.17901910665292   -1.42887802234686    0.57073669712905
C         3.12025521093168   -0.74911573537248    1.91571835979488
C         1.94111572461635   -1.42568789861004    2.56358593437065
C         1.56531872595126   -2.56179182125412    1.80188882013211
C         3.17055329590568    1.41248632702048    0.58855288649039
C         2.33992303292712    2.59427582641024    0.58697871683496
C         1.58790184968915    2.58953160242278    1.80834300017626
C         1.95797799756426    1.40928243323011    2.54682815690867
C         2.95707014480309    0.71586284126360    1.81507141664226
C        -0.36026099923485    3.43747777773026    0.58821696028582
C        -1.73322858574635    2.99600901961815    0.61099157078203
C        -1.95209165464863    2.29690188761319    1.78864146186537
C        -0.72133291348465    2.28212237214967    2.56643490154947
C         0.26403576294004    3.00300219114918    1.81151645310207
C        -3.38922108980841    0.70609517191021    0.56286967008015
C        -3.39445339085763   -0.72876542055075    0.56252499374114
C        -2.77635545572313   -1.15897762337126    1.78871312968897
C        -2.41598685814701    0.01748599225432    2.54611848243867
C        -2.77347088096563    1.13598246082420    1.81787482597694
C        -1.74213085185941   -3.00908787003788    0.57699709403965
C        -0.37008189719657   -3.44535310124005    0.57938496456457
C         0.24044191644398   -2.99394504052452    1.80565495804886
C        -0.73941330231698   -2.27514566465338    2.56023448188620
C        -1.98200066990659   -2.28879572254177    1.79706402408582
C        -0.24994751595015   -3.02112155801237   -1.82904269875222
C         0.74589237067580   -2.30106715129108   -2.58612459142339
C         1.96870664098955   -2.30115502950706   -1.82674176849538
C         1.73503833668336   -3.01310266123445   -0.60475906371951
C         0.36137341576467   -3.45761571125660   -0.60024879209770
C         2.78449820241444   -1.17167258002756   -1.82235263893672
C         2.40674905741709   -0.00780969340375   -2.57526218873933
C         2.78465985621403    1.16046125507060   -1.81248439925198
C         3.40375904907205    0.72096927115086   -0.59608177236597
C         3.39040018434638   -0.72992289471796   -0.59523322766936
C         1.96209670125139    2.28382400158851   -1.81313976241634
C         0.73491515670857    2.27516942965889   -2.56663095787661
C        -0.26012070289909    2.99105973543689   -1.81745398269890
C         0.36716536931986    3.45725644762795   -0.58642821265179
C         1.73356858946587    3.01265072151925   -0.59338255537755
C        -1.57048019505019    2.57838458614577   -1.83048765636571
C        -1.93433051040645    1.40888000726354   -2.56305275644871
C        -2.92882610955241    0.68583124757094   -1.81258549032158
C        -3.18640079687115    1.39958598112458   -0.60249580740764
C        -2.49656426809967    2.74721453195062   -0.64444771602639
C        -2.93755027577207   -0.70734211955428   -1.83184251811480
C        -1.94594417335469   -1.42650956443270   -2.59158465936539
C        -1.57164109698372   -2.59561099008572   -1.83415336212674
C        -2.33648778293690   -2.59728944735334   -0.61355700098640
C        -3.17916634021356   -1.43198570901462   -0.61686902018864
C        -0.98792713362977   -0.73041698663422   -3.31323750245873
C        -0.98425314618079    0.71105227307053   -3.30626507498364
C         0.37908306497678    1.15398865813699   -3.30855334097344
C         1.22932792714051   -0.00988468870859   -3.31061871971985
C         0.38351973160030   -1.17639776658424   -3.31478998505685
Cl       -1.92771072769728    0.00717214464316    5.24113552259487
Cl       -3.70375030185137    4.08046439103696   -0.94795927172275
Cl        4.67578877897653   -1.13604091937000    2.87251094378424
63
 energy: -142.097793385423 gnorm: 0.008413105144 xtb: 6.4.1 (a3dbbd7)
C        -1.29525826066927    0.00442718929885    3.52816985407055
C        -0.37141895351714   -1.17057027906126    3.29271921288412
C         0.98279943270456   -0.72681934913892    3.26763306998525
C         0.98579496319378    0.72238886602048    3.28649525723652
C        -0.35772495080027    1.17370481882517    3.30306164536427
C         2.32723822129066   -2.56758089071539    0.57628965924932
C         3.18767237644940   -1.43113959663492    0.57534107189697
C         3.13938277935312   -0.75661355506463    1.92763639967945
C         1.94897480343870   -1.42743383500467    2.56936564461235
C         1.56663407885908   -2.55785037399565    1.80287336358708
C         3.17057967131599    1.40862760121535    0.59013195432437
C         2.33813312594141    2.59102457673796    0.58608947878672
C         1.58644673089268    2.58624043862040    1.80663408775390
C         1.95956767532995    1.40524184797294    2.54586458331729
C         2.95452388701769    0.71114094397629    1.81410386900354
C        -0.36141764763698    3.43814195527073    0.58716581905388
C        -1.73426439666278    2.99680176817025    0.60988053978259
C        -1.95226099613033    2.29671018584504    1.78788163643582
C        -0.72256742108212    2.28248340580026    2.56554533637680
C         0.26341270986553    3.00200336611280    1.81002900185033
C        -3.39057456984788    0.70676430790706    0.56163450316617
C        -3.39628727542984   -0.72824005623736    0.56134288519744
C        -2.77770122560113   -1.15841706557844    1.78725232240250
C        -2.41593292918379    0.01778306451657    2.54418888717603
C        -2.77421275918418    1.13628527329909    1.81648657891411
C        -1.74385748394828   -3.00846296100824    0.57582617381747
C        -0.37118294893612   -3.44309303513329    0.57850745463723
C         0.24086020428280   -2.99049106619853    1.80365263221861
C        -0.73930793061230   -2.27345995902476    2.55755230693519
C        -1.98339726411603   -2.28831046236667    1.79594600722277
C        -0.25193100504658   -3.02083949833689   -1.82970705384783
C         0.74417575422043   -2.30097661401023   -2.58660962778523
C         1.96622369343105   -2.29982660280564   -1.82505949701017
C         1.73347729757142   -3.01022407098325   -0.60310722427830
C         0.35990737926232   -3.45569896271460   -0.60054633869129
C         2.78121135883411   -1.17029260351352   -1.81761425152103
C         2.40413112413846   -0.00781861926112   -2.57259814929886
C         2.78370966695915    1.16033443986897   -1.81103023922103
C         3.40578205256931    0.72126827613057   -0.59651544887031
C         3.39321006494148   -0.73112382529951   -0.59155351571926
C         1.96086086864212    2.28387797638345   -1.81388273604740
C         0.73385539710579    2.27516339790386   -2.56714969304140
C        -0.26144566920407    2.99189909907675   -1.81862393455687
C         0.36606832224902    3.45814134425796   -0.58763130072798
C         1.73227525864384    3.01190650840948   -0.59391170883619
C        -1.57195989612866    2.57918191457273   -1.83168558401090
C        -1.93603336780792    1.40948179303714   -2.56411140817277
C        -2.93058108083113    0.68643137980254   -1.81386760755358
C        -3.18805244801336    1.40031596303064   -0.60367380205678
C        -2.49800709035750    2.74790059542350   -0.64539942433596
C        -2.93967138056285   -0.70684407589577   -1.83312563170847
C        -1.94818074705945   -1.42636965648800   -2.59289440182390
C        -1.57399222819968   -2.59564863472862   -1.83542912218397
C        -2.33895220249822   -2.59719289923403   -0.61480991532689
C        -3.18151096859772   -1.43164236238600   -0.61814816228961
C        -0.98975430982365   -0.73024780256256   -3.31407380776101
C        -0.98576984133137    0.71136999148194   -3.30701678861649
C         0.37752482264202    1.15400005528743   -3.30905103403536
C         1.22767591036586   -0.00988196020765   -3.30970413381405
C         0.38167964955372   -1.17625087646234   -3.31495265555008
Cl       -1.92697740416088    0.00279169445136    5.23774981419743
Cl       -3.70614472255942    4.08098185599914   -0.94781223877170
Cl        4.69288177266085   -1.13403978595613    2.88195396414846
63
 energy: -142.097897836421 gnorm: 0.004856198161 xtb: 6.4.1 (a3dbbd7)
C        -1.29448099469807    0.00426325147176    3.52704882762007
C        -0.36999417788401   -1.16991558080781    3.29066263507702
C         0.98491414990198   -0.72702517964185    3.26884970014744
C         0.98508959545494    0.72288393920631    3.28851858088089
C        -0.35761987073584    1.17407461238671    3.30331466144636
C         2.32750485138211   -2.56551484529561    0.57663951595652
C         3.19243247549721   -1.43192169619410    0.57808087370392
C         3.14713296808471   -0.75986697496698    1.93246856828672
C         1.95347869568950   -1.42780548816217    2.57257990041237
C         1.56686796278822   -2.55533334330752    1.80324505772815
C         3.17086506364881    1.40608275785832    0.59065421060353
C         2.33716569665881    2.58876304534165    0.58558572350699
C         1.58566380596188    2.58398094276739    1.80565528272745
C         1.96043393701798    1.40263477479924    2.54576253811462
C         2.95149008441423    0.70711872969195    1.81264364880791
C        -0.36156138983574    3.43812267489733    0.58686074211618
C        -1.73441381818460    2.99722270287742    0.60960275694926
C        -1.95210908063677    2.29653057710005    1.78775788485038
C        -0.72323938167167    2.28260132730296    2.56539742494570
C         0.26343243857957    3.00136621860416    1.80955288984062
C        -3.39109383302693    0.70706535102335    0.56124397960322
C        -3.39726043121283   -0.72801373930370    0.56101150512049
C        -2.77837797452593   -1.15805303534300    1.78676370839959
C        -2.41577668751343    0.01793898935828    2.54349643386273
C        -2.77444363782918    1.13646263503098    1.81598944519499
C        -1.74480938923093   -3.00823025193168    0.57555048905950
C        -0.37175222275376   -3.44167280052354    0.57808462554776
C         0.24106658703412   -2.98823078353177    1.80229622902119
C        -0.73942327646568   -2.27249765047853    2.55633614656467
C        -1.98421011645211   -2.28803160252984    1.79560064980139
C        -0.25274931344280   -3.02084175183061   -1.83015785563746
C         0.74340395276910   -2.30103429967944   -2.58701046577156
C         1.96509674547430   -2.29917339524546   -1.82432618890492
C         1.73235947154295   -3.00839720489600   -0.60203287391635
C         0.35913709124864   -3.45453497324288   -0.60063549683476
C         2.77951893907466   -1.16970180020786   -1.81507428449504
C         2.40289084517081   -0.00791176263747   -2.57115982868084
C         2.78381039178126    1.16042825362388   -1.81093909624587
C         3.40736607711502    0.72167174943707   -0.59761405270430
C         3.39463189814501   -0.73159735482219   -0.58989437948534
C         1.96069535094091    2.28382593198963   -1.81451920614946
C         0.73378433930810    2.27504692231991   -2.56748268572058
C        -0.26155200106934    2.99223103652916   -1.81909135631276
C         0.36601831614184    3.45832181823017   -0.58804035684035
C         1.73207909261672    3.01138574261077   -0.59412417773241
C        -1.57213591445867    2.57947773225549   -1.83209223031451
C        -1.93638429057219    1.40967250503459   -2.56442304179045
C        -2.93093616085266    0.68660267341799   -1.81423933798290
C        -3.18839975001888    1.40060420659186   -0.60400804863846
C        -2.49818391995279    2.74814280026301   -0.64565534965011
C        -2.94037846257140   -0.70669291646330   -1.83350317990902
C        -1.94904846067027   -1.42646367084331   -2.59343316944675
C        -1.57501827023950   -2.59590378098247   -1.83597542335948
C        -2.34012635774626   -2.59735226618575   -0.61522664751892
C        -3.18252778069689   -1.43157064897725   -0.61852343917353
C        -0.99047767298948   -0.73028296690586   -3.31450391707007
C        -0.98619220103494    0.71142145964103   -3.30737833817767
C         0.37710087780866    1.15389819407300   -3.30934192925140
C         1.22716033369861   -0.00999532586396   -3.30937109287771
C         0.38092184726168   -1.17621908144685   -3.31497707252279
Cl       -1.92642513755793   -0.00149290321730    5.23631562892002
Cl       -3.70697183681933    4.08112274306400   -0.94774535853469
Cl        4.69489960932386   -1.12827266463522    2.88263819465275
63
 energy: -142.097941125425 gnorm: 0.002588752018 xtb: 6.4.1 (a3dbbd7)
C        -1.29432378327254    0.00407931955510    3.52716345269185
C        -0.36962405746301   -1.16985230157995    3.29004133675803
C         0.98518560927521   -0.72703053951257    3.26907534926367
C         0.98436747074442    0.72312268227886    3.28955965395953
C        -0.35776320265670    1.17422047897107    3.30404787818613
C         2.32705578274513   -2.56461396444812    0.57647900798811
C         3.19331525999686   -1.43180437239087    0.57875891764898
C         3.14936835115900   -0.76063081484165    1.93382398020831
C         1.95450751692163   -1.42750038158982    2.57318076176848
C         1.56643589043658   -2.55424726104042    1.80313431062272
C         3.17062543415183    1.40490242786032    0.59053288106228
C         2.33685001489377    2.58793309084153    0.58543939441299
C         1.58543301287874    2.58314472980703    1.80529041372278
C         1.96048888256745    1.40143005587317    2.54562787706294
C         2.94881124770727    0.70489949176205    1.81123075625118
C        -0.36124021396043    3.43786532081889    0.58694781672926
C        -1.73406956695137    2.99733080480106    0.60972668286568
C        -1.95176517709988    2.29639129840740    1.78798052340324
C        -0.72344891003026    2.28255442415730    2.56567229844016
C         0.26368366419866    3.00115041777648    1.80970366908993
C        -3.39102027133139    0.70714512318314    0.56134917699269
C        -3.39743712731382   -0.72795155934244    0.56114938912591
C        -2.77854137075792   -1.15793430650162    1.78688124232207
C        -2.41571786053818    0.01796329375028    2.54362629869735
C        -2.77431670475908    1.13651374818123    1.81604631879733
C        -1.74509458238023   -3.00825587648301    0.57572459463482
C        -0.37190915797127   -3.44126289944668    0.57803672891527
C         0.24104246021170   -2.98753962652350    1.80181097817887
C        -0.73967783378945   -2.27234309819812    2.55623479898630
C        -1.98453197277435   -2.28803684013680    1.79572162496817
C        -0.25281762396709   -3.02098484589535   -1.83034947237333
C         0.74329993527816   -2.30122989330994   -2.58727081566109
C         1.96493816775859   -2.29919701493771   -1.82434625177205
C         1.73187707600397   -3.00789311408822   -0.60170729623387
C         0.35892972786086   -3.45424913104935   -0.60063306501089
C         2.77909725981987   -1.16974907084630   -1.81444416011757
C         2.40280197917114   -0.00806393774770   -2.57089511885692
C         2.78436800210798    1.16049290364398   -1.81141154903525
C         3.40801241989733    0.72189477421006   -0.59850270148373
C         3.39458756974347   -0.73173963278651   -0.58965970424476
C         1.96104593615099    2.28377094247118   -1.81488189680212
C         0.73417259137417    2.27495255249640   -2.56756796341258
C        -0.26114176104748    2.99224474561631   -1.81906841036295
C         0.36640493698651    3.45822591375171   -0.58800298323600
C         1.73242305601483    3.01125338333095   -0.59417854879528
C        -1.57172080925741    2.57948384832206   -1.83199758492054
C        -1.93603595301540    1.40966797541288   -2.56428428409639
C        -2.93057058317443    0.68661482524738   -1.81409521155276
C        -3.18803945746473    1.40064657371742   -0.60385478766837
C        -2.49771529063347    2.74809413429356   -0.64550514064413
C        -2.94021931747668   -0.70664219407121   -1.83335913889389
C        -1.94899026720565   -1.42651757439954   -2.59338084977623
C        -1.57512017596300   -2.59605791081155   -1.83599702036802
C        -2.34030369562793   -2.59745970007663   -0.61516301333977
C        -3.18253793129564   -1.43153937433950   -0.61839545048125
C        -0.99042221931638   -0.73032492761253   -3.31451991385945
C        -0.98597487360987    0.71139870608142   -3.30739055408353
C         0.37733296869610    1.15380650999582   -3.30941016613802
C         1.22736629234995   -0.01012055074786   -3.30945367167379
C         0.38091559956509   -1.17626528235839   -3.31491365424893
Cl       -1.92625777273102   -0.00396075537237    5.23636689506303
Cl       -3.70674235521383    4.08113190299989   -0.94775726594489
Cl        4.69068744156802   -1.12191308843151    2.87974121409020
63
 energy: -142.097954012040 gnorm: 0.001422430136 xtb: 6.4.1 (a3dbbd7)
C        -1.29451850563519    0.00395295407833    3.52767342124388
C        -0.36985780355686   -1.17010675165659    3.29033129822352
C         0.98467747171565   -0.72709204691505    3.26881814915740
C         0.98413319188905    0.72303001218192    3.28961797268189
C        -0.35786007072955    1.17411664862300    3.30456170672656
C         2.32671462379853   -2.56482691841860    0.57627273525879
C         3.19228846157927   -1.43161429552686    0.57824193216224
C         3.14917067872887   -0.76026656879717    1.93366284214736
C         1.95363730274225   -1.42733802670133    2.57252613945270
C         1.56609521679917   -2.55449225124975    1.80297896418564
C         3.17019668961019    1.40490543323373    0.59023385802946
C         2.33701346845029    2.58820373516689    0.58552680166433
C         1.58558450497468    2.58340679457188    1.80538689431255
C         1.96015491174458    1.40143712554657    2.54546143168768
C         2.94765164920343    0.70463866021003    1.81057221377355
C        -0.36095791703066    3.43773272451038    0.58709683435275
C        -1.73373527032366    2.99728184507078    0.60988140040985
C        -1.95151992004100    2.29636759236751    1.78820166605985
C        -0.72334249756756    2.28247870431054    2.56594467547615
C         0.26385138348844    3.00121635276339    1.80999350251506
C        -3.39075625081140    0.70713072736844    0.56155184968814
C        -3.39719899699106   -0.72796034056075    0.56134774950985
C        -2.77842965346251   -1.15800301549236    1.78713664685980
C        -2.41573176681183    0.01790814285991    2.54396427431465
C        -2.77410254735868    1.13648974249371    1.81625505944432
C        -1.74497930176512   -3.00835022327319    0.57589900255832
C        -0.37184230730733   -3.44153477488999    0.57814108372916
C         0.24094270216326   -2.98798628007812    1.80198869710017
C        -0.73983829555017   -2.27265741780918    2.55660131479805
C        -1.98448869902750   -2.28818783030271    1.79591195949388
C        -0.25262764993232   -3.02107609142536   -1.83032027475361
C         0.74347362581353   -2.30137446468319   -2.58730936961764
C         1.96519950648379   -2.29949521348297   -1.82461915973593
C         1.73195862318470   -3.00828557405084   -0.60188280413990
C         0.35903135187493   -3.45451058617398   -0.60062105866911
C         2.77939511090124   -1.17003589456379   -1.81488325796563
C         2.40322810103889   -0.00817506871573   -2.57126815121145
C         2.78476338280766    1.16044033536637   -1.81175696388616
C         3.40789206929126    0.72181671313119   -0.59868916526356
C         3.39410285771504   -0.73182047213690   -0.59004267075015
C         1.96136196895685    2.28372635380537   -1.81489966116779
C         0.73448190045444    2.27493405134781   -2.56749690888139
C        -0.26081692864752    2.99216012023202   -1.81888922097869
C         0.36670885083186    3.45813025932015   -0.58785967164149
C         1.73275685699652    3.01134377948294   -0.59417539254976
C        -1.57137822322305    2.57943162094681   -1.83179821333863
C        -1.93568704265153    1.40965075092708   -2.56409973414719
C        -2.93022741175116    0.68663460497510   -1.81389345461078
C        -3.18766659917087    1.40063188520986   -0.60364236703257
C        -2.49729714933563    2.74799596487311   -0.64530527483306
C        -2.93989944001251   -0.70660014787413   -1.83315252284344
C        -1.94867916256959   -1.42647193250458   -2.59316364698468
C        -1.57487454377882   -2.59602191130275   -1.83583562163855
C        -2.34004269015606   -2.59742665188764   -0.61500625894382
C        -3.18220212541415   -1.43149159526599   -0.61820215853792
C        -0.99013488075601   -0.73030351053854   -3.31436320336716
C        -0.98567850535045    0.71140168992311   -3.30726711471818
C         0.37764923463777    1.15379693496817   -3.30935753709292
C         1.22769036577283   -0.01017295942016   -3.30961817282614
C         0.38116253250251   -1.17631619659892   -3.31485506924925
Cl       -1.92640571608114   -0.00418830094038    5.23690482861257
Cl       -3.70627894213849    4.08118266855693   -0.94774089214681