62
 energy: -137.519513572054 gnorm: 0.183605610004 xtb: 6.4.1 (a3dbbd7)
C        -1.29770965891222    0.00000000000000    3.53163224767276
C        -0.37107604425475   -1.17478800586359    3.31058196643012
C         0.97979757550459   -0.72157705231961    3.28110534952822
C         0.97979757550459    0.72157705231961    3.28110534952822
C        -0.37107604425475    1.17478800586360    3.31058196643013
C         2.33544184946295   -2.58264348698296    0.58346340581249
C         3.18207169571150   -1.41543014636129    0.58234433372313
C         2.94373959867916   -0.69404060100004    1.80708186552027
C         1.95046398470883   -1.41556779135961    2.56176558167067
C         1.57767488865866   -2.57871801508103    1.80912454278211
C         3.18207169571150    1.41543014636129    0.58234433372313
C         2.33544184946295    2.58264348698296    0.58346340581249
C         1.57767488865866    2.57871801508103    1.80912454278211
C         1.95046398470883    1.41556779135961    2.56176558167066
C         2.94373959867916    0.69404060100004    1.80708186552027
C        -0.36119281684147    3.44519252612879    0.58582996047390
C        -1.73469290191499    3.00153459982720    0.58916793337350
C        -1.97220713510261    2.29308475607878    1.81059639720294
C        -0.73400332666893    2.27691900303500    2.56853480078419
C         0.25309257506893    2.99789064535074    1.80898867763471
C        -3.39649784746455    0.71758744312072    0.57410478167568
C        -3.39649784746455   -0.71758744312072    0.57410478167568
C        -2.77168037603652   -1.14964415915414    1.80664876434809
C        -2.42168465399864    0.00000000000000    2.56054627302143
C        -2.77168037603652    1.14964415915414    1.80664876434809
C        -1.73469290191499   -3.00153459982719    0.58916793337351
C        -0.36119281684148   -3.44519252612879    0.58582996047390
C         0.25309257506893   -2.99789064535073    1.80898867763471
C        -0.73400332666892   -2.27691900303499    2.56853480078419
C        -1.97220713510261   -2.29308475607878    1.81059639720295
C        -0.24585893810850   -3.00970705822685   -1.82232538763502
C         0.74439012833927   -2.28841876480361   -2.57822875384061
C         1.97268106729833   -2.28861170675520   -1.82114897801170
C         1.74031203428013   -3.00832022201671   -0.59623578829480
C         0.36724813466371   -3.45114129717027   -0.59443426078026
C         2.79027372790168   -1.16551010025889   -1.82330670861298
C         2.41077011246349    0.00000000000000   -2.58030971859023
C         2.79027372790168    1.16551010025889   -1.82330670861298
C         3.40598095600767    0.72109250237888   -0.59875668403540
C         3.40598095600767   -0.72109250237888   -0.59875668403540
C         1.97268106729833    2.28861170675520   -1.82114897801170
C         0.74439012833927    2.28841876480360   -2.57822875384062
C        -0.24585893810850    3.00970705822685   -1.82232538763502
C         0.36724813466371    3.45114129717027   -0.59443426078026
C         1.74031203428013    3.00832022201671   -0.59623578829480
C        -1.56847069976934    2.58049680433801   -1.82122736601016
C        -1.94730857051169    1.41533687195356   -2.58360676406823
C        -2.94243160962768    0.69434475341889   -1.82977489504240
C        -3.17479380115303    1.41444285760430   -0.60326970185865
C        -2.32688654321742    2.58113588269429   -0.60086409487791
C        -2.94243160962768   -0.69434475341889   -1.82977489504240
C        -1.94730857051169   -1.41533687195356   -2.58360676406823
C        -1.56847069976934   -2.58049680433801   -1.82122736601016
C        -2.32688654321742   -2.58113588269429   -0.60086409487790
C        -3.17479380115303   -1.41444285760429   -0.60326970185865
C        -0.99138524268633   -0.72097607833148   -3.31029871234527
C        -0.99138524268633    0.72097607833148   -3.31029871234528
C         0.38054100031802    1.16548515734434   -3.30884687187952
C         1.22668597234242    0.00000000000000   -3.30783368151334
C         0.38054100031802   -1.16548515734434   -3.30884687187952
Cl       -1.93737486741132   -0.00000000000005    5.25509316806359
Cl       -3.79774536551790    0.00000000000000    3.73636807848904
62
 energy: -137.572001344480 gnorm: 0.070120607605 xtb: 6.4.1 (a3dbbd7)
C        -1.29305813974811    0.00000000000000    3.56698780990809
C        -0.36725413795503   -1.17110190801703    3.30725137508319
C         0.98440682901471   -0.72076035606697    3.27887654737027
C         0.98440682901471    0.72076035606698    3.27887654737028
C        -0.36725413795503    1.17110190801704    3.30725137508319
C         2.33555129512862   -2.58226786505712    0.58352900051308
C         3.18286663482321   -1.41533373203197    0.58186144922373
C         2.94655930306368   -0.69349782741138    1.80630639065060
C         1.95257937031300   -1.41536228849178    2.56031172535369
C         1.57844255523297   -2.57805457142331    1.80910057203065
C         3.18286663482321    1.41533373203197    0.58186144922373
C         2.33555129512862    2.58226786505712    0.58352900051308
C         1.57844255523297    2.57805457142331    1.80910057203065
C         1.95257937031300    1.41536228849178    2.56031172535368
C         2.94655930306368    0.69349782741138    1.80630639065060
C        -0.36154518200710    3.44490054435495    0.58555513427828
C        -1.73562920119876    3.00702219570431    0.58428782732905
C        -1.96795277517715    2.29059529331271    1.80065573562812
C        -0.73110711881761    2.27356492530903    2.56882172444545
C         0.25257965571515    2.99630975033588    1.80979932370539
C        -3.38161054948258    0.71960353331016    0.56889728699717
C        -3.38161054948258   -0.71960353331016    0.56889728699717
C        -2.75955787218146   -1.16218806046825    1.78508343500908
C        -2.50355170365075    0.00000000000000    2.64164145486180
C        -2.75955787218146    1.16218806046825    1.78508343500907
C        -1.73562920119877   -3.00702219570431    0.58428782732905
C        -0.36154518200710   -3.44490054435495    0.58555513427828
C         0.25257965571515   -2.99630975033587    1.80979932370539
C        -0.73110711881761   -2.27356492530903    2.56882172444545
C        -1.96795277517715   -2.29059529331271    1.80065573562813
C        -0.24573199624785   -3.00927956940277   -1.82281113751062
C         0.74471384627607   -2.28859396929215   -2.57845823277951
C         1.97289024536306   -2.28876176786477   -1.82109419005710
C         1.74030547901478   -3.00791280423707   -0.59627869895259
C         0.36708670128313   -3.45054663172558   -0.59451487683951
C         2.79019668505275   -1.16579074426375   -1.82347597635800
C         2.41044527013302   -0.00000000000000   -2.58040077473785
C         2.79019668505275    1.16579074426375   -1.82347597635800
C         3.40632301788811    0.72107029258816   -0.59927746401208
C         3.40632301788811   -0.72107029258815   -0.59927746401208
C         1.97289024536306    2.28876176786477   -1.82109419005711
C         0.74471384627607    2.28859396929214   -2.57845823277951
C        -0.24573199624785    3.00927956940277   -1.82281113751062
C         0.36708670128313    3.45054663172558   -0.59451487683952
C         1.74030547901478    3.00791280423707   -0.59627869895259
C        -1.56755525915737    2.58098487969315   -1.82402274856279
C        -1.94661356356996    1.41584645575955   -2.58614775890987
C        -2.94149193318637    0.69449071476344   -1.83357676871440
C        -3.17212589953442    1.41919284190440   -0.60949092207078
C        -2.32769816587501    2.58394334479452   -0.60444088775061
C        -2.94149193318637   -0.69449071476345   -1.83357676871440
C        -1.94661356356996   -1.41584645575956   -2.58614775890987
C        -1.56755525915737   -2.58098487969315   -1.82402274856278
C        -2.32769816587502   -2.58394334479452   -0.60444088775060
C        -3.17212589953442   -1.41919284190439   -0.60949092207078
C        -0.99013903019336   -0.72098314148368   -3.31185053137721
C        -0.99013903019336    0.72098314148368   -3.31185053137722
C         0.38104030546833    1.16562084915878   -3.30931843066001
C         1.22745126816664   -0.00000000000000   -3.30822596644161
C         0.38104030546833   -1.16562084915878   -3.30931843066001
Cl       -1.74240934234973   -0.00000000000006    5.35025428288968
Cl       -4.02454756520103    0.00000000000001    3.66810854187200
62
 energy: -137.580952285489 gnorm: 0.018337961712 xtb: 6.4.1 (a3dbbd7)
C        -1.29626066291560    0.00000000000000    3.57969752590502
C        -0.36948133584735   -1.16836674030989    3.30004748122985
C         0.98412117486791   -0.72023168510694    3.27492405545146
C         0.98412117486791    0.72023168510695    3.27492405545146
C        -0.36948133584735    1.16836674030989    3.30004748122985
C         2.33733903462604   -2.58151902723648    0.58130688615325
C         3.18538530113099   -1.41505424713559    0.57974236859942
C         2.94990994807652   -0.69315587809439    1.80445879949684
C         1.95355882981443   -1.41458315018818    2.55758145726198
C         1.58044062984500   -2.57681322213909    1.80653671694005
C         3.18538530113099    1.41505424713559    0.57974236859942
C         2.33733903462603    2.58151902723648    0.58130688615325
C         1.58044062984499    2.57681322213909    1.80653671694005
C         1.95355882981443    1.41458315018818    2.55758145726197
C         2.94990994807652    0.69315587809440    1.80445879949684
C        -0.36009676044397    3.44270781191940    0.58257770813560
C        -1.73314750111527    3.00511761037552    0.57935176674121
C        -1.96577093855582    2.28275984235899    1.79504410349461
C        -0.72830957390658    2.27137034391163    2.56718021803040
C         0.25342314426984    2.99313817868217    1.80745909169240
C        -3.36484149299435    0.72005117607005    0.57331978486810
C        -3.36484149299434   -0.72005117607005    0.57331978486810
C        -2.75767941253535   -1.16764292614602    1.78498777892885
C        -2.58309939492370    0.00000000000000    2.72046188847395
C        -2.75767941253535    1.16764292614603    1.78498777892885
C        -1.73314750111528   -3.00511761037551    0.57935176674122
C        -0.36009676044397   -3.44270781191939    0.58257770813560
C         0.25342314426984   -2.99313817868217    1.80745909169240
C        -0.72830957390658   -2.27137034391162    2.56718021803040
C        -1.96577093855582   -2.28275984235898    1.79504410349462
C        -0.24389980988540   -3.00887619538899   -1.82630369202653
C         0.74690660895938   -2.28840729255205   -2.58142810791599
C         1.97474898043479   -2.28842030837113   -1.82336788889955
C         1.74206475461435   -3.00710366112362   -0.59872409832840
C         0.36876299099907   -3.44953229330033   -0.59729834173535
C         2.79200019908012   -1.16578540412528   -1.82571279342071
C         2.41202430262705   -0.00000000000000   -2.58274633299614
C         2.79200019908012    1.16578540412528   -1.82571279342071
C         3.40847550831926    0.72100134803900   -0.60165941355317
C         3.40847550831926   -0.72100134803900   -0.60165941355316
C         1.97474898043479    2.28842030837113   -1.82336788889955
C         0.74690660895938    2.28840729255205   -2.58142810791599
C        -0.24389980988540    3.00887619538899   -1.82630369202653
C         0.36876299099907    3.44953229330033   -0.59729834173535
C         1.74206475461435    3.00710366112362   -0.59872409832840
C        -1.56552708485555    2.58194682580923   -1.82991949404340
C        -1.94424058044462    1.41584684976073   -2.59082781646666
C        -2.93738653982110    0.69422789546159   -1.83640338015414
C        -3.16433966357015    1.41959424667928   -0.61062596006202
C        -2.32521207691990    2.58374922175036   -0.60882796641644
C        -2.93738653982110   -0.69422789546159   -1.83640338015414
C        -1.94424058044462   -1.41584684976073   -2.59082781646665
C        -1.56552708485555   -2.58194682580924   -1.82991949404340
C        -2.32521207691990   -2.58374922175036   -0.60882796641644
C        -3.16433966357015   -1.41959424667928   -0.61062596006201
C        -0.98720536182478   -0.72094251088781   -3.31669312264026
C        -0.98720536182478    0.72094251088781   -3.31669312264026
C         0.38346834021651    1.16568578266783   -3.31287683975708
C         1.23024057738225   -0.00000000000000   -3.31144514111744
C         0.38346834021651   -1.16568578266783   -3.31287683975708
Cl       -1.72153010556458   -0.00000000000007    5.35512045058112
Cl       -4.11492107621643    0.00000000000002    3.74073616042227
62
 energy: -137.582282777218 gnorm: 0.009358278388 xtb: 6.4.1 (a3dbbd7)
C        -1.30249851273210    0.00000000000000    3.57789540021931
C        -0.37789258071466   -1.16683748718588    3.29242964624727
C         0.97679285566950   -0.71981221996731    3.27053524191294
C         0.97679285566949    0.71981221996732    3.27053524191294
C        -0.37789258071466    1.16683748718590    3.29242964624728
C         2.33644321019232   -2.58132593365928    0.58152985166797
C         3.18527269385965   -1.41526983903315    0.58129448855634
C         2.94777779760931   -0.69315685446302    1.80566984271896
C         1.94871147816993   -1.41403165112074    2.55640988994889
C         1.57701473329875   -2.57603903079719    1.80512177554781
C         3.18527269385965    1.41526983903316    0.58129448855634
C         2.33644321019232    2.58132593365929    0.58152985166796
C         1.57701473329875    2.57603903079719    1.80512177554780
C         1.94871147816993    1.41403165112075    2.55640988994889
C         2.94777779760931    0.69315685446302    1.80566984271896
C        -0.36199093867100    3.43872183736635    0.57960675375827
C        -1.73326335672505    2.99703891350759    0.57605573409757
C        -1.97470402316438    2.27723358012693    1.79467578166231
C        -0.73409542816359    2.27168200381159    2.56519525997240
C         0.24929261053759    2.99078782937774    1.80529351246629
C        -3.36544667459132    0.71964210878581    0.57437227424055
C        -3.36544667459132   -0.71964210878580    0.57437227424055
C        -2.77452605113147   -1.16752103205096    1.79244730903974
C        -2.62243708972525    0.00000000000001    2.74768158232932
C        -2.77452605113147    1.16752103205097    1.79244730903973
C        -1.73326335672505   -2.99703891350759    0.57605573409757
C        -0.36199093867100   -3.43872183736635    0.57960675375827
C         0.24929261053759   -2.99078782937773    1.80529351246629
C        -0.73409542816359   -2.27168200381158    2.56519525997240
C        -1.97470402316438   -2.27723358012692    1.79467578166231
C        -0.24124630753365   -3.00788117336715   -1.82964477313912
C         0.75115789723630   -2.28819744189553   -2.58370796825271
C         1.97777475615457   -2.28819522184497   -1.82352588192279
C         1.74287978402888   -3.00682767318614   -0.59930621635507
C         0.36916710555832   -3.44801140053560   -0.59917280218307
C         2.79545352021938   -1.16582231105578   -1.82475936514127
C         2.41650115132586   -0.00000000000000   -2.58245804448048
C         2.79545352021938    1.16582231105578   -1.82475936514127
C         3.41027603105006    0.72107005944132   -0.59979821660368
C         3.41027603105006   -0.72107005944132   -0.59979821660368
C         1.97777475615457    2.28819522184496   -1.82352588192280
C         0.75115789723630    2.28819744189553   -2.58370796825272
C        -0.24124630753365    3.00788117336715   -1.82964477313913
C         0.36916710555832    3.44801140053559   -0.59917280218307
C         1.74287978402888    3.00682767318614   -0.59930621635508
C        -1.56295201527740    2.58162368501323   -1.83570706849973
C        -1.93993317809176    1.41518636324172   -2.59640145542517
C        -2.93250234867022    0.69357311595939   -1.84078932711247
C        -3.16116580895214    1.41632157732651   -0.61309484113804
C        -2.32275627911587    2.57891331804558   -0.61319592605933
C        -2.93250234867022   -0.69357311595939   -1.84078932711247
C        -1.93993317809176   -1.41518636324172   -2.59640145542517
C        -1.56295201527740   -2.58162368501323   -1.83570706849972
C        -2.32275627911588   -2.57891331804557   -0.61319592605933
C        -3.16116580895214   -1.41632157732650   -0.61309484113804
C        -0.98163976396749   -0.72091608001876   -3.32219404571336
C        -0.98163976396750    0.72091608001875   -3.32219404571336
C         0.38901766335091    1.16570861581547   -3.31623170882417
C         1.23622711665792   -0.00000000000000   -3.31350514908869
C         0.38901766335091   -1.16570861581547   -3.31623170882416
Cl       -1.64655752044440   -0.00000000000014    5.37089319926987
Cl       -4.11368164395586    0.00000000000003    3.80280063529354
62
 energy: -137.582457324968 gnorm: 0.005063041637 xtb: 6.4.1 (a3dbbd7)
C        -1.30421951702781    0.00000000000001    3.57588556317339
C        -0.38143685573098   -1.16637591224116    3.28830100909304
C         0.97375297004321   -0.71962306991074    3.26904545283407
C         0.97375297004320    0.71962306991076    3.26904545283407
C        -0.38143685573099    1.16637591224118    3.28830100909305
C         2.33557607775561   -2.58152987058454    0.58221839327841
C         3.18448267307797   -1.41544560997161    0.58259007352270
C         2.94627873570559   -0.69323782580919    1.80684364934567
C         1.94660471234870   -1.41407146547543    2.55667314284911
C         1.57553395986707   -2.57650818150062    1.80533180792885
C         3.18448267307797    1.41544560997162    0.58259007352269
C         2.33557607775561    2.58152987058454    0.58221839327840
C         1.57553395986706    2.57650818150063    1.80533180792885
C         1.94660471234870    1.41407146547544    2.55667314284911
C         2.94627873570559    0.69323782580920    1.80684364934567
C        -0.36270874749198    3.43717032807544    0.57883913973235
C        -1.73309209334558    2.99339811121557    0.57516712866885
C        -1.97783790987277    2.27536870157818    1.79479136720097
C        -0.73641350739803    2.27353480620904    2.56475143744130
C         0.24793735807841    2.99154208839029    1.80516458801220
C        -3.36626239258559    0.71946341095612    0.57403547418210
C        -3.36626239258559   -0.71946341095611    0.57403547418211
C        -2.78141208441699   -1.16676138788806    1.79593536075238
C        -2.63260905968379    0.00000000000001    2.75330830690769
C        -2.78141208441699    1.16676138788808    1.79593536075238
C        -1.73309209334559   -2.99339811121556    0.57516712866886
C        -0.36270874749199   -3.43717032807543    0.57883913973236
C         0.24793735807841   -2.99154208839028    1.80516458801221
C        -0.73641350739802   -2.27353480620902    2.56475143744131
C        -1.97783790987277   -2.27536870157816    1.79479136720098
C        -0.24037856912495   -3.00753570210419   -1.83057436594415
C         0.75243393637272   -2.28834249419920   -2.58446542002044
C         1.97843267166811   -2.28831694709441   -1.82321521701014
C         1.74281745421828   -3.00710637685394   -0.59908585391526
C         0.36913226432509   -3.44779943083383   -0.59955795836310
C         2.79603312844474   -1.16585562206144   -1.82378517774048
C         2.41734374965150   -0.00000000000000   -2.58169659514654
C         2.79603312844474    1.16585562206143   -1.82378517774048
C         3.41008023011993    0.72111144100759   -0.59835351342773
C         3.41008023011993   -0.72111144100759   -0.59835351342773
C         1.97843267166811    2.28831694709440   -1.82321521701015
C         0.75243393637272    2.28834249419919   -2.58446542002045
C        -0.24037856912495    3.00753570210419   -1.83057436594417
C         0.36913226432509    3.44779943083383   -0.59955795836312
C         1.74281745421828    3.00710637685394   -0.59908585391527
C        -1.56207137118579    2.58165431875148   -1.83775947041094
C        -1.93861278113974    1.41529458515190   -2.59846474610171
C        -2.93049198042228    0.69330950484718   -1.84227394425874
C        -3.15970733975360    1.41460527417270   -0.61406037490702
C        -2.32160899949532    2.57695870120667   -0.61452763275180
C        -2.93049198042228   -0.69330950484718   -1.84227394425873
C        -1.93861278113975   -1.41529458515190   -2.59846474610171
C        -1.56207137118579   -2.58165431875148   -1.83775947041093
C        -2.32160899949532   -2.57695870120666   -0.61452763275179
C        -3.15970733975360   -1.41460527417269   -0.61406037490701
C        -0.98013373281469   -0.72103536111116   -3.32425008884048
C        -0.98013373281469    0.72103536111115   -3.32425008884048
C         0.39054081435179    1.16584487698195   -3.31735215104928
C         1.23776927596687   -0.00000000000001   -3.31393041167789
C         0.39054081435179   -1.16584487698196   -3.31735215104927
Cl       -1.61491605336910   -0.00000000000026    5.37140639987794
Cl       -4.10491737327837    0.00000000000006    3.82062567114135
62
 energy: -137.582492747705 gnorm: 0.002354018748 xtb: 6.4.1 (a3dbbd7)
C        -1.30469224142923    0.00000000000002    3.57593742737500
C        -0.38232689731635   -1.16611502411903    3.28644831191192
C         0.97305818483623   -0.71952914433214    3.26858809728940
C         0.97305818483622    0.71952914433219    3.26858809728941
C        -0.38232689731636    1.16611502411908    3.28644831191195
C         2.33522258624716   -2.58171205509425    0.58260870558305
C         3.18405388517987   -1.41552104815686    0.58308351291744
C         2.94577089102488   -0.69329801575562    1.80730890053440
C         1.94618657841907   -1.41420705036952    2.55694329874900
C         1.57526033181583   -2.57697948645845    1.80566312442518
C         3.18405388517987    1.41552104815686    0.58308351291743
C         2.33522258624716    2.58171205509427    0.58260870558303
C         1.57526033181583    2.57697948645847    1.80566312442516
C         1.94618657841907    1.41420705036955    2.55694329874899
C         2.94577089102487    0.69329801575564    1.80730890053440
C        -0.36286053685307    3.43690379899462    0.57888865231531
C        -1.73296587423745    2.99240766151628    0.57512431737545
C        -1.97797863728682    2.27475158145676    1.79468560236203
C        -0.73679925105724    2.27474357895705    2.56494348560827
C         0.24782836187175    2.99250487325967    1.80548863310627
C        -3.36607666641916    0.71945936342807    0.57378221396242
C        -3.36607666641917   -0.71945936342805    0.57378221396243
C        -2.78226417780601   -1.16625123414489    1.79673509732273
C        -2.63394482629374    0.00000000000003    2.75390293363709
C        -2.78226417780600    1.16625123414493    1.79673509732272
C        -1.73296587423746   -2.99240766151625    0.57512431737548
C        -0.36286053685307   -3.43690379899461    0.57888865231534
C         0.24782836187175   -2.99250487325964    1.80548863310629
C        -0.73679925105724   -2.27474357895702    2.56494348560827
C        -1.97797863728683   -2.27475158145672    1.79468560236205
C        -0.24032005315532   -3.00743884002014   -1.83054497357169
C         0.75250738874812   -2.28844232474114   -2.58445867576487
C         1.97835022043131   -2.28841945561469   -1.82295569112488
C         1.74264207527402   -3.00736620316737   -0.59883755611381
C         0.36903518012982   -3.44799359158984   -0.59946329982596
C         2.79579554272364   -1.16586240122995   -1.82330447016852
C         2.41710693131154   -0.00000000000001   -2.58121997870156
C         2.79579554272365    1.16586240122994   -1.82330447016854
C         3.40967425466381    0.72111370136171   -0.59778016045717
C         3.40967425466381   -0.72111370136171   -0.59778016045716
C         1.97835022043131    2.28841945561468   -1.82295569112490
C         0.75250738874812    2.28844232474112   -2.58445867576489
C        -0.24032005315532    3.00743884002013   -1.83054497357172
C         0.36903518012983    3.44799359158985   -0.59946329982599
C         1.74264207527402    3.00736620316738   -0.59883755611383
C        -1.56201696794757    2.58177744884805   -1.83812186363365
C        -1.93857573506666    1.41549506014937   -2.59879418256842
C        -2.93016663590456    0.69327302401825   -1.84242711801554
C        -3.15922307283942    1.41410750345795   -0.61417195392922
C        -2.32138966344725    2.57670164186326   -0.61466795659631
C        -2.93016663590456   -0.69327302401825   -1.84242711801553
C        -1.93857573506667   -1.41549506014938   -2.59879418256841
C        -1.56201696794758   -2.58177744884806   -1.83812186363363
C        -2.32138966344725   -2.57670164186325   -0.61466795659629
C        -3.15922307283943   -1.41410750345793   -0.61417195392921
C        -0.98012882185292   -0.72111026423985   -3.32453540664548
C        -0.98012882185292    0.72111026423983   -3.32453540664548
C         0.39054397439722    1.16589116726432   -3.31737225002740
C         1.23775376188128   -0.00000000000001   -3.31379062898130
C         0.39054397439722   -1.16589116726434   -3.31737225002739
Cl       -1.60749949579203   -0.00000000000050    5.36752882882664
Cl       -4.10100879336659    0.00000000000012    3.82145178228168
62
 energy: -137.582501114132 gnorm: 0.000866581646 xtb: 6.4.1 (a3dbbd7)
C        -1.30503196587087    0.00000000000004    3.57696437183145
C        -0.38229628808376   -1.16602041693722    3.28582708426992
C         0.97304825641966   -0.71950285598524    3.26842668937818
C         0.97304825641965    0.71950285598534    3.26842668937820
C        -0.38229628808378    1.16602041693733    3.28582708426999
C         2.33517608375591   -2.58181371936877    0.58273289075186
C         3.18394298474693   -1.41554198430020    0.58316899836729
C         2.94568342786267   -0.69332718628656    1.80738039081832
C         1.94625000071061   -1.41430412284910    2.55699901012812
C         1.57531561621698   -2.57719338070095    1.80578023612313
C         3.18394298474692    1.41554198430022    0.58316899836727
C         2.33517608375591    2.58181371936879    0.58273289075182
C         1.57531561621699    2.57719338070100    1.80578023612310
C         1.94625000071060    1.41430412284916    2.55699901012811
C         2.94568342786266    0.69332718628661    1.80738039081832
C        -0.36287323227961    3.43705240717959    0.57902348565199
C        -1.73297778755340    2.99243277144057    0.57521042401650
C        -1.97757654468491    2.27469544290996    1.79454667333411
C        -0.73669320295639    2.27518801360508    2.56516553313661
C         0.24794785812759    2.99296217747857    1.80565330492475
C        -3.36586862949810    0.71951594662618    0.57372352427951
C        -3.36586862949811   -0.71951594662613    0.57372352427952
C        -2.78155064412562   -1.16608323921763    1.79661782175945
C        -2.63347357592848    0.00000000000005    2.75356684618474
C        -2.78155064412561    1.16608323921772    1.79661782175942
C        -1.73297778755342   -2.99243277144052    0.57521042401655
C        -0.36287323227963   -3.43705240717955    0.57902348565205
C         0.24794785812759   -2.99296217747852    1.80565330492478
C        -0.73669320295639   -2.27518801360500    2.56516553313661
C        -1.97757654468492   -2.27469544290988    1.79454667333415
C        -0.24042650705298   -3.00741426783054   -1.83036878532732
C         0.75237688965056   -2.28845588719908   -2.58427720766029
C         1.97824351076382   -2.28845113349158   -1.82282481244776
C         1.74256822461960   -3.00749461304121   -0.59871894405119
C         0.36898612606682   -3.44816070153830   -0.59935433070418
C         2.79561213566625   -1.16585937020191   -1.82314881505844
C         2.41690375118169   -0.00000000000002   -2.58103350943790
C         2.79561213566625    1.16585937020188   -1.82314881505846
C         3.40951604231589    0.72110522590009   -0.59764957993663
C         3.40951604231589   -0.72110522590009   -0.59764957993662
C         1.97824351076383    2.28845113349155   -1.82282481244780
C         0.75237688965057    2.28845588719905   -2.58427720766033
C        -0.24042650705297    3.00741426783053   -1.83036878532737
C         0.36898612606683    3.44816070153830   -0.59935433070424
C         1.74256822461961    3.00749461304121   -0.59871894405124
C        -1.56214078461959    2.58182980929633   -1.83800605591632
C        -1.93875576309357    1.41556850640130   -2.59862880638663
C        -2.93036641295988    0.69329916507410   -1.84227701784991
C        -3.15925925661165    1.41411789366595   -0.61407327498025
C        -2.32151782595934    2.57692962596183   -0.61457607066914
C        -2.93036641295988   -0.69329916507409   -1.84227701784990
C        -1.93875576309357   -1.41556850640132   -2.59862880638660
C        -1.56214078461960   -2.58182980929633   -1.83800605591628
C        -2.32151782595935   -2.57692962596181   -0.61457607066910
C        -3.15925925661166   -1.41411789366592   -0.61407327498023
C        -0.98030712064068   -0.72112311772713   -3.32430939435292
C        -0.98030712064068    0.72112311772710   -3.32430939435293
C         0.39035235712251    1.16587532968967   -3.31714643764137
C         1.23756929170882   -0.00000000000002   -3.31360427755064
C         0.39035235712251   -1.16587532968971   -3.31714643764135
Cl       -1.60776742619764   -0.00000000000103    5.36474429282362
Cl       -4.09963083728897    0.00000000000026    3.81909236271134
62
 energy: -137.582502207308 gnorm: 0.000255656544 xtb: 6.4.1 (a3dbbd7)
C        -1.30526216968208    0.00000000000008    3.57795768278634
C        -0.38199360744806   -1.16611278029570    3.28605602507948
C         0.97317284741777   -0.71952313159748    3.26845503340180
C         0.97317284741775    0.71952313159771    3.26845503340183
C        -0.38199360744811    1.16611278029594    3.28605602507965