62
 energy: -137.481480989588 gnorm: 0.188968562938 xtb: 6.4.1 (a3dbbd7)
C        -1.23626340000000    0.00000000000000    3.32997640000000
C        -0.38202640000000   -1.17575640000000    3.32997640000000
C         1.00015810000000   -0.72665740000000    3.32997640000000
C         1.00015810000000    0.72665740000000    3.32997640000000
C        -0.38202640000000    1.17575640000000    3.32997640000000
C         2.34433560000000   -2.60145750000000    0.59464210000000
C         3.19857260000000   -1.42570110000000    0.59464210000000
C         2.96246730000000   -0.69904370000000    1.83090550000000
C         1.96230920000000   -1.42570110000000    2.59495830000000
C         1.58028280000000   -2.60145750000000    1.83090550000000
C         3.19857260000000    1.42570110000000    0.59464210000000
C         2.34433560000000    2.60145750000000    0.59464210000000
C         1.58028280000000    2.60145750000000    1.83090550000000
C         1.96230920000000    1.42570110000000    2.59495830000000
C         2.96246730000000    0.69904370000000    1.83090550000000
C        -0.36750900000000    3.48258920000000    0.59464210000000
C        -1.74969350000000    3.03349030000000    0.59464210000000
C        -1.98579880000000    2.30683290000000    1.83090550000000
C        -0.74953540000000    2.30683290000000    2.59495830000000
C         0.25062270000000    3.03349030000000    1.83090550000000
C        -3.42570570000000    0.72665740000000    0.59464210000000
C        -3.42570570000000   -0.72665740000000    0.59464210000000
C        -2.80757400000000   -1.17575640000000    1.83090550000000
C        -2.42554760000000    0.00000000000000    2.59495830000000
C        -2.80757400000000    1.17575640000000    1.83090550000000
C        -1.74969350000000   -3.03349030000000    0.59464210000000
C        -0.36750900000000   -3.48258920000000    0.59464210000000
C         0.25062270000000   -3.03349030000000    1.83090550000000
C        -0.74953540000000   -2.30683290000000    2.59495830000000
C        -1.98579880000000   -2.30683290000000    1.83090550000000
C        -0.25062270000000   -3.03349030000000   -1.83090550000000
C         0.74953540000000   -2.30683290000000   -2.59495830000000
C         1.98579880000000   -2.30683290000000   -1.83090550000000
C         1.74969350000000   -3.03349030000000   -0.59464210000000
C         0.36750900000000   -3.48258920000000   -0.59464210000000
C         2.80757400000000   -1.17575640000000   -1.83090550000000
C         2.42554760000000    0.00000000000000   -2.59495830000000
C         2.80757400000000    1.17575640000000   -1.83090550000000
C         3.42570570000000    0.72665740000000   -0.59464210000000
C         3.42570570000000   -0.72665740000000   -0.59464210000000
C         1.98579880000000    2.30683290000000   -1.83090550000000
C         0.74953540000000    2.30683290000000   -2.59495830000000
C        -0.25062270000000    3.03349030000000   -1.83090550000000
C         0.36750900000000    3.48258920000000   -0.59464210000000
C         1.74969350000000    3.03349030000000   -0.59464210000000
C        -1.58028280000000    2.60145750000000   -1.83090550000000
C        -1.96230920000000    1.42570110000000   -2.59495830000000
C        -2.96246730000000    0.69904370000000   -1.83090550000000
C        -3.19857260000000    1.42570110000000   -0.59464210000000
C        -2.34433560000000    2.60145750000000   -0.59464210000000
C        -2.96246730000000   -0.69904370000000   -1.83090550000000
C        -1.96230920000000   -1.42570110000000   -2.59495830000000
C        -1.58028280000000   -2.60145750000000   -1.83090550000000
C        -2.34433560000000   -2.60145750000000   -0.59464210000000
C        -3.19857260000000   -1.42570110000000   -0.59464210000000
C        -1.00015810000000   -0.72665740000000   -3.32997640000000
C        -1.00015810000000    0.72665740000000   -3.32997640000000
C         0.38202640000000    1.17575640000000   -3.32997640000000
C         1.23626340000000    0.00000000000000   -3.32997640000000
C         0.38202640000000   -1.17575640000000   -3.32997640000000
Cl       -1.84886636902500    0.00000000000000    5.03315507598844
Cl        2.98448910038358   -3.49508763763196   -2.76190945402757
62
 energy: -137.525204216436 gnorm: 0.109259106327 xtb: 6.4.1 (a3dbbd7)
C        -1.25162637611917   -0.00069129953659    3.35661581135758
C        -0.36671427463056   -1.18387944686884    3.32842976196100
C         0.99871253268480   -0.72713487930032    3.31500446658353
C         0.99824801579311    0.72296614826894    3.31547773984503
C        -0.36372671228825    1.18074688717790    3.32948885191804
C         2.32608487316211   -2.58408143593406    0.59703140844572
C         3.18648851243619   -1.41289868865105    0.58906089666762
C         2.95169758342888   -0.69730692642041    1.81609310706513
C         1.95853865258849   -1.42334051985165    2.58264539496223
C         1.57577581467107   -2.58798101283140    1.82791569187142
C         3.18589893202946    1.42537867291958    0.59180682237692
C         2.33694385375216    2.59375465373246    0.59355754435739
C         1.57987447992755    2.59108227672753    1.82500531425498
C         1.96142572806033    1.42129350409900    2.58379491370588
C         2.94969347666059    0.69796891547652    1.82128436052875
C        -0.36064432355842    3.46478309033185    0.59476479246745
C        -1.73729190838311    3.01811390552257    0.59491726381286
C        -1.96933536288645    2.29555409180625    1.81891497303168
C        -0.73510605190947    2.29351429708033    2.58279522200589
C         0.25714835130305    3.02178529139462    1.82539754412949
C        -3.42104729364073    0.72482182692817    0.57815044399701
C        -3.42345257515987   -0.72165852133742    0.57825046100539
C        -2.79916539270870   -1.16612183667807    1.80414366107668
C        -2.43305169434794    0.00132148616780    2.54340156811526
C        -2.79483485493584    1.16677980565559    1.80480325863044
C        -1.74555216601205   -3.01630736945272    0.59787679775918
C        -0.36745971986421   -3.45995497093957    0.60079030013367
C         0.25012944730255   -3.02328765960257    1.82825942323077
C        -0.73949280454329   -2.29408040800248    2.58308160324009
C        -1.97897043916539   -2.29502260858200    1.81914601081297
C        -0.25472253430583   -3.01827336118188   -1.81784625165885
C         0.72862494079173   -2.30766846481410   -2.58141677772115
C         2.02643564991049   -2.34681021599695   -1.86376097847954
C         1.72792963900794   -3.00855426883983   -0.57335365287360
C         0.36284436192404   -3.46170455634369   -0.58431053177773
C         2.81321292753247   -1.14068702392714   -1.83783512306272
C         2.41199971378585    0.01185484206455   -2.57935243757629
C         2.79796713643797    1.18514366301518   -1.82390903466979
C         3.40885671601114    0.73670687960927   -0.59330172595719
C         3.40673345072372   -0.70949551260112   -0.59984336903106
C         1.97725205045084    2.30409109137658   -1.82113371372502
C         0.74246058644048    2.29860905244985   -2.58053055230913
C        -0.24731241867632    3.01998163147014   -1.82135630906289
C         0.36773121381402    3.46629533454752   -0.58944188817080
C         1.74356398183054    3.02282796461038   -0.58962550124475
C        -1.57497324897575    2.59011304721664   -1.81989759636362
C        -1.95507559985382    1.41962629044151   -2.58191299332735
C        -2.95282414202699    0.69664187528938   -1.82572151395756
C        -3.18838728109395    1.42137401554305   -0.59862234276662
C        -2.33136858080156    2.59107825223516   -0.59355683419807
C        -2.95471309442022   -0.69508114878449   -1.82535883989988
C        -1.96009580462433   -1.42129739406274   -2.58104343818239
C        -1.58294742249962   -2.59020286539813   -1.81878521250969
C        -2.33777377570123   -2.58756735344703   -0.59135465213901
C        -3.19334499233365   -1.41927559139269   -0.59871030398140
C        -1.00156048213628   -0.72450908590780   -3.30809451449397
C        -0.99986778680939    0.72164776965849   -3.31221698148177
C         0.37696277526761    1.16783047633393   -3.31214216391544
C         1.22199418829299    0.00094625170490   -3.31178927160529
C         0.37140828206788   -1.17488654093557   -3.30821819113833
Cl       -1.88621438166625   -0.00384374210781    5.10071878975599
Cl        3.04163835934717   -3.56611621875746   -2.81293587986426
62
 energy: -137.544986810606 gnorm: 0.054878045860 xtb: 6.4.1 (a3dbbd7)
C        -1.28818962333297    0.00006670651749    3.47667366236898
C        -0.35343207201377   -1.18156442588007    3.28431380229887
C         0.99017045731624   -0.72431306495612    3.27894777993057
C         0.98821211998792    0.72052035086865    3.27954251740634
C        -0.34781018268161    1.17841215459961    3.28502693064754
C         2.30896032703485   -2.56877786855318    0.59487574866773
C         3.17968691039586   -1.40247007810595    0.59245632532017
C         2.94406550959292   -0.69536689440387    1.80285878668882
C         1.95371422810882   -1.42369772302371    2.56494626734630
C         1.57211782164969   -2.58001807743975    1.82170568989028
C         3.17768852087612    1.42856062417802    0.59051513324499
C         2.33182778282687    2.59018852743213    0.59008575354680
C         1.57727598401407    2.58554124129424    1.81391100743868
C         1.95999450787771    1.42150116424983    2.56528899826197
C         2.93798537437470    0.70056302074207    1.81271820205972
C        -0.35844922656749    3.45199932546817    0.58681782403540
C        -1.72988381100903    3.00281696789696    0.59183250168993
C        -1.96064361256112    2.29017457293312    1.80549125960855
C        -0.72660993539732    2.28039961638264    2.55269018787543
C         0.25903941466159    3.01319620296039    1.80949640647104
C        -3.41178300612102    0.72026213428190    0.56916528361426
C        -3.41344944469946   -0.71734858018750    0.56921625613095
C        -2.78184012967530   -1.15110750542189    1.79069515589698
C        -2.43731947880736    0.00326584958588    2.52253770314080
C        -2.77597343471677    1.15029976803521    1.79255058080937
C        -1.74254112071115   -3.00195490015344    0.59935497498237
C        -0.36816108703137   -3.44886744913873    0.60407156287576
C         0.24643059346415   -3.01724397651664    1.81813584523112
C        -0.73188295872641   -2.28001493232623    2.55687627789927
C        -1.97810059922582   -2.29077965705187    1.80716128626132
C        -0.25160995905751   -2.98438948332462   -1.80670513380973
C         0.70576889119778   -2.27991918270039   -2.56343738793455
C         2.08107169045547   -2.42486267633114   -1.91880717197934
C         1.71045304356435   -2.99318615101261   -0.55710015368243
C         0.36150055167354   -3.43052304436047   -0.57617899662214
C         2.80077448746063   -1.11163708205797   -1.81546546125805
C         2.39973716090459    0.01081875555224   -2.54967074035276
C         2.78903551949151    1.18843597580144   -1.80928480116065
C         3.39937058766949    0.74362091494416   -0.58696600829422
C         3.38211817847854   -0.69770989298651   -0.59416863326728
C         1.97033150853631    2.29785868025277   -1.80996584541751
C         0.73708239842570    2.29334809864722   -2.56806130466636
C        -0.24325192490726    3.00630892141707   -1.81728205575254
C         0.36700801924349    3.45332585961322   -0.59009089304067
C         1.73826708343934    3.01570921068225   -0.58786865118991
C        -1.57227561637000    2.57866777983169   -1.81100469993707
C        -1.94884527786373    1.41349870508694   -2.57136347388066
C        -2.94447671867638    0.69322548869320   -1.82194197668107
C        -3.17707191561060    1.41216184856487   -0.60002575718222
C        -2.32109744417328    2.57977959267970   -0.59769171330876
C        -2.94932926530699   -0.69268465065652   -1.82290674975697
C        -1.95840511637509   -1.41408853528899   -2.57434986979668
C        -1.58500551188199   -2.57443094329654   -1.81305029559888
C        -2.32938786148027   -2.57459290503465   -0.59400576035342
C        -3.18425593727467   -1.41197793114484   -0.60121706509933
C        -1.00355547952849   -0.71713388325228   -3.29636419153058
C        -0.99726626557860    0.72047904578737   -3.29676925477609
C         0.37723840482525    1.16089772980257   -3.29689297474517
C         1.21535570846961    0.00685769766629   -3.29842024280000
C         0.36306680168294   -1.15792743526887   -3.28354953452749
Cl       -1.93467958312571   -0.00162019067129    5.25565924197476
Cl        3.11685674414707   -3.65764104953464   -2.88376653325164
62
 energy: -137.548455719157 gnorm: 0.027226510251 xtb: 6.4.1 (a3dbbd7)
C        -1.29277440541852    0.00184896894882    3.49130978775089
C        -0.36788101193475   -1.17829122548953    3.30998526118396
C         0.98209601859202   -0.72224221297569    3.28474115563239
C         0.98042679802006    0.72224225703659    3.28672138698828
C        -0.36222343121094    1.17884254228706    3.31085622883594
C         2.31794172752551   -2.57394248136617    0.58464259532855
C         3.18350017736602   -1.40397577757087    0.58657644150880
C         2.94254481078761   -0.69303634834350    1.79937585296252
C         1.94746402573032   -1.41660146107911    2.56179274589086
C         1.56965777117073   -2.57161555293128    1.81150806911410
C         3.17856172934424    1.42910856043311    0.58788519385886
C         2.33494471854533    2.59528728403081    0.59048853262695
C         1.57662707757038    2.58648086412294    1.81545378923129
C         1.95410360939649    1.41961655463936    2.56611398178665
C         2.93764133244837    0.70222216802452    1.81159614928651
C        -0.35918775652397    3.45223622726287    0.58880009149907
C        -1.73117905513352    3.00319407421618    0.59353435009328
C        -1.96355295197675    2.29172155789830    1.81132149564642
C        -0.73360813996613    2.28130587617841    2.56728023366116
C         0.25570194698354    3.00753555661766    1.81274426327908
C        -3.40987661824508    0.72277437112709    0.57362171335927
C        -3.41322707050762   -0.71553719489989    0.57379712905703
C        -2.78565994228216   -1.14903657434197    1.80127925965651
C        -2.43546285547626    0.00507692173854    2.54418785918624
C        -2.77819704626263    1.15285006386899    1.80308051070627
C        -1.74303227585018   -2.99706377716384    0.59867524432692
C        -0.36632274680984   -3.44046752755160    0.59877356644803
C         0.24320384215384   -3.00316502096672    1.81535353019402
C        -0.73986542193447   -2.27708983901980    2.57053802457404
C        -1.98178589131564   -2.28790815544801    1.81221476789637
C        -0.24420791526146   -2.98670229412446   -1.81246292956837
C         0.72527858713910   -2.29595758251325   -2.57993444844566
C         2.08808905799624   -2.43332480645522   -1.92870603867007
C         1.72891938786538   -3.00834520822151   -0.57626448654248
C         0.36875808800105   -3.43042710111034   -0.58193433898668
C         2.80652840012432   -1.13148019921753   -1.82730040001001
C         2.40348875357293    0.00277627385739   -2.55844416560530
C         2.78789290483967    1.18421514079658   -1.81434765919533
C         3.39973366355851    0.73980747286801   -0.59186893353564
C         3.38767239764538   -0.70500271196951   -0.60303600681948
C         1.97081999922593    2.29848148514830   -1.81224323877691
C         0.73727881816841    2.29450220749545   -2.57016257810124
C        -0.24392250511335    3.00954154586004   -1.81838711543518
C         0.36714602691338    3.45712615204008   -0.58991229816485
C         1.74064799802339    3.02089288432224   -0.58924007595652
C        -1.57316021175025    2.58161363827431   -1.81286228857745
C        -1.95061385164628    1.41541156486833   -2.57450928070190
C        -2.94921689519697    0.69558909557068   -1.82518582538948
C        -3.17841697899096    1.41438150874075   -0.59978391868415
C        -2.32252884655557    2.58234386696985   -0.59731496644360
C        -2.95428396641639   -0.69235031034773   -1.82645992456032
C        -1.95772309570188   -1.41432614918316   -2.57539239812965
C        -1.57925664039657   -2.57324219988561   -1.81322297684668
C        -2.33024381482190   -2.57295117115188   -0.59477099418522
C        -3.18698620483880   -1.41073299576363   -0.60099283262234
C        -0.99776864853194   -0.71960740101039   -3.29413882516263
C        -0.99652149422169    0.72001679090413   -3.29803049016813
C         0.37831624954449    1.16037313575203   -3.29790269815167
C         1.21809442792990    0.00341418360588   -3.30379621031794
C         0.37206707452936   -1.16671158457358   -3.29241250596952
Cl       -1.94185124555070    0.00050499690938    5.25571122898423
Cl        3.12101424648986   -3.65728856537088   -2.88769396886921
62
 energy: -137.549467877965 gnorm: 0.016329829765 xtb: 6.4.1 (a3dbbd7)
C        -1.29894434566074    0.00275753222338    3.51464317004395
C        -0.37667294788999   -1.17511058866066    3.31845637120085
C         0.97582988025829   -0.72104449474192    3.28277730040286
C         0.97421902034112    0.72290496993796    3.28556457308417
C        -0.37078986504869    1.17758148156904    3.31902407622432
C         2.32140835254348   -2.57599018256293    0.57861477954185
C         3.18691434046634   -1.40583192673369    0.58632503839497
C         2.94159783647649   -0.69221516129864    1.79789486035245
C         1.94252528023638   -1.41263244866018    2.55749770206420
C         1.56746605420651   -2.56761907970072    1.80470453680809
C         3.17916738382012    1.42941320261423    0.58668472912791
C         2.33697333070728    2.59754673425146    0.58948002238346
C         1.57635223778943    2.58703585044837    1.81474086642583
C         1.95015374879602    1.41809885211772    2.56431540303773
C         2.93621211291122    0.70270488105125    1.81062009785834
C        -0.35966001652555    3.45120104374303    0.58804371506692
C        -1.73224658102412    3.00346210359118    0.59334817750309
C        -1.96546849916404    2.29361620623631    1.81303591895674
C        -0.73704363513861    2.28070708001752    2.57128207320427
C         0.25422832048567    3.00340153287322    1.81219327369733
C        -3.40568273178119    0.72289345379056    0.57664831815313
C        -3.40953258115408   -0.71466758739044    0.57700506392265
C        -2.78511074097885   -1.14805662124146    1.80853029732293
C        -2.43027184859888    0.00552431189993    2.55611188507194
C        -2.77664467051912    1.15243943199427    1.81000236154957
C        -1.74293808959782   -2.99471300227894    0.59818423699296
C        -0.36516823646150   -3.43510733870004    0.59561415240728
C         0.24132304998849   -2.99492113245235    1.81281778163908
C        -0.74387367338533   -2.27467007916268    2.57554055117644
C        -1.98464482401966   -2.28936374025700    1.81489466711294
C        -0.23918584562514   -2.98374588361970   -1.81432394062710
C         0.73594314974147   -2.30063572673522   -2.58688292649108
C         2.09582199382949   -2.44543670772502   -1.93871108916488
C         1.73964006312127   -3.01669917102419   -0.58719545776999
C         0.37322910175943   -3.42694654243980   -0.58415600637712
C         2.80364605080222   -1.14193737127626   -1.82725271690453
C         2.40403232967739   -0.00374659130334   -2.55974689711033
C         2.78566125293668    1.18032193738653   -1.81462124761408
C         3.39879979233291    0.73671055622217   -0.59306666829493
C         3.38873505874288   -0.71030897773555   -0.60540770744053
C         1.97131568826565    2.29806099865693   -1.81343950787146
C         0.73732376339967    2.29565727306759   -2.57149917439260
C        -0.24421977799859    3.01147536244863   -1.82013825656790
C         0.36736649803978    3.45921028507544   -0.59120784791203
C         1.74197858680558    3.02297625788176   -0.59110992587289
C        -1.57402395868660    2.58354224790095   -1.81419234356901
C        -1.95182160202869    1.41663968216524   -2.57594595695580
C        -2.95138737407268    0.69692265517338   -1.82578687243877
C        -3.17863680041435    1.41486888699857   -0.59891203722955
C        -2.32327862095972    2.58370020839435   -0.59804336970639
C        -2.95694185335339   -0.69199265543145   -1.82741616008899
C        -1.95765467254249   -1.41374725680938   -2.57584997556995
C        -1.57538202962015   -2.57113440296049   -1.81277713745274
C        -2.32914707577181   -2.57148360507317   -0.59536388287401
C        -3.18732263231162   -1.40992322184827   -0.60035020644555
C        -0.99522114428197   -0.72034974043744   -3.29237920493888
C        -0.99565115885191    0.72012413545603   -3.29715802306439
C         0.37921270732764    1.16073253829161   -3.29846785700359
C         1.21940849788861    0.00303684038491   -3.30642618306604
C         0.37613116446030   -1.16875098368883   -3.29422188937884
Cl       -1.94995345856251    0.00391721813529    5.26366431912975
Cl        3.12752737523054   -3.65549116768093   -2.89496422770318
62
 energy: -137.549857912308 gnorm: 0.009309644862 xtb: 6.4.1 (a3dbbd7)
C        -1.30225867119766    0.00291209149101    3.53035745906952
C        -0.38002525839946   -1.17326512630154    3.31665828293798
C         0.97336527714813   -0.72099675782952    3.27945481016286
C         0.97169124694715    0.72288481849415    3.28222011686582
C        -0.37389670861519    1.17595952986444    3.31693240660778
C         2.32192742423962   -2.57659286504070    0.57709242486918
C         3.18906310342240   -1.40744308151675    0.58860898009586
C         2.94216101562932   -0.69259553751381    1.79892420932267
C         1.94094058353218   -1.41196007205705    2.55572189263193
C         1.56666050519683   -2.56787839706663    1.80256326695296
C         3.18002573310878    1.42964189344101    0.58669352033923
C         2.33811167170859    2.59806604119043    0.58859668422160
C         1.57647711151829    2.58755722431141    1.81379348887139
C         1.94903369220503    1.41747364104458    2.56287598404732
C         2.93586042288558    0.70250225060518    1.81068810504560
C        -0.35996823906901    3.45109996975122    0.58697010514488
C        -1.73308319973446    3.00450742676660    0.59273289821445
C        -1.96660375219081    2.29539968293997    1.81298308706197
C        -0.73792529272447    2.28060160015602    2.57058556439667
C         0.25405051246465    3.00201171566099    1.81088235906623
C        -3.40243468747242    0.72205815001545    0.57808653598188
C        -3.40637851249092   -0.71462423920912    0.57853986702760
C        -2.78320690589289   -1.14804831951239    1.81168964500672
C        -2.42504812091098    0.00519006937511    2.55992638771161
C        -2.77453968837958    1.15138741392649    1.81310770516148
C        -1.74322404448634   -2.99572941496843    0.59789371859220
C        -0.36517317756740   -3.43487258001926    0.59470326651413
C         0.24084969804238   -2.99309045676304    1.81188817227680
C        -0.74507781729168   -2.27454435245209    2.57597766790262
C        -1.98616929786163   -2.29233268762259    1.81570426264042
C        -0.23762328285668   -2.98102351823229   -1.81414095649415
C         0.73902913724855   -2.29883452275123   -2.58716081748073
C         2.09892891220428   -2.45203485698157   -1.94333234641941
C         1.74298102531043   -3.01927826360596   -0.59044854012423
C         0.37442368224828   -3.42490936797000   -0.58411652875708
C         2.79767041324114   -1.14522298738561   -1.82211053023543
C         2.40308248332955   -0.00694576676569   -2.55814155798025
C         2.78438931271820    1.17824811757369   -1.81337902067536
C         3.39853897008388    0.73538922890565   -0.59266449028192
C         3.38783672117601   -0.71262599862828   -0.60416424190507
C         1.97179592325774    2.29770923465727   -1.81403794965099
C         0.73738768804561    2.29646748320548   -2.57253739934345
C        -0.24429126100930    3.01244959595739   -1.82141945349058
C         0.36753626357945    3.46039269789456   -0.59229179982889
C         1.74250797984267    3.02323550827379   -0.59222156775463
C        -1.57446291716134    2.58443548115186   -1.81507732471794
C        -1.95247715178310    1.41716097276577   -2.57686044517300
C        -2.95162680929813    0.69712444799634   -1.82528720936246
C        -3.17840202776994    1.41464357329048   -0.59821815871707
C        -2.32359891210509    2.58445707374696   -0.59876159254391
C        -2.95776850038774   -0.69209958741874   -1.82712352517720
C        -1.95797102640894   -1.41340695012453   -2.57632521446466
C        -1.57422222484996   -2.57052800118787   -1.81283077585638
C        -2.32838188576594   -2.57172058440038   -0.59573228010330
C        -3.18700859276441   -1.41007787941040   -0.59982736619377
C        -0.99513199064115   -0.72036246957156   -3.29250293265822
C        -0.99540025162075    0.72053495244750   -3.29718015820610
C         0.37948788052780    1.16158035322159   -3.29965628263151
C         1.21969846051545    0.00386503988300   -3.30762034992304
C         0.37658678096091   -1.16781584130490   -3.29374126704801
Cl       -1.95236338993972    0.00695034884372    5.26379657817756
Cl        3.12926669766674   -3.64812478286910   -2.89649174775933
62
 energy: -137.549986449964 gnorm: 0.004666540439 xtb: 6.4.1 (a3dbbd7)
C        -1.30308926430331    0.00281936504769    3.53599641246895
C        -0.37994749316817   -1.17283103635477    3.31232559374742
C         0.97336303670923   -0.72144390901204    3.27756813473722
C         0.97163142187807    0.72262649728119    3.27998074086490
C        -0.37360742980037    1.17506494096203    3.31231444451432
C         2.32145497534889   -2.57678292752301    0.57793100422655
C         3.18958864774336   -1.40825136420136    0.59036112059005
C         2.94294345862863   -0.69336385043817    1.80029444609915
C         1.94135857825566   -1.41294177323501    2.55598918931835
C         1.56683901891452   -2.56961158518046    1.80319908422841
C         3.18050362418043    1.42958607636489    0.58708887703846
C         2.33835757582294    2.59770560908161    0.58832945106330
C         1.57654685215983    2.58774400413788    1.81327518873016
C         1.94939061125950    1.41743007675591    2.56231440779989
C         2.93616006683068    0.70208661524838    1.81109425235996
C        -0.36008995434909    3.45156056947506    0.58650071177979
C        -1.73345267926538    3.00535821099578    0.59247202954741
C        -1.96706600439297    2.29633135651018    1.81257783164382
C        -0.73765837969250    2.28104824509526    2.56914986031843
C         0.25428904906655    3.00233740225915    1.81010925988162
C        -3.40145114409241    0.72145319169197    0.57827790783133
C        -3.40527924181216   -0.71479154394330    0.57877002028038
C        -2.78193291371873   -1.14813757869153    1.81178357540195
C        -2.42278974787848    0.00489926068921    2.55907799924083
C        -2.77351331859137    1.15075649445527    1.81332270875509
C        -1.74357092213518   -2.99742872448005    0.59801437945607
C        -0.36556272190869   -3.43690392905943    0.59524233024990
C         0.24107374967179   -2.99445558227141    1.81214212289698
C        -0.74487144266782   -2.27553164697255    2.57507076650514
C        -1.98655174801791   -2.29403658887622    1.81555988519289
C        -0.23799860758147   -2.97999059381685   -1.81316629693179
C         0.73786540469008   -2.29569098772427   -2.58480008705712
C         2.09909316394606   -2.45333112297549   -1.94404996954977
C         1.74218666384839   -3.01893842797755   -0.58930471529596
C         0.37400728556702   -3.42481510867240   -0.58321545223021
C         2.79369634938636   -1.14439372005173   -1.81792460762493
C         2.40210695931215   -0.00726889833334   -2.55638716641415
C         2.78440059458761    1.17793106142710   -1.81247690757763
C         3.39892930241457    0.73540873212528   -0.59208817890164
C         3.38667523150081   -0.71260328899043   -0.60245314476661
C         1.97203821334900    2.29747627655612   -1.81411349375931
C         0.73751068901736    2.29655737398147   -2.57294457314569
C        -0.24415889366827    3.01244252084216   -1.82178667921816
C         0.36762942026271    3.46051007279814   -0.59258433507238
C         1.74253913141519    3.02273188371169   -0.59237600202806
C        -1.57441546696779    2.58438543324170   -1.81528124880058
C        -1.95245349994626    1.41699310144992   -2.57705898966700
C        -2.95103690032913    0.69673430825327   -1.82470838681513
C        -3.17804469146399    1.41429878875003   -0.59793956894395
C        -2.32353981788963    2.58459354842879   -0.59900798019648
C        -2.95745840076298   -0.69239327257693   -1.82655934504099
C        -1.95811244968394   -1.41336538245477   -2.57650269155012
C        -1.57455830134349   -2.57081872209521   -1.81296003362997
C        -2.32828037097174   -2.57253346622651   -0.59569788276828
C        -3.18659947518002   -1.41048510446398   -0.59950619665650
C        -0.99585982349742   -0.72020544450187   -3.29338881464125
C        -0.99552207327955    0.72076677171780   -3.29779970200822
C         0.37945498628550    1.16198531249407   -3.30057345100856
C         1.21959684324320    0.00446695710318   -3.30778805323321
C         0.37564368456217   -1.16668946599292   -3.29314377155393
Cl       -1.95025882266496    0.00871211328233    5.25798303543596
Cl        3.12748014252550   -3.63985476275287   -2.89528342415623
62
 energy: -137.550017845814 gnorm: 0.002115618937 xtb: 6.4.1 (a3dbbd7)
C        -1.30298384278349    0.00275722566563    3.53601160905497
C        -0.37900363014939   -1.17313691795589    3.31043084387217
C         0.97393515482775   -0.72173538388174    3.27740045920712
C         0.97222527879576    0.72245893528957    3.27960731244660
C        -0.37255774312415    1.17500513922175    3.31020615882121