63
 energy: -142.082908586946 gnorm: 0.137375773317 xtb: 6.4.1 (a3dbbd7)
C        -1.29585809763920    0.00401118881931    3.54517689231029
C        -0.36796043466059   -1.17243305044266    3.30515820987539
C         0.98298838984909   -0.72191219210780    3.27512267957929
C         0.98156472691728    0.71960753564614    3.26971969840148
C        -0.37066843430553    1.17924059866277    3.30150764324135
C         2.33648296598357   -2.58548060321166    0.57950289371033
C         3.18657767566203   -1.41946403917212    0.57781419536533
C         2.94957050634668   -0.69854930588343    1.80123308089156
C         1.95308396825138   -1.41752165469557    2.55613481597303
C         1.57961582984989   -2.57968580834158    1.80518673258983
C         3.18767024138397    1.40991878537575    0.57593180017933
C         2.33807592119235    2.57402574463448    0.57591940987423
C         1.57683795447400    2.56605672116665    1.79975339077111
C         1.95304946478205    1.40835201085528    2.55205927541471
C         2.95072023090319    0.68875745027160    1.80098024590342
C        -0.36516779392141    3.42666371311492    0.57921714402649
C        -1.72924376731069    3.01648005687427    0.58287705229366
C        -2.09463355901587    2.46231282969886    1.94730853737491
C        -0.73027134368917    2.28553619224850    2.58224921046650
C         0.24829448370074    2.97593693088527    1.80334175247540
C        -3.37466967439567    0.70300551329579    0.57574930039426
C        -3.39003092771629   -0.73268815670587    0.56838248256510
C        -2.76818811346571   -1.16356142396752    1.78871572205038
C        -2.38904763717889    0.02437925858140    2.53264263708558
C        -2.74834472581071    1.12995086235998    1.81420011509538
C        -1.73481952354600   -3.00995345707075    0.57938225067925
C        -0.36149853487188   -3.44686666226009    0.58178847329193
C         0.25217194576597   -2.99475012297255    1.80551622011247
C        -0.72930832450935   -2.27346636848304    2.56467955460776
C        -1.97147545437730   -2.28746259180062    1.79868366143107
C        -0.24419850633136   -3.01431906314620   -1.82647673825261
C         0.74940205395547   -2.29291975806330   -2.58286291039202
C         1.97453700920709   -2.29239152825096   -1.82543977569151
C         1.74139873391846   -3.01127177396538   -0.59946235539016
C         0.36858334361035   -3.45436466601281   -0.59762914030018
C         2.79442417375665   -1.17031401238235   -1.82833550582627
C         2.41574661868216   -0.00512369138436   -2.58546959698227
C         2.79806943058290    1.16104826437995   -1.83045397159780
C         3.41356646756867    0.71553904959985   -0.60565027126811
C         3.41126633543504   -0.72579612437446   -0.60436594375932
C         1.98256115237360    2.28538932475628   -1.82964816243890
C         0.75350030248264    2.28551308222168   -2.58573232043658
C        -0.23508280223273    3.00436687434747   -1.82344140510130
C         0.37359850933878    3.44286488634390   -0.60220138875814
C         1.74684322375821    3.00246743965493   -0.60372642363152
C        -1.55566653240424    2.56818250404503   -1.80941223602174
C        -1.93859434660526    1.40592010808590   -2.57168095899201
C        -2.93551210472019    0.68461262540438   -1.82146846795257
C        -3.16898901543324    1.39767486955451   -0.59605965569985
C        -2.30435127708354    2.57332623889815   -0.58497549494069
C        -2.94114405324375   -0.70773319319533   -1.83440725651199
C        -1.94505174587464   -1.42387954866205   -2.59102123509086
C        -1.56548890453788   -2.59170746569988   -1.83211639417485
C        -2.32839595521473   -2.59312664308342   -0.60918315809929
C        -3.17773883520354   -1.43218193780650   -0.61434027481289
C        -0.98775846768414   -0.72638522805960   -3.31322849835342
C        -0.98659864734294    0.71557045446948   -3.30737103344774
C         0.38544609972999    1.16109326157285   -3.31071431262535
C         1.23106807690940   -0.00470839623161   -3.31198800118088
C         0.38446650877846   -1.17000629315169   -3.31255499434049
Cl       -1.95494402211016   -0.00808767691631    5.23350834623694
Cl       -3.13453400293270    3.62205440046694    2.87428256889563
Cl        3.53262473352169   -3.90628256190790    0.89703566029507
63
 energy: -142.106875111224 gnorm: 0.059212920514 xtb: 6.4.1 (a3dbbd7)
C        -1.29823077479962    0.00774095887695    3.54763363845091
C        -0.37066246446502   -1.16821956338371    3.31103738228263
C         0.97744474482500   -0.71663904676320    3.28095595558445
C         0.97935290133177    0.72412458573995    3.27238681878425
C        -0.37294558152566    1.18296937088638    3.30400250528112
C         2.40898310319877   -2.66382654256766    0.59982189632280
C         3.18321078348396   -1.40314176454584    0.57833689074665
C         2.94171235548836   -0.69075751365625    1.79644180034621
C         1.94394692157612   -1.41041452369740    2.55175707319049
C         1.56903220284429   -2.56862669508908    1.81204721103029
C         3.18928915144501    1.41728189375170    0.57887271175675
C         2.33731753573747    2.57792337602725    0.57770468672250
C         1.57557841950738    2.57031609129299    1.80182168722567
C         1.95137465375536    1.41357732751378    2.55432463287159
C         2.95061067395860    0.69783629531338    1.80168696984596
C        -0.36654996500596    3.42756205695741    0.57988078891789
C        -1.72983382897448    3.01774975994577    0.58339744077973
C        -2.09595370311079    2.46368941853717    1.94752654783810
C        -0.73207462776618    2.28816941226426    2.58324474172722
C         0.24657961559209    2.97842350599003    1.80421570178880
C        -3.37492896648425    0.70333207888292    0.57574775600485
C        -3.39099879242118   -0.73146776035102    0.56861982994330
C        -2.76851021185425   -1.16195125822899    1.78915277675367
C        -2.38999673966343    0.02595046841894    2.53358257272098
C        -2.74884190361904    1.13081649895209    1.81432514140590
C        -1.73396278772863   -3.00814713663630    0.57878676161047
C        -0.36527003278144   -3.44297719520517    0.57955007120899
C         0.24730781211196   -2.98112695620283    1.80474546167914
C        -0.73341017879520   -2.26938065553967    2.56906296433229
C        -1.97190317057683   -2.28509481014668    1.79933328917515
C        -0.25229445854478   -3.01228983050813   -1.83766976555303
C         0.73984817611325   -2.29226329028377   -2.59394332119785
C         1.96038449072505   -2.28811614716090   -1.82725320636844
C         1.73441552101839   -3.02482215243239   -0.62082356376924
C         0.36461610587095   -3.44279360118494   -0.60588538802918
C         2.78874007787039   -1.16741473633140   -1.83067211054102
C         2.41331888910922   -0.00536357079829   -2.58512543687825
C         2.79633989312149    1.16205738249999   -1.82921345930883
C         3.41474991792278    0.72221226102185   -0.60482832710923
C         3.40096447524980   -0.71580105415523   -0.60123204703841
C         1.98107949937146    2.28586360213905   -1.82903777639760
C         0.75300518673179    2.28643801719076   -2.58635709521445
C        -0.23522179673878    3.00416304731612   -1.82354410608244
C         0.37324235909240    3.44367119179972   -0.60202742243271
C         1.74545537272829    3.00377610984423   -0.60288646392388
C        -1.55592978476276    2.56840874680423   -1.80941700080482
C        -1.93947045573678    1.40694635260027   -2.57265425283203
C        -2.93613005558239    0.68567993410301   -1.82212196473199
C        -3.16926053474709    1.39887722915835   -0.59626643770449
C        -2.30476952791348    2.57338285779792   -0.58533226133669
C        -2.94311334560319   -0.70594688632515   -1.83574505088933
C        -1.94940595048559   -1.42155000368340   -2.59518825149799
C        -1.57177731985498   -2.59030951898920   -1.83784209222553
C        -2.33155052798857   -2.59166819241539   -0.61187072804339
C        -3.17846243775824   -1.43157297643121   -0.61510130859271
C        -0.99219150596068   -0.72416615506054   -3.31790157092456
C        -0.98849581093710    0.71734591135339   -3.30952543818321
C         0.38438179856576    1.16148991331464   -3.31257925676451
C         1.22784850160519   -0.00346701918256   -3.31594874082884
C         0.37922316957735   -1.16808677709485   -3.32041046078112
Cl       -1.95717593305873   -0.00634025374597    5.23547374760898
Cl       -3.13605799658323    3.62278227997753    2.87477901771616
Cl        3.63459837560108   -4.01135057159202    0.92749160571901
63
 energy: -142.112786084657 gnorm: 0.013700066710 xtb: 6.4.1 (a3dbbd7)
C        -1.30066614864252    0.01118560038346    3.54953019529379
C        -0.37152202187028   -1.16318463381380    3.30875243754618
C         0.97360879777462   -0.71388034026716    3.27721951253933
C         0.97690708272867    0.72687083645216    3.27174857497408
C        -0.37536195234047    1.18677223180725    3.30504944302983
C         2.47336059126801   -2.73109096956989    0.61983247416554
C         3.18785355157909   -1.40355068501607    0.57926099250210
C         2.93535861111932   -0.69144097286039    1.78658386358751
C         1.93713153373929   -1.41118557303297    2.54105666744748
C         1.57050086032592   -2.57094729958788    1.81542702541956
C         3.18481608151031    1.41957361236849    0.58032798915640
C         2.33562345811490    2.58193714606710    0.57873363519063
C         1.57308671818124    2.57404673038093    1.80286880152407
C         1.94879134514865    1.41629706631823    2.55376658225104
C         2.94693946752624    0.69982749139822    1.79902155709279
C        -0.36951182460505    3.42959766845004    0.58036154468025
C        -1.73227982463202    3.02081710468190    0.58363667365668
C        -2.09851753131483    2.46696255194404    1.94778140941359
C        -0.73480322764295    2.29208553266813    2.58410588592932
C         0.24379315287590    2.98219120577145    1.80488028445427
C        -3.37565383814254    0.70526923424954    0.57537160553873
C        -3.39239510136181   -0.72857566693941    0.56833302586644
C        -2.76839309940695   -1.15931186538439    1.78835523111562
C        -2.39123507518532    0.02873927695185    2.53398721503646
C        -2.74992680698325    1.13329548835970    1.81424283902287
C        -1.73067520464033   -3.00540532893148    0.57705177116128
C        -0.36656546482207   -3.44397451853489    0.57916463257112
C         0.25174959812805   -2.97663938892938    1.80296036436213
C        -0.73116344821821   -2.26357742250344    2.56371582153192
C        -1.97086607090633   -2.28151930065639    1.79748800418994
C        -0.25434577210088   -3.00623159837829   -1.83809807672376
C         0.73589335806980   -2.28779542261596   -2.59340939346082
C         1.95475197461944   -2.28569532504136   -1.81952211119623
C         1.72989443612424   -3.02261796269041   -0.62400710443782
C         0.36930626443007   -3.43277465700712   -0.60503244197917
C         2.78823008334145   -1.16740173925913   -1.83264613201852
C         2.40942772055657   -0.00695856267729   -2.58250743562061
C         2.79156196011648    1.16200551679272   -1.82726896319058
C         3.40685405987315    0.72054060510574   -0.60249875540327
C         3.39676685354235   -0.71726716131117   -0.59623207187938
C         1.97807424627817    2.28680889964593   -1.82853824497495
C         0.75048352307921    2.28863443155905   -2.58677367729372
C        -0.23741973167645    3.00541796244377   -1.82383334647192
C         0.37119330419767    3.44494556053023   -0.60193334491628
C         1.74281198581579    3.00606957547702   -0.60238374215342
C        -1.55834339578415    2.57051276319783   -1.80972186016846
C        -1.94203816965973    1.40947946101544   -2.57391297130472
C        -2.93836733917298    0.68811373378219   -1.82300646104087
C        -3.17086562661587    1.40172623344534   -0.59671947949859
C        -2.30692577730413    2.57525764310301   -0.58585572353201
C        -2.94594402545350   -0.70301691752953   -1.83732729579632
C        -1.95356478584959   -1.41891199490428   -2.59860172617307
C        -1.57415733644614   -2.58629017412042   -1.83950091420757
C        -2.33412667312577   -2.58854193534968   -0.61361943557205
C        -3.17933420745581   -1.42952621283312   -0.61579419023066
C        -0.99638577454328   -0.72141777027804   -3.32194214657321
C        -0.99188646214500    0.72024817259382   -3.31178273851527
C         0.38202667927917    1.16305073159023   -3.31366100197448
C         1.22427822547411   -0.00097147295266   -3.31820902849603
C         0.37549442604669   -1.16504197039799   -3.32217593329257
Cl       -1.96155393689448   -0.00094315750475    5.23663984264026
Cl       -3.13997205902328    3.62496564452679    2.87477230651424
Cl        3.70676927640383   -4.09209393529998    0.94383131007803
63
 energy: -142.113092471811 gnorm: 0.008222192813 xtb: 6.4.1 (a3dbbd7)
C        -1.30122973199443    0.01235140342659    3.54928275035861
C        -0.37127830859205   -1.16181957608699    3.30689677008321
C         0.97312979790058   -0.71339927648305    3.27331385637004
C         0.97566306762428    0.72740900969062    3.26999531010977
C        -0.37637311373763    1.18847421372183    3.30503324824297
C         2.48942948851353   -2.74674499688693    0.62582021792381
C         3.19495194486374   -1.41031327096680    0.58036967600510
C         2.93494682902840   -0.69399672738196    1.78337375934881
C         1.93650731081492   -1.41371129116202    2.53759610085492
C         1.57629758361372   -2.57839804562600    1.81740643251740
C         3.18183009934988    1.41872198575351    0.58032614260680
C         2.33433209055522    2.58290663167383    0.57876386420869
C         1.57178127888893    2.57530621599392    1.80283371780304
C         1.94714220926840    1.41637957360553    2.55230071538630
C         2.94418983775147    0.69817294509774    1.79740623467854
C        -0.37105607303303    3.43123870871261    0.58057699432792
C        -1.73376935235646    3.02267875024970    0.58371172875234
C        -2.10012196049749    2.46900544153509    1.94803654492550
C        -0.73620397720378    2.29426427773052    2.58471623860156
C         0.24250565951156    2.98426541392264    1.80520780470630
C        -3.37633082226521    0.70658313657657    0.57513390006339
C        -3.39289377820255   -0.72704208436463    0.56823740463944
C        -2.76755443297479   -1.15783436330121    1.78756066425149
C        -2.39146742485343    0.03034535297216    2.53348643419431
C        -2.75075884155183    1.13493215126975    1.81409095257007
C        -1.72944208978914   -3.00464241977590    0.57643886863584
C        -0.36699416064815   -3.44616681008357    0.57995004383157
C         0.25536534219505   -2.97941676605860    1.80331554444617
C        -0.72839823975088   -2.26187979001128    2.56041478174546
C        -1.96907538750164   -2.27952004479619    1.79597423788486
C        -0.25357837051726   -3.00299891978577   -1.83545886748382
C         0.73590524781529   -2.28521238386093   -2.59040938987185
C         1.95613883432896   -2.28608397322722   -1.81583208536260
C         1.73066030349653   -3.01973119106591   -0.62031387449333
C         0.37282613434430   -3.43144702417430   -0.60245718589067
C         2.79005866584511   -1.16787053809188   -1.83409682849544
C         2.40811236964058   -0.00764404900623   -2.58177911407316
C         2.78856512540149    1.16100753028719   -1.82580567580534
C         3.40236635365776    0.71756486426605   -0.60108205148255
C         3.39881493717347   -0.72104487268847   -0.59493025174711
C         1.97632131309273    2.28674924127059   -1.82798550192688
C         0.74910831104853    2.28979483557849   -2.58683117583233
C        -0.23873810412859    3.00649396281808   -1.82394137995636
C         0.36985441671385    3.44604549116497   -0.60188111366304
C         1.74110936547948    3.00677416744863   -0.60218965286894
C        -1.55979070048445    2.57189735927629   -1.80995616996452
C        -1.94335658266691    1.41082369887961   -2.57453735218086
C        -2.93967399445412    0.68932452071076   -1.82342725749279
C        -3.17206059162860    1.40329105356871   -0.59701207203264
C        -2.30821674711986    2.57657889089548   -0.58605941756203
C        -2.94711556041337   -0.70178359373339   -1.83774087336986
C        -1.95456215692710   -1.41783176231058   -2.59908227565483
C        -1.57384271395255   -2.58423121401206   -1.83890745236927
C        -2.33461887172199   -2.58701988198977   -0.61358994423430
C        -3.17954813906133   -1.42838154758027   -0.61576133419838
C        -0.99749099955225   -0.72029689503740   -3.32268068859653
C        -0.99326280699504    0.72159539514936   -3.31262426255330
C         0.38102439233364    1.16404432050153   -3.31381207737241
C         1.22317225040485    0.00023397146160   -3.31844619034429
C         0.37464422880121   -1.16380228718623   -3.32127325403856
Cl       -1.96343253954796    0.00135760196600    5.23561604051707
Cl       -3.14324261473151    3.62652785225454    2.87390071399203
Cl        3.71729591270038   -4.10741059581207    0.94216084772183
63
 energy: -142.113193337979 gnorm: 0.004732002855 xtb: 6.4.1 (a3dbbd7)
C        -1.30158683900577    0.01286242400453    3.54926432660441
C        -0.37135347572227   -1.16126924468645    3.30634829897135
C         0.97280582080772   -0.71294605750340    3.27087674137897
C         0.97497309968984    0.72767175126062    3.26880576784059
C        -0.37687689895651    1.18926395621280    3.30512674927571
C         2.49625211471434   -2.75317601305748    0.62862173742320
C         3.19868745393415   -1.41436207595937    0.58073268106807
C         2.93424564738899   -0.69501765460611    1.78136287153070
C         1.93566108423912   -1.41473317986749    2.53545465866351
C         1.57947874811232   -2.58277072803161    1.81815459646516
C         3.18049435249891    1.41838375878222    0.58018306499156
C         2.33386789121595    2.58360250886372    0.57870204820924
C         1.57140641025899    2.57612902533509    1.80274920358108
C         1.94621558564936    1.41640065515832    2.55133372142708
C         2.94229273548128    0.69723372247812    1.79641532320018
C        -0.37153783301102    3.43198739136949    0.58072503831257
C        -1.73416559007529    3.02332545763010    0.58381817922062
C        -2.10082258651738    2.46989169797438    1.94828448623911
C        -0.73675555617417    2.29536142884320    2.58525519154759
C         0.24212218978405    2.98540223285529    1.80550855646654
C        -3.37658846992880    0.70699135471474    0.57512531946614
C        -3.39313840974651   -0.72653806517703    0.56837445341339
C        -2.76715363743940   -1.15732775515934    1.78735414034032
C        -2.39139222867519    0.03096178480354    2.53311845756029
C        -2.75111500640747    1.13560861417063    1.81410208003975
C        -1.72930991851494   -3.00475810714444    0.57643910266969
C        -0.36801978781527   -3.44780638119330    0.58076923035018
C         0.25689921059036   -2.98107125224014    1.80366420628121
C        -0.72688272377385   -2.26114470753632    2.55890761767904
C        -1.96802175335889   -2.27856233081041    1.79530806421818
C        -0.25296192486496   -3.00098221146233   -1.83350780391813
C         0.73607337190669   -2.28362103816509   -2.58822765912231
C         1.95743780864196   -2.28604623257502   -1.81356931402316
C         1.73064623404060   -3.01626283221918   -0.61702354026479
C         0.37479578039905   -3.43076239843245   -0.60033326406583
C         2.79160928343948   -1.16770078013478   -1.83555960098332
C         2.40800716281008   -0.00778782967165   -2.58193761336035
C         2.78710915827284    1.16039624321711   -1.82500461223241
C         3.40007236343318    0.71596871086428   -0.60019975327911
C         3.39990676721631   -0.72286686357179   -0.59448921880805
C         1.97581103560017    2.28673061715791   -1.82780883079542
C         0.74876301051168    2.29028394817133   -2.58692774307947
C        -0.23907760367238    3.00688931736377   -1.82401037206095
C         0.36943467690139    3.44661100144767   -0.60189371449334
C         1.74041425016146    3.00706844462175   -0.60215556052257
C        -1.56013706344336    2.57223551482637   -1.80999204221483
C        -1.94359284208873    1.41107356081414   -2.57474825402162
C        -2.93999886899183    0.68950025115222   -1.82353129291222
C        -3.17238631802369    1.40373655383941   -0.59706378036201
C        -2.30842711761650    2.57679648438583   -0.58605538773406
C        -2.94750121521553   -0.70157354188446   -1.83778402647743
C        -1.95464140208168   -1.41763738442392   -2.59900082030551
C        -1.57350159982161   -2.58350407786745   -1.83836066288047
C        -2.33497752811805   -2.58655612770565   -0.61327579041056
C        -3.17959777475772   -1.42814722660808   -0.61553562215979
C        -0.99760577408929   -0.72008008562928   -3.32275271172073
C        -0.99353797690430    0.72194788122388   -3.31300839614764
C         0.38093490302965    1.16441418145548   -3.31393911595596
C         1.22305915423456    0.00084348887235   -3.31871936648674
C         0.37459385920857   -1.16339237081014   -3.32072770653644
Cl       -1.96433083566597    0.00132820100997    5.23494823886608
Cl       -3.14479403910033    3.62739221306314    2.87326326698055
Cl        3.71629094870810   -4.11042604692635    0.93738992844031
63
 energy: -142.113234655304 gnorm: 0.002445116068 xtb: 6.4.1 (a3dbbd7)
C        -1.30175791950405    0.01290554937000    3.54951201138363
C        -0.37149998053755   -1.16117783380370    3.30656909305869
C         0.97269532067563   -0.71269946332779    3.27018471120932
C         0.97479671147056    0.72770238565415    3.26844692250142
C        -0.37700727637498    1.18934576285012    3.30527561676384
C         2.49818987067226   -2.75506231070591    0.62937584695321
C         3.19925535784761   -1.41532220403879    0.58066590893223
C         2.93356601128939   -0.69492154691306    1.78053318147020
C         1.93493031337481   -1.41467818215229    2.53456362889285
C         1.58012042802917   -2.58375188597067    1.81805747655148
C         3.18042693520850    1.41850617072721    0.58013725871009
C         2.33396334649762    2.58398323776749    0.57872348410739
C         1.57152219402328    2.57644155871683    1.80273426293094
C         1.94598763927027    1.41642007608903    2.55107107680735
C         2.94162482040421    0.69707694137934    1.79618773699498
C        -0.37145187533331    3.43197359590755    0.58077415091899
C        -1.73401584299417    3.02322408152061    0.58382918208544
C        -2.10086813944003    2.46994184680868    1.94835282803525
C        -0.73677961108297    2.29551654312313    2.58551259212963
C         0.24219105067779    2.98562869539270    1.80565577248006
C        -3.37652425603846    0.70681309413778    0.57519490055565
C        -3.39315140450635   -0.72668848409614    0.56855975826390
C        -2.76709349950241   -1.15745507273927    1.78753133767726
C        -2.39119257804609    0.03093811315746    2.53299720651052
C        -2.75107366985125    1.13560118920302    1.81416022745898
C        -1.72958156593793   -3.00524762912240    0.57676802719335
C        -0.36882595509073   -3.44848626383721    0.58129078811902
C         0.25704778955591   -2.98127199792032    1.80384849502579
C        -0.72642209242827   -2.26099605452986    2.55872672130429
C        -1.96771626151535   -2.27847940228332    1.79538124195912
C        -0.25269198457057   -3.00027480688377   -1.83277708454577
C         0.73613945794508   -2.28311722788799   -2.58738104076898
C         1.95785331636686   -2.28562295806877   -1.81255105938394
C         1.72996408602419   -3.01345707837362   -0.61521246074457
C         0.37539385246418   -3.43014779209820   -0.59926148064565
C         2.79235816408745   -1.16729760506970   -1.83634970488624
C         2.40851851286075   -0.00767871972120   -2.58233126384810
C         2.78699586521596    1.16025768613676   -1.82481006569225
C         3.39961248498492    0.71563053536297   -0.59981740111322
C         3.39994371875723   -0.72300915437375   -0.59435582561248
C         1.97605780229922    2.28675215066239   -1.82785612077535
C         0.74897586454221    2.29025784850599   -2.58698141623952
C        -0.23889835972406    3.00676016280911   -1.82403126015366
C         0.36954376182366    3.44663233165685   -0.60191762915936
C         1.74040952840486    3.00706342756067   -0.60214325864412
C        -1.55991060302678    2.57195087724950   -1.80993975330496
C        -1.94330733688555    1.41073809898807   -2.57471612833380
C        -2.93976615405593    0.68915511153637   -1.82348201263807
C        -3.17219711260635    1.40350872999985   -0.59701827985092
C        -2.30816584487659    2.57645325483780   -0.58602613029758
C        -2.94737104849712   -0.70186614459049   -1.83767405512581
C        -1.95433196900723   -1.41789499155305   -2.59878177321113
C        -1.57332760667044   -2.58366003832401   -1.83810682526325
C        -2.33515653330186   -2.58675743758890   -0.61296694563868
C        -3.17949459280775   -1.42843533643992   -0.61533342071064
C        -0.99729795357591   -0.72032754953862   -3.32258383625877
C        -0.99327893906466    0.72173065663617   -3.31304109222547
C         0.38125650614241    1.16431544102594   -3.31399963011034
C         1.22340508073979    0.00097160397176   -3.31893244414702
C         0.37488115580761   -1.16349536314910   -3.32066078702301
Cl       -1.96468572403623    0.00094069167332    5.23472489010736
Cl       -3.14502164010727    3.62761048021063    2.87285536834736
Cl        3.71080989683722   -4.10800361864454    0.93218225230018
63
 energy: -142.113246399063 gnorm: 0.001309917467 xtb: 6.4.1 (a3dbbd7)
C        -1.30174117151321    0.01278608055029    3.54973576830958
C        -0.37154689326574   -1.16125895493833    3.30691207797213
C         0.97275535736446   -0.71268573248512    3.27065123731076
C         0.97492792063521    0.72766712678664    3.26867360656569
C        -0.37692418611676    1.18917107635249    3.30534592927872
C         2.49782965975528   -2.75486932154458    0.62908104118639
C         3.19841004682246   -1.41447635874685    0.58058305131486
C         2.93343366370655   -0.69451196703332    1.78074204022683
C         1.93479343323134   -1.41430694818831    2.53477888017133
C         1.57947563058806   -2.58284029251528    1.81785205657387
C         3.18085492828016    1.41873105810470    0.58021259248977
C         2.33418644933068    2.58400578137340    0.57880293025820
C         1.57169254392776    2.57637124085293    1.80277184966696
C         1.94616794846046    1.41646075333506    2.55128031242458
C         2.94191405651072    0.69733836163484    1.79644833946003
C        -0.37126970174777    3.43169302684839    0.58074062385039
C        -1.73381699145751    3.02293612164921    0.58376709388627
C        -2.10067647084349    2.46966400452694    1.94827139346811
C        -0.73663147352798    2.29525284958325    2.58545902481288
C         0.24232676045038    2.98538046941219    1.80562294591806
C        -3.37639139364144    0.70652925183545    0.57521414714827
C        -3.39306597543401   -0.72697794599017    0.56862019588315
C        -2.76716616411778   -1.15771346985586    1.78771151915127
C        -2.39108454141875    0.03072708949563    2.53305492297393
C        -2.75091058373342    1.13535100982924    1.81416781376937
C        -1.72975618403236   -3.00557740631291    0.57704243369144
C        -0.36894633998044   -3.44838982071429    0.58140857247836
C         0.25669977194603   -2.98080432457790    1.80392795121268
C        -0.72660476216231   -2.26110769282808    2.55913882568430
C        -1.96789453553073   -2.27879626865356    1.79572373701980
C        -0.25271424771976   -3.00055353338412   -1.83301419290732
C         0.73612871227986   -2.28338819972047   -2.58761515228809
C         1.95758806331674   -2.28525824289891   -1.81257905165662
C         1.72934122154066   -3.01247586202469   -0.61506713936803
C         0.37509986687305   -3.42983602409218   -0.59926847503220
C         2.79235191428136   -1.16710066928980   -1.83628896275619
C         2.40895542794380   -0.00757785162617   -2.58248401504840
C         2.78749324641478    1.16040150122881   -1.82495160217545
C         3.40012266920256    0.71596571776698   -0.59982412192269
C         3.39966667975293   -0.72246626597160   -0.59431772113006
C         1.97639273952680    2.28675474401560   -1.82792516393462
C         0.74923090605215    2.29004705118825   -2.58697205034489
C        -0.23868190474290    3.00650232095614   -1.82402431715089
C         0.36974224226872    3.44642114475919   -0.60192939638607
C         1.74063571808713    3.00695059735667   -0.60211739420071
C        -1.55966432067647    2.57162882766214   -1.80990692896302
C        -1.94304816122536    1.41040915536939   -2.57463133679574
C        -2.93949172379430    0.68885078750542   -1.82343083482344
C        -3.17195923245001    1.40318647872766   -0.59699274287254
C        -2.30796217105472    2.57614858073457   -0.58604086533134
C        -2.94711704941290   -0.70214279301609   -1.83759782312028
C        -1.95409652213567   -1.41815598970077   -2.59869016604095
C        -1.57332120691828   -2.58404386062949   -1.83811249703064
C        -2.33513515688910   -2.58708559749870   -0.61285705657420
C        -3.17936512036362   -1.42874114226609   -0.61528753097830
C        -0.99704914956649   -0.72058630603954   -3.32247089494686
C        -0.99301467472278    0.72143887265127   -3.31291678387112
C         0.38150981410143    1.16407558152911   -3.31397675598098
C         1.22369673726047    0.00082743742768   -3.31895690088298
C         0.37511960770664   -1.16371302182294   -3.32081369411314
Cl       -1.96466651990513    0.00094075807882    5.23477869215142
Cl       -3.14469938131262    3.62739635348592    2.87275399953612