63
 energy: -142.070152654055 gnorm: 0.141047183913 xtb: 6.4.1 (a3dbbd7)
C        -1.32333194775417    0.00617886347970    3.59125188963251
C        -0.38909456310608   -1.27772716531095    3.58793274117145
C         0.98734837171535   -0.72675165446744    3.28582848483634
C         0.97037352147027    0.69420630050098    3.25749094477592
C        -0.37633960723915    1.14742685553706    3.29074190055216
C         2.33092254703306   -2.58746567485154    0.56610397604514
C         3.16875994483946   -1.41579758165486    0.56774606192583
C         2.91978889080344   -0.69314490348597    1.79074016083681
C         1.93018806170321   -1.40549148670748    2.54814074589443
C         1.57476788296703   -2.59634073810083    1.79100274817011
C         3.18328087896891    1.41909085132624    0.57258499213333
C         2.33432229320876    2.58580968143883    0.57559918777772
C         1.57332139543398    2.57095369604789    1.79851755002390
C         1.94352282881158    1.40414426944103    2.54285112768194
C         2.93804115459266    0.69543633516321    1.79366637265872
C        -0.36752716666001    3.44413435035873    0.58029879258012
C        -1.74013210357057    3.00741588983283    0.58054459941955
C        -1.97818665379860    2.28654468588757    1.80361199533287
C        -0.73393250395930    2.25581684802015    2.55761528373596
C         0.24647420110131    2.98080949443068    1.80023381740862
C        -3.39591089216029    0.72883802558845    0.57533866561121
C        -3.37932885665645   -0.70504006359254    0.57786353554246
C        -2.74934612856665   -1.12865052488571    1.82052481704193
C        -2.40026274086307   -0.01382700939334    2.55826017594831
C        -2.77435746218519    1.16021035149421    1.80187148511327
C        -1.70577977915925   -3.00504292266898    0.57191390059864
C        -0.34657433486683   -3.46193150719564    0.56452064530943
C         0.25810980605866   -3.00738238851431    1.79111395103090
C        -0.74203335365356   -2.29289841924391    2.55243835495534
C        -1.91196172287597   -2.27950749485726    1.81757326885181
C        -0.23558165862281   -3.01371296632646   -1.83961821271520
C         0.75175047781152   -2.28700579367404   -2.59867644532734
C         1.98089777627659   -2.28868303835222   -1.84308617931945
C         1.74918768154887   -3.01946296828987   -0.62050040464920
C         0.38088379041600   -3.46658963937948   -0.62079308111870
C         2.79204993046375   -1.16413556659148   -1.83875967224219
C         2.41002754086118    0.00666527739579   -2.59106683151125
C         2.78807241943814    1.16926264052202   -1.83130610074559
C         3.40298548527550    0.72369088805355   -0.60835037131266
C         3.40110069057525   -0.71955382898331   -0.60923004493565
C         1.96912615256614    2.29475463280888   -1.82840259178522
C         0.74474441569639    2.29528025280401   -2.58515694980539
C        -0.24988429155059    3.01642431380723   -1.82795956514323
C         0.36353023978106    3.45499162487799   -0.59844520421847
C         1.73735095077191    3.01278425815446   -0.60243935985793
C        -1.56944867307335    2.59059487249377   -1.83048045584010
C        -1.94787757007795    1.42311330884846   -2.58910001301826
C        -2.94122296022124    0.70465889669871   -1.83002690890673
C        -3.17947337159538    1.42642572884929   -0.60816005298080
C        -2.33307692209202    2.59081264516620   -0.60600270171083
C        -2.93172079240255   -0.68656028280689   -1.82266620418654
C        -1.94059925011627   -1.40887980593779   -2.58138532694875
C        -1.55636984787224   -2.57670213587000   -1.82754179967090
C        -2.29848528094837   -2.57416283302738   -0.59738768824741
C        -3.15456863482430   -1.39758782868201   -0.59434922362650
C        -0.98936986995949   -0.71482485845558   -3.31408037280858
C        -0.99159024528376    0.72723605185279   -3.31429029098428
C         0.38014149579772    1.17201579903766   -3.31523274930469
C         1.22728121177112    0.00778684511203   -3.31823795360647
C         0.38205649969615   -1.16057927312445   -3.31917058806611
Cl       -2.09995733548554    0.29360223981566    5.20530702406437
Cl       -0.35034641589922   -2.11046483688082    5.19906768498811
Cl        2.93496150644780    2.12211571970946    3.87614267310117
63
 energy: -142.093909139520 gnorm: 0.062722216008 xtb: 6.4.1 (a3dbbd7)
C        -1.33238334637904   -0.00032754946965    3.59421064525558
C        -0.39805840969892   -1.28435555924871    3.59089926080210
C         0.97293477262413   -0.72985908636596    3.27670182947818
C         0.95147831742489    0.68043734149770    3.26183990213322
C        -0.38375984383091    1.13467980860167    3.28157017581589
C         2.33106691314201   -2.58595969334915    0.56410110344150
C         3.17409181287317   -1.41832082120528    0.56060298547815
C         2.91651645665131   -0.69427957501467    1.77592563138940
C         1.92760042179735   -1.41057818451422    2.54316624655091
C         1.57555882842433   -2.59478031472002    1.79160447958075
C         3.17513757996644    1.41166450950864    0.56534360463880
C         2.32473606070308    2.58037129458183    0.56836271187353
C         1.56573988257101    2.57622566924815    1.78179000345032
C         2.00051546504426    1.44541604951125    2.61778037798718
C         2.94067369137601    0.68665667899358    1.77690511681376
C        -0.36830613234778    3.45001881053157    0.57318049406526
C        -1.73865986187600    3.00709852336722    0.57854510072398
C        -1.97646163113208    2.28680720886220    1.80421689481112
C        -0.73957015614119    2.25492852419156    2.55265151718286
C         0.24435260215579    2.97809306429562    1.78541799726926
C        -3.39570347689178    0.72654182849133    0.57648266362091
C        -3.38147184028624   -0.70800302301687    0.57724224781416
C        -2.75437332574030   -1.13363210132032    1.81943795438409
C        -2.40524783143206   -0.01666031627893    2.55774063980208
C        -2.77526635337724    1.15609351546275    1.80289816101558
C        -1.70925024270748   -3.00615713069309    0.57130142940420
C        -0.34867666936456   -3.46102817314629    0.56566805472354
C         0.25393310640114   -3.00698288749530    1.79214983818114
C        -0.74624697654246   -2.29671587943615    2.55188611482965
C        -1.91824939219727   -2.28273938809014    1.81648193961982
C        -0.23626622088140   -3.01423834190411   -1.83852645406272
C         0.75160116973748   -2.28703707731782   -2.59796665122019
C         1.98091727409315   -2.28872364967189   -1.84442142611797
C         1.74872477352167   -3.01774842157186   -0.62076539324988
C         0.37934663772594   -3.46558258748275   -0.62002574964133
C         2.79391871815154   -1.16485868167771   -1.84402343363096
C         2.41062845131961    0.00581633103130   -2.59622913112407
C         2.78867935749262    1.16907108042670   -1.83801178331695
C         3.40518786970812    0.71978305197112   -0.61788008007684
C         3.40649396482765   -0.72097333800089   -0.61798098641568
C         1.96911274317922    2.29541133628612   -1.83510461020581
C         0.74410806014790    2.29612884940162   -2.59031399337537
C        -0.25001340091021    3.01843985130973   -1.83321635504900
C         0.36381634697068    3.46059616932925   -0.60717811278556
C         1.73428642065349    3.01611362423598   -0.61194922382727
C        -1.56948850853626    2.59062697577495   -1.83181661030797
C        -1.94794718234847    1.42297016439691   -2.58838707087925
C        -2.94192763747667    0.70416639588128   -1.82892860775940
C        -3.17898487647390    1.42465072834013   -0.60739585027020
C        -2.33158308703054    2.58984277477332   -0.60627592309929
C        -2.93253096372074   -0.68718574239968   -1.82279763274579
C        -1.94088821182953   -1.40908702478291   -2.58095212977593
C        -1.55722158722023   -2.57727876899676   -1.82767709747834
C        -2.30080570281788   -2.57559985218923   -0.59864172112858
C        -3.15666859908050   -1.39935953121067   -0.59560511054226
C        -0.98971608832601   -0.71507619779536   -3.31458467974812
C        -0.99212046416841    0.72673230681132   -3.31486986180764
C         0.37903848588442    1.17164081812061   -3.31748193889770
C         1.22658197190845    0.00685744023142   -3.32049022526651
C         0.38141601560581   -1.16092894576727   -3.31974761975818
Cl       -2.10392270659579    0.29374563703960    5.20902681000848
Cl       -0.35146897620444   -2.11430754634231    5.20280819726147
Cl        3.00674263828619    2.17406633121252    3.98384154431379
63
 energy: -142.100031128244 gnorm: 0.014483927273 xtb: 6.4.1 (a3dbbd7)
C        -1.33348808470080   -0.00207736074230    3.58805703835923
C        -0.40008296828873   -1.28484882522527    3.58474289481650
C         0.96970940496108   -0.72542544239282    3.27098123224351
C         0.94389898656420    0.67493317664094    3.25404692635121
C        -0.38055247455325    1.13024745884652    3.27580372590771
C         2.32796374819614   -2.58266355185132    0.56216125901711
C         3.16926057454093   -1.41390394814761    0.55788652268400
C         2.91521653902640   -0.68825065182968    1.77199701608365
C         1.92908747323859   -1.41430213724617    2.54371771606701
C         1.57403139634826   -2.58926538309189    1.79246310395927
C         3.16477443919788    1.40402877261461    0.56709040408792
C         2.31428914512365    2.57285332111646    0.57011003408003
C         1.56680544064202    2.58046954691956    1.78019915939032
C         2.05426117142931    1.48434287652446    2.68587224886171
C         2.94503199959720    0.68637006842429    1.77530559096785
C        -0.36560002677919    3.44407670802455    0.57044026127023
C        -1.73648622682936    3.00313629280576    0.57659381435537
C        -1.97169158250878    2.28364879280379    1.80505836109297
C        -0.74264702141620    2.25747633450899    2.55321501353359
C         0.24967977977913    2.97500916225816    1.78146641175441
C        -3.39541789047354    0.72361780534178    0.57582306335403
C        -3.38493120956305   -0.71161685906567    0.57485662119558
C        -2.76013273234112   -1.13898988667278    1.81665147251456
C        -2.40906793918148   -0.01969560760872    2.55509921604119
C        -2.77553760834226    1.15090131704552    1.80237838467896
C        -1.71375361558009   -3.00832304649500    0.56892274156901
C        -0.35136090612301   -3.45985007149313    0.56501524139623
C         0.24892061934308   -3.00563681491393    1.79164341263866
C        -0.75030454719297   -2.29936404154851    2.54921986638507
C        -1.92512493093826   -2.28655191455780    1.81369181877038
C        -0.23836609502415   -3.01474923134413   -1.83900071643469
C         0.75004432659260   -2.28717447375220   -2.59868796315471
C         1.97947702652329   -2.28885306018342   -1.84690139834142
C         1.74688871439346   -3.01572345502917   -0.62160149561238
C         0.37653535185128   -3.46449763551694   -0.62095440281276
C         2.79452113942568   -1.16591663023108   -1.84957150295506
C         2.40959953077639    0.00460459857058   -2.60173302449139
C         2.78670638617990    1.16757699402907   -1.84212141706343
C         3.40187815360098    0.71699124768195   -0.62149909141872
C         3.40469484668803   -0.72009554500595   -0.62343609135401
C         1.96707182690351    2.29400653404646   -1.83921201236816
C         0.74262324804101    2.29554022634513   -2.59581417911275
C        -0.25085119491985    3.01935466753227   -1.83875732818034
C         0.36408237882249    3.45863489917876   -0.61263871231744
C         1.73060162754083    3.01383516991052   -0.61556490290877
C        -1.57006422155962    2.58930075854086   -1.83429780866637
C        -1.94855568251414    1.42152569728728   -2.58910699935390
C        -2.94305873355521    0.70232484802103   -1.82939910585761
C        -3.17882005100432    1.42164563690362   -0.60833089142041
C        -2.33022090205510    2.58747163825295   -0.60712320626777
C        -2.93480406825052   -0.68913946753848   -1.82504215852710
C        -1.94285512924822   -1.41051189753348   -2.58278575497175
C        -1.55978728275557   -2.57883352878212   -1.82992379647796
C        -2.30470004573946   -2.57833133585314   -0.60184056733673
C        -3.16048108607517   -1.40222453876270   -0.59880368722819
C        -0.99172164922888   -0.71653031300709   -3.31708630587261
C        -0.99372928367390    0.72503042801751   -3.31743169480548
C         0.37681093510667    1.17033970873578   -3.32171857695857
C         1.22464921240366    0.00515134320758   -3.32472950460906
C         0.37929838186598   -1.16192878967088   -3.32230717896230
Cl       -2.09530262934814    0.29204092273297    5.20583520420762
Cl       -0.35053252638262   -2.10560369589208    5.19964685933082
Cl        3.05331364824589    2.20771949135873    4.07396504903209
63
 energy: -142.100330390694 gnorm: 0.009250832704 xtb: 6.4.1 (a3dbbd7)
C        -1.33258974848122   -0.00121809476366    3.58604978296881
C        -0.39899891826909   -1.28425147577592    3.58273025739080
C         0.97190177274280   -0.72273487225792    3.27071575537260
C         0.94643522655504    0.67677983826539    3.25212807673542
C        -0.37731677940777    1.13150112583730    3.27552291871521
C         2.32542037652163   -2.58009905004417    0.56140463425210
C         3.16542583094790   -1.41040069623300    0.55842075416087
C         2.91744896227322   -0.68553653319664    1.77524377615314
C         1.93058193285454   -1.41557277390522    2.54490423475001
C         1.57294753355235   -2.58723087374162    1.79259625395094
C         3.16249292802528    1.40248128319920    0.57038152867387
C         2.31212234265115    2.57114806317118    0.57340049229890
C         1.57146890788731    2.58450204776905    1.78718720191279
C         2.06712529870625    1.49366110099830    2.70152541770596
C         2.95032080423299    0.68954343043834    1.78229219952894
C        -0.36344828770893    3.43934747536780    0.57095299748428
C        -1.73483371495602    2.99992760196862    0.57582344363248
C        -1.97009342752605    2.28199039431140    1.80518275010472
C        -0.74339190842945    2.25928091142248    2.55440536462099
C         0.25295644170194    2.97628553972136    1.78470734382970
C        -3.39510605764993    0.72236717634322    0.57482157269157
C        -3.38642387381736   -0.71309237199074    0.57387714455704
C        -2.76180631247982   -1.14062903175662    1.81559624039503
C        -2.40876643560055   -0.02036327639868    2.55356395131007
C        -2.77496351914127    1.14911807793483    1.80129156630334
C        -1.71561815190807   -3.00928588101717    0.56794435812283
C        -0.35245417422040   -3.45916296434169    0.56401780058738
C         0.24740075446179   -3.00453466953665    1.79056121818812
C        -0.75084743912088   -2.29885403918694    2.54767710613778
C        -1.92720231430849   -2.28763564394268    1.81263588001407
C        -0.23978160006320   -3.01502918096911   -1.83995901418559
C         0.74881097533686   -2.28749429591261   -2.59984297674833
C         1.97799321707406   -2.28862501163886   -1.84808024920796
C         1.74532271170524   -3.01429950807675   -0.62210654919942
C         0.37500010780384   -3.46406634844101   -0.62194957507003
C         2.79380354835633   -1.16623932649546   -1.85115598135066
C         2.40865440391101    0.00404773650396   -2.60350593736069
C         2.78475933968387    1.16655065245454   -1.84228162585336
C         3.39851953258554    0.71680932569720   -0.62047992109007
C         3.40213275050418   -0.71920170771807   -0.62388648102794
C         1.96549391795843    2.29247148365601   -1.83937334994387
C         0.74179626164485    2.29481803158520   -2.59758684588264
C        -0.25138526028234    3.01877555156710   -1.84034197720012
C         0.36414087918881    3.45592281208658   -0.61309834425152
C         1.72939560588205    3.01069306521303   -0.61455314394207
C        -1.57030852437952    2.58782020698203   -1.83547969154902
C        -1.94924273457375    1.42045121730926   -2.59026221088334
C        -2.94376294513370    0.70106406612469   -1.83035767605052
C        -3.17888578929521    1.42005407153130   -0.60933006258834
C        -2.32935165414842    2.58554294305662   -0.60763662420659
C        -2.93636508396460   -0.69048029531110   -1.82646116637962
C        -1.94427791764371   -1.41154454179989   -2.58424615939740
C        -1.56154432769543   -2.57990299369621   -1.83134297770942
C        -2.30684744132314   -2.57991619295431   -0.60329116019283
C        -3.16265127282630   -1.40377854193850   -0.60025299072614
C        -0.99305830784887   -0.71749991839457   -3.31871246442228
C        -0.99475937750310    0.72409002925352   -3.31934087582135
C         0.37572707137772    1.16968435851265   -3.32390328922768
C         1.22368720428865    0.00432961589208   -3.32691494772469
C         0.37808353413677   -1.16261334396905   -3.32421651386941
Cl       -2.09893373205206    0.31099026963960    5.19834454271802
Cl       -0.33370983399280   -2.11490153253743    5.19206517504905
Cl        3.05305379800161    2.20747278737137    4.09451525290201
63
 energy: -142.100381072221 gnorm: 0.006108308547 xtb: 6.4.1 (a3dbbd7)
C        -1.32877161813148   -0.00109923904652    3.57977406758512
C        -0.39773175536290   -1.28063548794852    3.57646752536693
C         0.97578435409075   -0.71880630785710    3.26949152934778
C         0.95088896309104    0.68003008841532    3.24732647992497
C        -0.37238504961693    1.13398531512289    3.27427657031636
C         2.32277511028053   -2.57710266531078    0.56075597547424
C         3.16171148789185   -1.40654240423364    0.55884555051154
C         2.92056750438517   -0.68272646729741    1.77852963148540
C         1.93333357477281   -1.41733609602257    2.54640190224709
C         1.57211597302507   -2.58535617745740    1.79310266025311
C         3.16048410592679    1.40107680375692    0.57282294989421
C         2.31017333183888    2.56966166106912    0.57584157305193
C         1.57712261558589    2.58942957017925    1.79426212048384
C         2.08014115247876    1.50309700535274    2.71469039118007
C         2.95676472884278    0.69338449719686    1.78936494057495
C        -0.36092224820407    3.43462310742158    0.57135385434427
C        -1.73280127315685    2.99648792963485    0.57515765252919
C        -1.96856845690320    2.28061702203982    1.80567759507965
C        -0.74421798642604    2.26243063320346    2.55590712323571
C         0.25659645474913    2.97837618670617    1.78798794854361
C        -3.39495127194165    0.72147532854454    0.57390093217340
C        -3.38817413499377   -0.71430555797685    0.57267271455592
C        -2.76346628024545   -1.14224505701149    1.81378230526544
C        -2.40882229253015   -0.02113821922817    2.55175134588644
C        -2.77474178367761    1.14764108336774    1.80057938893399
C        -1.71731480200177   -3.01057216748311    0.56673933676379
C        -0.35325653425524   -3.45873342858629    0.56309970772307
C         0.24606310516097   -3.00385903561542    1.78985178856455
C        -0.75160361956958   -2.29865084618109    2.54586118165422
C        -1.92925466095542   -2.28870560639062    1.81081935655414
C        -0.24094376207263   -3.01526352097591   -1.84085686118353
C         0.74776372798782   -2.28785077726668   -2.60104887853535
C         1.97652514990092   -2.28833709719920   -1.84918261531290
C         1.74396465531956   -3.01276914737894   -0.62243976540829
C         0.37370355350521   -3.46370470334589   -0.62283516300281
C         2.79321911671307   -1.16668233793875   -1.85298341599902
C         2.40792769565116    0.00335171286560   -2.60559842375449
C         2.78270370988164    1.16549329125915   -1.84282486824034
C         3.39492909544431    0.71675466073637   -0.61996110726298
C         3.39970890508847   -0.71837048841841   -0.62451927154988
C         1.96385240069565    2.29084326930966   -1.83991766770891
C         0.74090381613054    2.29434738069233   -2.59967876183644
C        -0.25199265440385    3.01836114935216   -1.84216976015093
C         0.36418207661912    3.45336247738011   -0.61374053039594
C         1.72823827396970    3.00729288182046   -0.61404308412529
C        -1.57049041766630    2.58633682185976   -1.83658618807698
C        -1.94990724668878    1.41956590762793   -2.59146820752998
C        -2.94434652104791    0.70003120891606   -1.83125581593444
C        -3.17894467994089    1.41871166411292   -0.61021903769554
C        -2.32831652534809    2.58377951448302   -0.60797892916879
C        -2.93775260510632   -0.69160642330971   -1.82793898590294
C        -1.94541684544742   -1.41237017508615   -2.58568254751336
C        -1.56304427890480   -2.58087196987463   -1.83282106533656
C        -2.30887472511258   -2.58149234503969   -0.60490464129849
C        -3.16477970552172   -1.40521878055267   -0.60186470481557
C        -0.99417343660386   -0.71830831360875   -3.32031197072595
C        -0.99568286649132    0.72333641177966   -3.32132565469559
C         0.37475554369739    1.16919635955298   -3.32634330471832
C         1.22291842206223    0.00356361108619   -3.32935544654092
C         0.37707872725075   -1.16325375013429   -3.32620113242628
Cl       -2.07912597015500    0.28649485364920    5.20314557030592
Cl       -0.35096787871716   -2.08858399773587    5.19699250586663
Cl        3.04654366196534    2.20268648626064    4.11135984132533
63
 energy: -142.100521331634 gnorm: 0.003189256006 xtb: 6.4.1 (a3dbbd7)
C        -1.32995955128125   -0.00098671190484    3.58241872542451
C        -0.39798149596564   -1.28181087244787    3.57911132885210
C         0.97478860027115   -0.71996990828466    3.26889427342989
C         0.94962698654934    0.67911404648520    3.24640541935089
C        -0.37379889760843    1.13339729149356    3.27368000239232
C         2.32367716905305   -2.57788071836663    0.56094745090748
C         3.16290240010822   -1.40749941586445    0.55877290454804
C         2.91968611391567   -0.68378495185863    1.77759249184367
C         1.93275898779589   -1.41766422109059    2.54586082286584
C         1.57282434832694   -2.58641715440080    1.79313108091599
C         3.16049861056695    1.40107459184340    0.57200504429892
C         2.31017344694169    2.56967893374803    0.57502402281025
C         1.57544473338360    2.58783389960839    1.79270972997069
C         2.07537239080899    1.49963972534287    2.70981263141837
C         2.95472615834273    0.69228405389780    1.78781288848462
C        -0.36146614722111    3.43605019730520    0.57128743970929
C        -1.73326275749243    2.99758400997939    0.57535373904159
C        -1.96935791608204    2.28161458487908    1.80571007594032
C        -0.74470782505826    2.26198599143608    2.55536582462535
C         0.25531601675244    2.97786652694495    1.78705277864263
C        -3.39485260879429    0.72206207579598    0.57439967916030
C        -3.38732736248692   -0.71365696789806    0.57362609512486
C        -2.76251578519812   -1.14147695273122    1.81476132008056
C        -2.40825302711232   -0.02027839455941    2.55253739507574
C        -2.77459908897769    1.14839938754770    1.80089208589412
C        -1.71643501255288   -3.00997027914788    0.56769200096763
C        -0.35266745462074   -3.45882287658710    0.56359623772766
C         0.24682924041576   -3.00395833858187    1.79016175383694
C        -0.75060786415694   -2.29838172538631    2.54664837905349
C        -1.92822757439637   -2.28804108411896    1.81179748131015
C        -0.24038331538621   -3.01514448001016   -1.84029933443628
C         0.74824280102793   -2.28778755036059   -2.60053710550960
C         1.97701651490320   -2.28839875480394   -1.84869427346507
C         1.74471369164343   -3.01335764727673   -0.62220803129225
C         0.37432269848463   -3.46389816225375   -0.62233995177239
C         2.79359640508883   -1.16670948784605   -1.85246841900195
C         2.40838954190773    0.00344357362726   -2.60490811459046
C         2.78314375915729    1.16573664521491   -1.84247681980050
C         3.39547883744309    0.71675283855064   -0.61999837820645
C         3.40060336028294   -0.71880283337794   -0.62424821673722
C         1.96421967185538    2.29118601691190   -1.83956942867870
C         0.74113468316415    2.29475727411933   -2.59898912904435
C        -0.25190115729963    3.01872741136174   -1.84165443801308
C         0.36404650430980    3.45434581123946   -0.61346587059728
C         1.72840537730158    3.00781650204824   -0.61407896291382
C        -1.57039682238632    2.58682256180074   -1.83609736296308
C        -1.94969913383904    1.42000208971553   -2.59095741184820
C        -2.94405967108803    0.70052692282830   -1.83069804739519
C        -3.17893648283805    1.41935827179503   -0.60972146781196
C        -2.32864493077625    2.58467258540135   -0.60774336842562
C        -2.93710473128061   -0.69107892486860   -1.82699614849546
C        -1.94477549960964   -1.41190536743195   -2.58472516241210
C        -1.56234125343716   -2.58042022983437   -1.83187837687005
C        -2.30798365319823   -2.58080352498406   -0.60385578739644
C        -3.16384849821413   -1.40458557892469   -0.60081594851498
C        -0.99363799988161   -0.71792002239557   -3.31941321817362
C        -0.99525980842450    0.72372760278858   -3.32050912957232
C         0.37518969710968    1.16952912921121   -3.32550476218886
C         1.22336928657875    0.00387271536512   -3.32851385021822
C         0.37758187577516   -1.16297258530332   -3.32538093158902
Cl       -2.08929133025059    0.30416875239419    5.19902189469068
Cl       -0.33728056093668   -2.10366575208509    5.19279424869964
Cl        3.03918241538868    2.19734675754786    4.10440641099594
63
 energy: -142.100542446423 gnorm: 0.001884969757 xtb: 6.4.1 (a3dbbd7)
C        -1.33007232120752   -0.00112403519310    3.58301726397499
C        -0.39814559138981   -1.28187534467137    3.57970542622614
C         0.97432971650116   -0.72039685286107    3.26822261965274
C         0.94875173303740    0.67848098644074    3.24474649705039
C        -0.37434769044185    1.13309446980527    3.27300940503945
C         2.32434472246076   -2.57837106290110    0.56105959339952
C         3.16368418267654   -1.40798906959548    0.55860324278998
C         2.91925372090721   -0.68421167769455    1.77675932263805
C         1.93272838478389   -1.41787378638274    2.54562233757326
C         1.57341169889640   -2.58699607775009    1.79324640246407
C         3.16055169446509    1.40108278703149    0.57128605070593
C         2.31019561752242    2.56972934880325    0.57430520177368
C         1.57453786820219    2.58700932526437    1.79135464238729
C         2.07383477773478    1.49852488302096    2.70819409090473
C         2.95365878584178    0.69167886575379    1.78645754838905
C        -0.36169141256840    3.43694576718883    0.57112117343781
C        -1.73352323851710    2.99836981053669    0.57546866310971
C        -1.96972725239255    2.28235175450999    1.80582887967853
C        -0.74491725976383    2.26202372389653    2.55512994451061
C         0.25477535595762    2.97758982925773    1.78622020700069
C        -3.39479083148410    0.72240975534778    0.57473580327284
C        -3.38688837023565   -0.71329796428872    0.57405777883068
C        -2.76196116257577   -1.14105950811970    1.81508441845107
C        -2.40810400046414   -0.01983824790273    2.55293877395646
C        -2.77457943175461    1.14885392565009    1.80119749389241
C        -1.71595709281802   -3.00966532617945    0.56812408354294
C        -0.35231668676011   -3.45887363956005    0.56393226775484
C         0.24726859455327   -3.00408148343719    1.79046572315589
C        -0.75014155573577   -2.29837666796538    2.54704651291213
C        -1.92765930491449   -2.28764518371124    1.81212156913529
C        -0.24006901397824   -3.01507954388502   -1.83994233110936
C         0.74849934824130   -2.28772924439305   -2.60019091968717
C         1.97731431120752   -2.28840805608982   -1.84843154744893
C         1.74521947801765   -3.01368964920761   -0.62205403444710
C         0.37469064767748   -3.46396947865196   -0.62201187251856
C         2.79387379421528   -1.16671066533791   -1.85232606854964
C         2.40863220246495    0.00347882504282   -2.60465973266396
C         2.78346382229684    1.16590303052456   -1.84249841979444
C         3.39599981231519    0.71679054916059   -0.62029696147001
C         3.40121034719142   -0.71901435201265   -0.62429614848749
C         1.96447589898028    2.29143954136963   -1.83959128070759
C         0.74124319854802    2.29497707813782   -2.59874204877314
C        -0.25181672297313    3.01899169681334   -1.84151281815151
C         0.36403182083972    3.45498853825395   -0.61351231657394
C         1.72860053332860    3.00830144715531   -0.61437663591761
C        -1.57031340905371    2.58710809648204   -1.83583580644490
C        -1.94956425282949    1.42022793837273   -2.59061395181796
C        -2.94389956915252    0.70080501778862   -1.83034215433055
C        -3.17888937363145    1.41972885257260   -0.60939362832125
C        -2.32880452867893    2.58525545967395   -0.60758827828587
C        -2.93674714220251   -0.69077920263002   -1.82649918201642
C        -1.94445474517375   -1.41167315939268   -2.58422136816121
C        -1.56194514853719   -2.58017387374925   -1.83138094974351
C        -2.30749634364337   -2.58041423564055   -0.60335122205702
C        -3.16332596837833   -1.40424309128138   -0.60031199179959
C        -0.99339470909012   -0.71774356383105   -3.31894907785475
C        -0.99505309690614    0.72389429037163   -3.32002944812887
C         0.37537242569807    1.16965891331711   -3.32508262209361
C         1.22354875131928    0.00400624616619   -3.32808740234565
C         0.37780435430991   -1.16282727941163   -3.32489561354798
Cl       -2.08966938853251    0.30489194377294    5.19953274587553
Cl       -0.33670197034456   -2.10424756674972    5.19329637191499