72
 energy: -177.373512663674 gnorm: 0.242798981812 xtb: 6.4.1 (a3dbbd7)
C        -1.23626340000000    0.00000000000000    3.32997640000000
C        -0.38202640000000   -1.17575640000000    3.32997640000000
C         1.00015810000000   -0.72665740000000    3.32997640000000
C         1.00015810000000    0.72665740000000    3.32997640000000
C        -0.38202640000000    1.17575640000000    3.32997640000000
C         2.34433560000000   -2.60145750000000    0.59464210000000
C         3.19857260000000   -1.42570110000000    0.59464210000000
C         2.96246730000000   -0.69904370000000    1.83090550000000
C         1.96230920000000   -1.42570110000000    2.59495830000000
C         1.58028280000000   -2.60145750000000    1.83090550000000
C         3.19857260000000    1.42570110000000    0.59464210000000
C         2.34433560000000    2.60145750000000    0.59464210000000
C         1.58028280000000    2.60145750000000    1.83090550000000
C         1.96230920000000    1.42570110000000    2.59495830000000
C         2.96246730000000    0.69904370000000    1.83090550000000
C        -0.36750900000000    3.48258920000000    0.59464210000000
C        -1.74969350000000    3.03349030000000    0.59464210000000
C        -1.98579880000000    2.30683290000000    1.83090550000000
C        -0.74953540000000    2.30683290000000    2.59495830000000
C         0.25062270000000    3.03349030000000    1.83090550000000
C        -3.42570570000000    0.72665740000000    0.59464210000000
C        -3.42570570000000   -0.72665740000000    0.59464210000000
C        -2.80757400000000   -1.17575640000000    1.83090550000000
C        -2.42554760000000    0.00000000000000    2.59495830000000
C        -2.80757400000000    1.17575640000000    1.83090550000000
C        -1.74969350000000   -3.03349030000000    0.59464210000000
C        -0.36750900000000   -3.48258920000000    0.59464210000000
C         0.25062270000000   -3.03349030000000    1.83090550000000
C        -0.74953540000000   -2.30683290000000    2.59495830000000
C        -1.98579880000000   -2.30683290000000    1.83090550000000
C        -0.25062270000000   -3.03349030000000   -1.83090550000000
C         0.74953540000000   -2.30683290000000   -2.59495830000000
C         1.98579880000000   -2.30683290000000   -1.83090550000000
C         1.74969350000000   -3.03349030000000   -0.59464210000000
C         0.36750900000000   -3.48258920000000   -0.59464210000000
C         2.80757400000000   -1.17575640000000   -1.83090550000000
C         2.42554760000000    0.00000000000000   -2.59495830000000
C         2.80757400000000    1.17575640000000   -1.83090550000000
C         3.42570570000000    0.72665740000000   -0.59464210000000
C         3.42570570000000   -0.72665740000000   -0.59464210000000
C         1.98579880000000    2.30683290000000   -1.83090550000000
C         0.74953540000000    2.30683290000000   -2.59495830000000
C        -0.25062270000000    3.03349030000000   -1.83090550000000
C         0.36750900000000    3.48258920000000   -0.59464210000000
C         1.74969350000000    3.03349030000000   -0.59464210000000
C        -1.58028280000000    2.60145750000000   -1.83090550000000
C        -1.96230920000000    1.42570110000000   -2.59495830000000
C        -2.96246730000000    0.69904370000000   -1.83090550000000
C        -3.19857260000000    1.42570110000000   -0.59464210000000
C        -2.34433560000000    2.60145750000000   -0.59464210000000
C        -2.96246730000000   -0.69904370000000   -1.83090550000000
C        -1.96230920000000   -1.42570110000000   -2.59495830000000
C        -1.58028280000000   -2.60145750000000   -1.83090550000000
C        -2.34433560000000   -2.60145750000000   -0.59464210000000
C        -3.19857260000000   -1.42570110000000   -0.59464210000000
C        -1.00015810000000   -0.72665740000000   -3.32997640000000
C        -1.00015810000000    0.72665740000000   -3.32997640000000
C         0.38202640000000    1.17575640000000   -3.32997640000000
C         1.23626340000000    0.00000000000000   -3.32997640000000
C         0.38202640000000   -1.17575640000000   -3.32997640000000
C        -1.76086815247998    0.00000000000000    4.78849957557021
F        -0.76911826531252    0.00000000000000    5.67468926254662
F        -2.50968386795825   -1.06794314680471    5.04863888333743
F        -2.50968386795825    1.06794314680471    5.04863888333743
C        -1.42457227037960    1.03501233722714   -4.78849957248258
F        -0.62223011468481    0.45207589682711   -5.67468926529602
F        -2.65809836182651    0.61117154425495   -5.04863869666891
F        -1.40265511061956    2.33913928186680   -5.04863905501621
C         4.25247495652193   -1.01957928511255    2.62817407757680
F         4.45020405360863   -2.32910962270744    2.75037677428969
F         5.33704498641440   -0.51936149478958    2.04303305824604
F         4.21414295278388   -0.51936236815955    3.85992636334025
72
 energy: -177.423251180287 gnorm: 0.180905865728 xtb: 6.4.1 (a3dbbd7)
C        -1.24820752836842    0.00177050547539    3.33472143401879
C        -0.37058569622977   -1.18969249959658    3.33439195955602
C         0.98657216349745   -0.72305346939379    3.31683938883780
C         0.99564479080533    0.73110100781809    3.31199690094743
C        -0.35810629084114    1.19121704118301    3.33668845330185
C         2.32172357552883   -2.58553314249331    0.58495606269650
C         3.15713998895309   -1.41938012111611    0.56263577748933
C         2.99730403814117   -0.70649484390761    1.85192137379925
C         1.92247179847033   -1.42480429560520    2.57589522054525
C         1.56355567476606   -2.58474660210236    1.81968010685458
C         3.18315235136975    1.43102232906864    0.59550872104832
C         2.33506805577144    2.60400140391766    0.58902505160582
C         1.58064272641635    2.60676352005406    1.82133284979505
C         1.96731009318685    1.43633888947038    2.57948187665680
C         2.99358258226401    0.74488436405188    1.85134623949035
C        -0.36422574052983    3.47036602382474    0.59244287500610
C        -1.74237296556384    3.02255921334674    0.60145233583110
C        -1.97174421344230    2.29883206429904    1.82691566193264
C        -0.73919894225094    2.30308471464422    2.58282778274603
C         0.25446098947063    3.02985494816298    1.81868270523764
C        -3.43110356316450    0.72077262617360    0.58541674706341
C        -3.42482228882271   -0.72779728404191    0.57744990075075
C        -2.80346327225429   -1.17207176694076    1.79820781089906
C        -2.44101778744010    0.00317727506446    2.53270769732437
C        -2.80241535192872    1.16759824489863    1.80999794541946
C        -1.74332792396287   -3.02067703880719    0.59154348628386
C        -0.36693105730334   -3.46788634489305    0.59232387804196
C         0.24321555922376   -3.03167798978864    1.82621164739815
C        -0.74178376268490   -2.30106376292955    2.58418304263830
C        -1.97941329969019   -2.29818335609064    1.81590485818552
C        -0.24858554787982   -3.02984378769529   -1.82488969966108
C         0.74530726105962   -2.30683060541346   -2.58456243284518
C         1.97683211638570   -2.30453934512693   -1.82740501966286
C         1.74027537732852   -3.02633265888011   -0.60047820340028
C         0.36371649528327   -3.47085394784953   -0.59429027312502
C         2.79802583927949   -1.17467081350077   -1.83208314007822
C         2.42251448032245   -0.00276863904445   -2.58540856135134
C         2.80030754733186    1.16817868413423   -1.82282772115868
C         3.40701820087669    0.72896908540436   -0.59239703338692
C         3.40132422284792   -0.72372103574172   -0.60330288423623
C         1.98160972554852    2.29852541889192   -1.82653830653701
C         0.75581528197612    2.29478980139933   -2.58636006460669
C        -0.24766903256691    3.02083835927841   -1.82050129925749
C         0.36522318531209    3.46967402067693   -0.59667294814509
C         1.74161153906755    3.02231468076028   -0.59698534892837
C        -1.57862929422021    2.59379045422121   -1.80177992708540
C        -1.96986334969355    1.43096997783173   -2.53406666022063
C        -2.95470265020498    0.69653772281770   -1.80747472723456
C        -3.19968146793512    1.42363384478878   -0.58384675683167
C        -2.34255007095421    2.59379307891007   -0.57707259812197
C        -2.95078072007423   -0.70158962236308   -1.82384248966197
C        -1.95114212508057   -1.43069290727389   -2.58704022422777
C        -1.57497218679623   -2.59906473881896   -1.82540742788691
C        -2.33564486781200   -2.59517050624571   -0.59821757530730
C        -3.18947076115609   -1.42596033762330   -0.60425228683325
C        -1.00110242611233   -0.75362861710952   -3.33973537332435
C        -1.00082173119278    0.73042514322956   -3.33439804092827
C         0.41081438456995    1.17421256235757   -3.33803696503473
C         1.23401184763262   -0.00364966284918   -3.31730635704959
C         0.37725696909196   -1.17672965474021   -3.31643749270363
C        -1.77530658403016   -0.00197063491221    4.81361227331400
F        -0.77938887511302    0.00160896526198    5.70089194330980
F        -2.52393034042857   -1.07365044417457    5.07074126196067
F        -2.52337755181359    1.07133586785177    5.06777919636285
C        -1.43433135494425    1.04055017507690   -4.81208460527519
F        -0.63179104928155    0.45449138149715   -5.70157753905507
F        -2.67058971885745    0.61149307663757   -5.06453077704895
F        -1.41208995757429    2.34763687748060   -5.06953343671335
C         4.29418266185766   -1.03448474983913    2.64990460309383
F         4.48747627402916   -2.34682244059256    2.77093519398140
F         5.37345300524029   -0.52565221547744    2.05590008481933
F         4.24347748340261   -0.52543717757602    3.88040013746240
72
 energy: -177.459202252568 gnorm: 0.124516880664 xtb: 6.4.1 (a3dbbd7)
C        -1.27869630733057    0.00030466307112    3.41749210150446
C        -0.34937450917124   -1.20401386548471    3.29155210596057
C         0.96995987053567   -0.72204956060951    3.27542732487960
C         0.98403877820417    0.73319006769552    3.28093040937739
C        -0.32018354340052    1.19967974404975    3.29877943017368
C         2.30171946742458   -2.56783523359716    0.57253804614103
C         3.11453309378937   -1.42041563677009    0.52217852177303
C         3.07984377028930   -0.73616828306871    1.89840256734947
C         1.87898887383650   -1.43551704351681    2.54903040404064
C         1.54888727329087   -2.56652154633650    1.80353855911324
C         3.15271161734711    1.43376606368052    0.58571930148174
C         2.31881506252003    2.60629802429600    0.57907450818444
C         1.57344216719582    2.61226611742169    1.80485554375646
C         1.96183495231999    1.44529592806585    2.54858802181165
C         2.96932531543107    0.79445415435355    1.83813719535460
C        -0.36286901773919    3.46265371273080    0.58795355927479
C        -1.73500858139495    3.01021985008126    0.60669497785283
C        -1.95756844978428    2.29704494903567    1.82491355619432
C        -0.73209145056405    2.29727405755761    2.55120961662542
C         0.25414559217467    3.02992104433321    1.79737758238620
C        -3.42698502188638    0.71469553698841    0.57682424733160
C        -3.42406628097598   -0.72677126354518    0.56439769555344
C        -2.79322955680276   -1.16284501157433    1.76539753337514
C        -2.45978481157565    0.00921723576108    2.47241951228315
C        -2.78968686093535    1.15187671008143    1.79645145330192
C        -1.73812819028144   -3.00459133039705    0.58847940212410
C        -0.36762523502318   -3.45253603409201    0.58755661342599
C         0.23459776236290   -3.03503329894607    1.81709137874660
C        -0.73152128885387   -2.29658439248252    2.55445548613639
C        -1.97752330352375   -2.29234994945588    1.79784170697173
C        -0.24535188194175   -3.02512161509755   -1.81576276325980
C         0.74492890624535   -2.31024925129618   -2.56776961248309
C         1.96866015455110   -2.30358412747547   -1.82022509367259
C         1.73140220881440   -3.01897405259391   -0.60869149695085
C         0.35940690345351   -3.45849992620064   -0.59497001679530
C         2.78916370959957   -1.17220710692263   -1.83023306620035
C         2.42497533307205   -0.00532359033948   -2.56892020457826
C         2.79487553069080    1.16042602613521   -1.80991655775309
C         3.39297116511934    0.73314055063225   -0.59387859930923
C         3.37521306594182   -0.72352858685571   -0.61049581203820
C         1.97866823607936    2.29474200464547   -1.81711629029994
C         0.76249246619937    2.27921158682987   -2.55773082041869
C        -0.24480973692966    3.01379935556915   -1.80888547731073
C         0.36095422143482    3.45838412507811   -0.60131027869719
C         1.73221613171142    3.01539288126883   -0.59978524230521
C        -1.57466581537697    2.57650527218162   -1.77332304397601
C        -1.98445802446070    1.44005826420243   -2.47503093645686
C        -2.93774758635859    0.69637358732142   -1.78515775888763
C        -3.19369554065154    1.42018842015344   -0.57127877015120
C        -2.33894021471794    2.58798590619008   -0.56139108109688
C        -2.94407048175081   -0.70409231090210   -1.81490748134835
C        -1.93275921221776   -1.43185318258135   -2.55879877584122
C        -1.57120409654664   -2.59658015508198   -1.81285149454142
C        -2.32929617835095   -2.58542558383330   -0.60151624398453
C        -3.17963439276641   -1.42131646373173   -0.61299338135330
C        -0.98334391953845   -0.78292808325183   -3.29945743699502
C        -1.02065158042187    0.74719028417558   -3.41384583437839
C         0.44484486053624    1.16305958264260   -3.29825916748121
C         1.23122097421751   -0.00587480310705   -3.28509395544163
C         0.37776788515661   -1.17543330606533   -3.28334161231605
C        -1.80031335271168   -0.00304678245711    4.88574514521595
F        -0.78677486038912    0.00227792884876    5.75589319583226
F        -2.54654206500674   -1.08432998145528    5.11721586150848
F        -2.54454162664851    1.08197123009109    5.11311811436362
C        -1.45247551100277    1.05577349865769   -4.88199487895213
F        -0.63723289201823    0.45901608947933   -5.75562459072875
F        -2.69236101330629    0.61566767267957   -5.10822664253799
F        -1.42301360280290    2.36921364280090   -5.11460431326106
C         4.35899308104598   -1.05479048098356    2.68628329080253
F         4.53545615824541   -2.37222162962711    2.79890537355416
F         5.42182427979897   -0.52987923992207    2.07083225743742
F         4.27630406463318   -0.53005676972209    3.91159741938284
72
 energy: -177.473577600669 gnorm: 0.080185926239 xtb: 6.4.1 (a3dbbd7)
C        -1.28710476952547    0.00048651754479    3.44639040484347
C        -0.35971457978931   -1.19459780595762    3.30365807249504
C         0.97492504696628   -0.71888633249020    3.27808437480959
C         0.98305016826073    0.73372439939107    3.28446705745807
C        -0.33459315583470    1.19454764311736    3.31439349897981
C         2.30653955161501   -2.56480450048011    0.57529287604049
C         3.13861091207994   -1.42073545309928    0.54425752075331
C         3.10514124523397   -0.74061272604995    1.91234758927085
C         1.90536946038410   -1.42992876659695    2.55782814384832
C         1.55190637979459   -2.56087687438447    1.80359282279055
C         3.16305434094276    1.43059382423924    0.58872898137570
C         2.32333040766587    2.60460788804964    0.57722469740595
C         1.57484864258285    2.60884285562498    1.80402230740172
C         1.96633616312204    1.43910684984206    2.55089382318980
C         2.98455850820511    0.77786711072725    1.84468902521189
C        -0.36449232649122    3.46484466589598    0.58545109378467
C        -1.73627560390820    3.01003185190436    0.60554503496695
C        -1.96044952569851    2.29669636452812    1.82924918040242
C        -0.73828042369156    2.29543485865334    2.56052931495907
C         0.25218775099927    3.02338529758393    1.79686767172001
C        -3.43044809751311    0.71505637875781    0.57764240092223
C        -3.42778846640285   -0.72785465974599    0.56283147288822
C        -2.79442333317327   -1.16233456675695    1.77126334859738
C        -2.45367384358880    0.00599281453095    2.50096828921054
C        -2.79185220386338    1.15239413289243    1.80405654301067
C        -1.74179652822191   -3.00379509697148    0.58273171424113
C        -0.37086949109354   -3.45237038992479    0.58328816293704
C         0.23280763485360   -3.02200394259644    1.81177831568990
C        -0.73925407367718   -2.28973495409187    2.55882630904662
C        -1.98140160578157   -2.29109016266916    1.79706933535959
C        -0.24801644771545   -3.02617697193252   -1.82185850169749
C         0.74288674524833   -2.30849683830278   -2.57357695749194
C         1.96783540978385   -2.30335858351200   -1.82192989848635
C         1.73047635643061   -3.01692127550611   -0.60682948923238
C         0.35760312461984   -3.46207041441233   -0.59881739631064
C         2.78636906042372   -1.17093064092819   -1.82514710832469
C         2.41920794576442   -0.00539433701283   -2.57057548707265
C         2.79155337773040    1.15973348951531   -1.81105018408031
C         3.39790366555995    0.73280262008971   -0.59211151539030
C         3.38424714458675   -0.72344880924828   -0.60200308464525
C         1.97283772432272    2.29119329574281   -1.82113025947925
C         0.75402346937846    2.27776037587807   -2.57035743055684
C        -0.24748836814510    3.01255086805244   -1.81590184994172
C         0.35961054860482    3.45979858752017   -0.60531898013151
C         1.73263071845966    3.01645373579260   -0.60331360047830
C        -1.57390777748472    2.57147283327495   -1.78314406276930
C        -1.97847654158297    1.43432838168505   -2.50602403511707
C        -2.93756063740819    0.69520989668417   -1.79764891673960
C        -3.19553994714264    1.41839404556443   -0.57660119598605
C        -2.33863083870449    2.58615325120833   -0.56467463877958
C        -2.94834608313107   -0.70383853617369   -1.82630027527916
C        -1.93747120000920   -1.42705992085819   -2.57513713085229
C        -1.57279042163628   -2.59289753834162   -1.82100851766353
C        -2.33382556817511   -2.58660934965686   -0.60798313342076
C        -3.18462354199208   -1.42174516439241   -0.61895222743006
C        -0.98936975648817   -0.77057842045163   -3.32189540090503
C        -1.02866849526557    0.75073502947481   -3.44818713501511
C         0.42851059349189    1.16483664420886   -3.31892845706051
C         1.22573901861252   -0.00451459817294   -3.29198776540026
C         0.37380298650730   -1.17320915696673   -3.29213038304937
C        -1.81610936097174   -0.00213055486132    4.91190182678127
F        -0.81249895079791    0.00373832785643    5.79377971396490
F        -2.56361826628363   -1.08071077802776    5.15639812333928
F        -2.56501603427120    1.07765695506323    5.15248536743259
C        -1.46614003836306    1.06284510343460   -4.91219918160595
F        -0.65941531261283    0.47198171728228   -5.79810932669716
F        -2.70626729688068    0.62665328525643   -5.14756788625748
F        -1.44188970075628    2.37493279862894   -5.15654536991272
C         4.39122247664431   -1.06314725478587    2.70243432070633
F         4.58371679340675   -2.37901709304825    2.82445368543333
F         5.46559598490843   -0.54591213528647    2.09870597498492
F         4.32660619499146   -0.54506380239597    3.93232867578777
72
 energy: -177.485286095266 gnorm: 0.036382541826 xtb: 6.4.1 (a3dbbd7)
C        -1.30022765994100   -0.00026187843334    3.49912949876067
C        -0.37019210240339   -1.18223053937569    3.30178116944063
C         0.97714978996712   -0.71819088506160    3.26989424931454
C         0.97515794181020    0.73155158414787    3.28320876175003
C        -0.35020075164870    1.18535160399181    3.32029058434002
C         2.31390196594476   -2.56078504620918    0.57708092689269
C         3.16801591422927   -1.42286790826997    0.56910488150957
C         3.14144261046504   -0.75414892068757    1.93339354922097
C         1.93496921809404   -1.42554878790942    2.56710377264498
C         1.55568150255702   -2.55261866614281    1.80204536506990
C         3.16986369970224    1.42352806947673    0.58954035233453
C         2.32601119505090    2.59908351499755    0.57434910439630
C         1.57347769011223    2.60058785662863    1.80029423131909
C         1.96483646216639    1.42587701940764    2.54763711055662
C         2.97397191094304    0.75128340994482    1.83785035189069
C        -0.36531774262754    3.46636551978001    0.58281441267991
C        -1.73617018756187    3.00918194292463    0.60163886318686
C        -1.96278224344529    2.29733164385377    1.83317338147146
C        -0.74571312429992    2.29190097799096    2.56603244470374
C         0.25048970539453    3.01434279697279    1.79441349723301
C        -3.42424718341172    0.71373221494833    0.57894364632483
C        -3.42758281139859   -0.72756854819277    0.56468389577051
C        -2.79270213138052   -1.15991375919208    1.78024041282146
C        -2.43962316137401    0.00417751120977    2.53075385186754
C        -2.78864477479829    1.14920718120853    1.81465380476108
C        -1.74582352497586   -3.00328449403844    0.57800755575786
C        -0.37303105144515   -3.44801998656002    0.57952562552210
C         0.23296165188849   -3.00458453194858    1.80467328566008
C        -0.74631868197227   -2.27979521840497    2.55799426943431
C        -1.98764635372618   -2.29157256786255    1.79713492958832
C        -0.24975001057021   -3.02601725967411   -1.82677760238648
C         0.74089266249750   -2.30534077548566   -2.57798046391793
C         1.96590927263613   -2.30097375841236   -1.82178129218995
C         1.73089146088133   -3.01361392526827   -0.60424595039957
C         0.35727541306726   -3.46365017838058   -0.60188422177616
C         2.78059452025111   -1.16784436203506   -1.81595995295227
C         2.41165998383552   -0.00435334191589   -2.56777522761888
C         2.78905303839843    1.15982826733584   -1.81130872593785
C         3.40567522048112    0.73209487549174   -0.59126799086851
C         3.39239284552196   -0.72465314460362   -0.59094068076384
C         1.96699124116839    2.28661242687724   -1.82351763222671
C         0.74483223192583    2.27484069775282   -2.57907032495096
C        -0.24886168242229    3.01487102762261   -1.82350985913386
C         0.35956529632587    3.46189366830387   -0.60918613992569
C         1.73331515671772    3.01703544804461   -0.60647505949166
C        -1.56946212486151    2.56208319406543   -1.79637284574073
C        -1.96803927115143    1.42582091106154   -2.54026466950349
C        -2.93223299200114    0.69431940785515   -1.81156771599019
C        -3.18859856415586    1.41385061493287   -0.58212428895688
C        -2.33322065782190    2.58166999953545   -0.57059167707680
C        -2.95506916563625   -0.70336304923908   -1.83590408220989
C        -1.94057706931450   -1.41968133043970   -2.58645026032549
C        -1.57295482803068   -2.58692865840654   -1.82657203176182
C        -2.33804484108161   -2.58641803006218   -0.61295199230477
C        -3.18863111788757   -1.42054020800757   -0.62189873578893
C        -0.99318942445753   -0.75341937826988   -3.33129512859338
C        -1.04408555411568    0.75920931629544   -3.50892878911826
C         0.40767177543810    1.16557930826475   -3.32814581360570
C         1.21764891484840   -0.00077019006605   -3.29121652977865
C         0.36879185144038   -1.16796650439556   -3.29391178028477
C        -1.83499912449568   -0.00097338296739    4.94793541606678
F        -0.84027163715624    0.00481066676230    5.84039471187817
F        -2.58410516160408   -1.07777259098587    5.20157264654315
F        -2.58923153630220    1.07411635753747    5.19780390786161
C        -1.48457684954566    1.07289981093818   -4.95529396505796
F        -0.68421584969310    0.48698923016546   -5.85110263388512
F        -2.72548328961963    0.64003537295879   -5.19699239928014
F        -1.46471203511359    2.38437787386425   -5.20844126110554
C         4.42681886150490   -1.06988017017916    2.72208705942923
F         4.63585211080191   -2.38434894322221    2.85235715243181
F         5.51075565404413   -0.55894082958996    2.12719113554461
F         4.37897444144671   -0.55761328384701    3.95648819770997
72
 energy: -177.488588062170 gnorm: 0.016769722347 xtb: 6.4.1 (a3dbbd7)
C        -1.30902595774522   -0.00275387094331    3.53968548859161
C        -0.37462392480211   -1.17812111045070    3.29794795817947
C         0.97639802867013   -0.72213579453087    3.26476643874627
C         0.96651855535345    0.72659259658487    3.28324036615170
C        -0.35878020775734    1.17815022137072    3.31974795734359
C         2.32079014754962   -2.56035231888548    0.57910366748524
C         3.18513027440321   -1.42691973896053    0.58027627083802
C         3.16536881501247   -0.76563980926401    1.94924925777867
C         1.94812988779264   -1.42637153564929    2.57442168968823
C         1.55968305777222   -2.54965162398579    1.80295368703104
C         3.16755299237833    1.41499589236913    0.58819391882251
C         2.32429798069981    2.59133084461812    0.57248237159682
C         1.57016552376699    2.59072069774614    1.79657945029297
C         1.95752915340429    1.41255628634332    2.54272530160357
C         2.95202713482858    0.73061978653577    1.82695777713559
C        -0.36458893561335    3.46361081409743    0.58115283662030
C        -1.73440183013794    3.00676576586269    0.59644611820454
C        -1.96308560390004    2.29780962980018    1.83285409789698
C        -0.74897076844602    2.28832059853086    2.56708152051905
C         0.24985202434113    3.00674862948969    1.79260277819093
C        -3.41166707881808    0.71255523237309    0.57957835984369
C        -3.42178337696334   -0.72514964839614    0.56924197314847
C        -2.79051715468194   -1.15740040782797    1.78906679701602
C        -2.43201679545295    0.00420845594993    2.54710873302753
C        -2.78252699838797    1.14507544948172    1.82118083306066
C        -1.74709940893465   -3.00109451505724    0.57760679665014
C        -0.37252337386503   -3.44059758659924    0.57962221619418
C         0.23569994868235   -2.99381658973510    1.80223416852657
C        -0.74822152995875   -2.27573341536939    2.55787063444635
C        -1.99083467236780   -2.29254226337079    1.79976550176265
C        -0.25003196430347   -3.02172818027755   -1.82692728149615
C         0.73910349698418   -2.29957514178924   -2.57782013147708
C         1.96403955167735   -2.29729714786349   -1.82008529597511
C         1.73220723663726   -3.00966893168891   -0.60129948443702
C         0.35823934075264   -3.45919998596819   -0.60132808878447
C         2.77715365332129   -1.16575119661648   -1.81009434877321
C         2.40629356403525   -0.00341053576925   -2.56440934748982
C         2.78945670306017    1.15950842947862   -1.81209576277533
C         3.41043561474860    0.72888207347029   -0.59262018616121
C         3.39557471961259   -0.72787058820434   -0.58534847182215
C         1.96451797578191    2.28252349334235   -1.82478499212060
C         0.74180198944435    2.27423909100206   -2.58378424101409
C        -0.24840367453273    3.01880417382587   -1.82947670182477
C         0.36007621979928    3.46137894987688   -0.61150106055266
C         1.73274352019818    3.01412688674990   -0.60798630091046
C        -1.56589988914700    2.55679110122574   -1.80869135574035
C        -1.96409227188464    1.42344607440022   -2.56149541043773
C        -2.92660613662156    0.69549486227711   -1.82032298742975
C        -3.17726297619495    1.40975054740750   -0.58594950142311
C        -2.32541431597032    2.57658599243812   -0.57807307777344
C        -2.95899693568278   -0.70169606557809   -1.83871584283370
C        -1.94210705501622   -1.41455388522519   -2.59050033115618
C        -1.57185175493318   -2.58023039808575   -1.82754789302356
C        -2.33805222075774   -2.58223641214267   -0.61366473450050
C        -3.18816750594247   -1.41658413481966   -0.62042794417338
C        -0.99589168461913   -0.74270683130660   -3.33133225664440
C        -1.05647752502744    0.76701619850406   -3.55583012843987
C         0.39616792811667    1.16762363049672   -3.33007168919655
C         1.21235155750833    0.00379261755774   -3.28874952894593
C         0.36464660791465   -1.16224896758200   -3.29218637964134
C        -1.84655544887192   -0.00217810493169    4.97732219100934
F        -0.85844882874479    0.00391709181459    5.87821409092393
F        -2.59821556299991   -1.07811826329478    5.23197522732516
F        -2.60461853860868    1.07107976188993    5.22653277212029
C        -1.49748836747098    1.08023524110805   -4.99189084942770
F        -0.70118783518426    0.49774445914253   -5.89493923233063
F        -2.73988825185982    0.65011319216404   -5.23504229114690
F        -1.48020897230871    2.39228140837378   -5.24697125300283
C         4.44978172110495   -1.06972810117985    2.73603905876095
F         4.66574197706874   -2.38373149191590    2.86840802184466
F         5.53514546268313   -0.55968882727390    2.14128747904297
F         4.40886990751984   -0.55892646775351    3.97195086424209
72
 energy: -177.488987454079 gnorm: 0.010447572015 xtb: 6.4.1 (a3dbbd7)
C        -1.31002919279874   -0.00475124039047    3.55068580153074
C        -0.37513980624115   -1.17939299939203    3.29764133082098
C         0.97567677517649   -0.72576397090848    3.26531513866021
C         0.96311859155868    0.72333455253328    3.28420095115186
C        -0.36125382845599    1.17511209270282    3.31845810103905
C         2.32348118447173   -2.56214946423366    0.58036367199102
C         3.18934439604569   -1.43001235932181    0.58094899873388
C         3.16853450827784   -0.76765915778465    1.95248209241213