62
 energy: -137.471670787930 gnorm: 0.181399430707 xtb: 6.4.1 (a3dbbd7)
C        -1.23626340000000    0.00000000000000    3.32997640000000
C        -0.38202640000000   -1.17575640000000    3.32997640000000
C         1.00015810000000   -0.72665740000000    3.32997640000000
C         1.00015810000000    0.72665740000000    3.32997640000000
C        -0.38202640000000    1.17575640000000    3.32997640000000
C         2.34433560000000   -2.60145750000000    0.59464210000000
C         3.19857260000000   -1.42570110000000    0.59464210000000
C         2.96246730000000   -0.69904370000000    1.83090550000000
C         1.96230920000000   -1.42570110000000    2.59495830000000
C         1.58028280000000   -2.60145750000000    1.83090550000000
C         3.19857260000000    1.42570110000000    0.59464210000000
C         2.34433560000000    2.60145750000000    0.59464210000000
C         1.58028280000000    2.60145750000000    1.83090550000000
C         1.96230920000000    1.42570110000000    2.59495830000000
C         2.96246730000000    0.69904370000000    1.83090550000000
C        -0.36750900000000    3.48258920000000    0.59464210000000
C        -1.74969350000000    3.03349030000000    0.59464210000000
C        -1.98579880000000    2.30683290000000    1.83090550000000
C        -0.74953540000000    2.30683290000000    2.59495830000000
C         0.25062270000000    3.03349030000000    1.83090550000000
C        -3.42570570000000    0.72665740000000    0.59464210000000
C        -3.42570570000000   -0.72665740000000    0.59464210000000
C        -2.80757400000000   -1.17575640000000    1.83090550000000
C        -2.42554760000000    0.00000000000000    2.59495830000000
C        -2.80757400000000    1.17575640000000    1.83090550000000
C        -1.74969350000000   -3.03349030000000    0.59464210000000
C        -0.36750900000000   -3.48258920000000    0.59464210000000
C         0.25062270000000   -3.03349030000000    1.83090550000000
C        -0.74953540000000   -2.30683290000000    2.59495830000000
C        -1.98579880000000   -2.30683290000000    1.83090550000000
C        -0.25062270000000   -3.03349030000000   -1.83090550000000
C         0.74953540000000   -2.30683290000000   -2.59495830000000
C         1.98579880000000   -2.30683290000000   -1.83090550000000
C         1.74969350000000   -3.03349030000000   -0.59464210000000
C         0.36750900000000   -3.48258920000000   -0.59464210000000
C         2.80757400000000   -1.17575640000000   -1.83090550000000
C         2.42554760000000    0.00000000000000   -2.59495830000000
C         2.80757400000000    1.17575640000000   -1.83090550000000
C         3.42570570000000    0.72665740000000   -0.59464210000000
C         3.42570570000000   -0.72665740000000   -0.59464210000000
C         1.98579880000000    2.30683290000000   -1.83090550000000
C         0.74953540000000    2.30683290000000   -2.59495830000000
C        -0.25062270000000    3.03349030000000   -1.83090550000000
C         0.36750900000000    3.48258920000000   -0.59464210000000
C         1.74969350000000    3.03349030000000   -0.59464210000000
C        -1.58028280000000    2.60145750000000   -1.83090550000000
C        -1.96230920000000    1.42570110000000   -2.59495830000000
C        -2.96246730000000    0.69904370000000   -1.83090550000000
C        -3.19857260000000    1.42570110000000   -0.59464210000000
C        -2.34433560000000    2.60145750000000   -0.59464210000000
C        -2.96246730000000   -0.69904370000000   -1.83090550000000
C        -1.96230920000000   -1.42570110000000   -2.59495830000000
C        -1.58028280000000   -2.60145750000000   -1.83090550000000
C        -2.34433560000000   -2.60145750000000   -0.59464210000000
C        -3.19857260000000   -1.42570110000000   -0.59464210000000
C        -1.00015810000000   -0.72665740000000   -3.32997640000000
C        -1.00015810000000    0.72665740000000   -3.32997640000000
C         0.38202640000000    1.17575640000000   -3.32997640000000
C         1.23626340000000    0.00000000000000   -3.32997640000000
C         0.38202640000000   -1.17575640000000   -3.32997640000000
Cl       -1.84886636902500    0.00000000000000    5.03315507598844
Cl        1.13562277516058   -3.49508764933262   -3.90457167402688
62
 energy: -137.514310429899 gnorm: 0.101412399931 xtb: 6.4.1 (a3dbbd7)
C        -1.25055719651309    0.00043041205413    3.35866859511710
C        -0.36405644954280   -1.18140592332158    3.33096423695095
C         1.00057879564601   -0.72320815546547    3.31728820998261
C         0.99953190752990    0.72616581410634    3.31578239666538
C        -0.36453712848940    1.18285187858050    3.32897270771577
C         2.34108289326680   -2.59063193395003    0.59893960668839
C         3.18840762685446   -1.42083332182461    0.59543745827979
C         2.95168486575203   -0.69515180638862    1.82254946093950
C         1.96096251156608   -1.42093070170339    2.58614912489418
C         1.58077524463111   -2.58889294250316    1.82780648979685
C         3.18407996691277    1.41878790607105    0.58913686303498
C         2.33554480190767    2.59008712961469    0.59063757687548
C         1.57891555615138    2.59135414677962    1.82157195996286
C         1.95997089197144    1.42350963660920    2.58213699689123
C         2.95079490407479    0.69704504528158    1.82080850053829
C        -0.36427898114253    3.46448053079855    0.59381962297231
C        -1.74083657528165    3.01733949526146    0.59370258558668
C        -1.97304416941941    2.29427467646910    1.81824469915489
C        -0.73586957386241    2.29417716429241    2.58146784790191
C         0.25441219317466    3.02256035092620    1.82407827404590
C        -3.42073696974273    0.72216094812246    0.57900724701203
C        -3.42004248436970   -0.72343817234896    0.57912346796670
C        -2.79500462197909   -1.16707375288799    1.80585120414772
C        -2.43288613725485   -0.00045411009455    2.54827287608822
C        -2.79543513526261    1.16580621756022    1.80382645517084
C        -1.74090877114441   -3.01717148402977    0.59936122221863
C        -0.36584214847779   -3.45923485999311    0.60111490573551
C         0.25610851038018   -3.02055186297459    1.82961275155315
C        -0.73485793187260   -2.29301560246343    2.58634170284190
C        -1.97273617913997   -2.29463592686861    1.82216083820328
C        -0.25494165465806   -3.01105299104940   -1.80150862863489
C         0.76829636530926   -2.34937208528995   -2.64664699120240
C         1.98738063825066   -2.30888565033594   -1.80748698353803
C         1.74244449605369   -3.01884632623381   -0.58395466823103
C         0.36380396391979   -3.46219689797660   -0.58440398130186
C         2.78923851217679   -1.17371167560425   -1.81353380387412
C         2.41192266133571    0.00130800942197   -2.58337093620011
C         2.79095074844052    1.16737843864875   -1.82436577898552
C         3.40825690906729    0.72122862413305   -0.59348274133177
C         3.41092873632051   -0.72501678481351   -0.59054677469921
C         1.97470581996823    2.29895492510592   -1.82203702172325
C         0.74287196456105    2.30476276567269   -2.58081053475722
C        -0.25234222484726    3.02460983650396   -1.82020792182245
C         0.36502714688328    3.46685951219426   -0.59009869165748
C         1.74120973226763    3.01950822692039   -0.59320011433897
C        -1.57664810134870    2.59375567380218   -1.82022283540835
C        -1.95755024558759    1.42583045555243   -2.58241076401309
C        -2.95237425630061    0.69814019556600   -1.82598129528886
C        -3.18965825739409    1.42056369437864   -0.59984633222103
C        -2.33630456354908    2.59044057173241   -0.59265000339075
C        -2.95005630706397   -0.69666568936647   -1.82814833554642
C        -1.95641076040320   -1.41614920914713   -2.58488107757568
C        -1.57321686302612   -2.58476383370448   -1.81123027593674
C        -2.33657375117689   -2.58785064629899   -0.58879869212950
C        -3.18812485492207   -1.42081316548015   -0.59827253534019
C        -0.99733829176162   -0.71069420132070   -3.31589538261152
C        -0.99915651804870    0.73611705197571   -3.31165841962942
C         0.37464277706345    1.18303699934147   -3.31167518727906
C         1.22255067910487    0.01152067912223   -3.31674348422853
C         0.37129163374944   -1.14137504254546   -3.32066271401433
Cl       -1.88259733780912    0.00010583093263    5.10483758244900
Cl        1.15330739323622   -3.56621573688011   -3.98435715850865
62
 energy: -137.533040684493 gnorm: 0.047413978149 xtb: 6.4.1 (a3dbbd7)
C        -1.28720331699232    0.00131032409834    3.47924168917249
C        -0.35221947945827   -1.17779221658284    3.28989728096640
C         0.99157826969072   -0.71993042576288    3.28529113654307
C         0.99037440729453    0.72251897514409    3.28267531520387
C        -0.35127143057352    1.17989600137477    3.28769390173421
C         2.33736739518122   -2.57561905590886    0.60015215894391
C         3.18036516241415   -1.41519971140131    0.59736546771825
C         2.94411411963389   -0.69363031473942    1.81692443838620
C         1.95738143139782   -1.42025441617890    2.57242227534817
C         1.57850782385245   -2.58049812857820    1.82100830193144
C         3.17366348916458    1.41467458841953    0.58716862574675
C         2.33022136330981    2.58159833073770    0.58782603940972
C         1.57764906994909    2.58220484999572    1.81077865794911
C         1.95725432024463    1.42142409694682    2.56548917024110
C         2.94151788404170    0.69457333022035    1.81295071301996
C        -0.36145817175580    3.45205645620767    0.58810463241385
C        -1.73292286631167    3.00370118640031    0.59053728648251
C        -1.96640542592093    2.28928780939379    1.80625529440021
C        -0.72612652419465    2.28033050382455    2.55330226396479
C         0.25602228582919    3.01272648262935    1.81078784847555
C        -3.40942355966452    0.71897746711348    0.57113474701682
C        -3.40786705273851   -0.71760792067910    0.57122942754404
C        -2.77655295369535   -1.15149661432902    1.79475522934671
C        -2.43766019500447    0.00042608443376    2.53524447619606
C        -2.77599313956388    1.15156827064205    1.79054643915488
C        -1.73578252387554   -3.00521418763946    0.60205752731981
C        -0.36893145691954   -3.44751673317927    0.60149074061840
C         0.25553711341302   -3.01195173985745    1.81995431593922
C        -0.72708662780867   -2.27904001636335    2.56214027929499
C        -1.96972241821528   -2.28942982485467    1.81374667915030
C        -0.26189351433210   -2.99890878770296   -1.78160724744765
C         0.79103204804201   -2.42577811070663   -2.72017351790042
C         1.98108969761047   -2.28030721144428   -1.78310608635994
C         1.73240751136941   -2.98653615183256   -0.58190177701762
C         0.35770249731822   -3.43094925186599   -0.58221339773491
C         2.77456345320872   -1.15945692758820   -1.79466700754854
C         2.40482749842577    0.00917040644974   -2.56913971425731
C         2.77983788331429    1.16307059864397   -1.81667207233349
C         3.39523617218287    0.72047450938793   -0.58965268354424
C         3.40053008245289   -0.71813755904000   -0.58432768801447
C         1.96697111871931    2.29531599519280   -1.81452763849534
C         0.73929598557634    2.30139825320187   -2.57115367059648
C        -0.25051250596922    3.01754941980034   -1.81462357192899
C         0.36469516258331    3.45465571013500   -0.58962495481612
C         1.73571094280740    3.00779725606238   -0.59284415181745
C        -1.57115319459666    2.58754979853111   -1.81358376424321
C        -1.95083927794685    1.42600758549770   -2.57532722315973
C        -2.94263520818493    0.70035138852781   -1.82322357456056
C        -3.17655010379798    1.41543594155080   -0.60332276203763
C        -2.32752672557923    2.58240150782452   -0.59514123167377
C        -2.93578517751080   -0.69346817694312   -1.82526919031421
C        -1.95096102405499   -1.40666129915767   -2.57259697938416
C        -1.56517417599445   -2.57027596707072   -1.79486652313797
C        -2.33049521380507   -2.57817159948756   -0.58684497760920
C        -3.17476685766237   -1.41413968984208   -0.59867027979004
C        -0.98280793982727   -0.70077503213451   -3.28753417129288
C        -0.99563982392083    0.74254687050126   -3.30105165227665
C         0.37014619383611    1.18686059025419   -3.30060062356072
C         1.20616646679482    0.01289622859236   -3.28622822067176
C         0.36438846449217   -1.12007937445820   -3.31022058389541
Cl       -1.92971706089040    0.00063484334992    5.26189515192942
Cl        1.18368603875072   -3.65765286508936   -4.08076717217979
62
 energy: -137.535922981774 gnorm: 0.023046316842 xtb: 6.4.1 (a3dbbd7)
C        -1.29025203410223    0.00384756188357    3.49768372978951
C        -0.36421886090102   -1.17428900723802    3.31818671484252
C         0.98499891450170   -0.71765129717542    3.29554686096927
C         0.98346688472182    0.72498237540049    3.29234632137137
C        -0.36371091777929    1.18148164388331    3.31534022592118
C         2.33456404069921   -2.57438859490894    0.59490965843372
C         3.17840340156516   -1.41401258031355    0.59438947832416
C         2.94394772249846   -0.69226371496558    1.81747693936050
C         1.95271831595681   -1.41480053840294    2.57518720075011
C         1.57700758624665   -2.57453986061493    1.82013874380386
C         3.17426518856724    1.41518613110824    0.58574411217659
C         2.33129651483274    2.58418389279898    0.58814425592955
C         1.57606564600778    2.58148320292867    1.81236238372457
C         1.95220823645711    1.41993202251703    2.56796595733308
C         2.94087217118818    0.69610732817653    1.81363952528052
C        -0.36209996004175    3.45199710282161    0.59034645560713
C        -1.73412004166510    3.00442408436682    0.59306916865200
C        -1.96852262910807    2.29165374533374    1.81325297610938
C        -0.73240654654402    2.28134098920176    2.56883947809175
C         0.25269575266810    3.00641523217393    1.81402785512547
C        -3.40391346544910    0.72106228533688    0.57581815523839
C        -3.40123525907629   -0.71602085869240    0.57505741570362
C        -2.77604608921684   -1.14915000520796    1.80549902510250
C        -2.43270195041983    0.00272509122269    2.55523849581083
C        -2.77577589666836    1.15329425664949    1.80162196301788
C        -1.73225504935071   -2.99819249952075    0.60092548664709
C        -0.36529386653206   -3.43924827063679    0.59730409410110
C         0.25294523564493   -2.99907671817637    1.81988973929925
C        -0.73240423864265   -2.27510440815763    2.57708846242961
C        -1.97061047958813   -2.28701607399379    1.81976698864616
C        -0.25388153192299   -3.01367631274133   -1.80531749309946
C         0.79506033631303   -2.43512187650522   -2.73162831216252
C         1.98597643478494   -2.29611329167913   -1.80777253181431
C         1.73454017123171   -2.98911016527676   -0.59201253010391
C         0.35972617776430   -3.43108228319631   -0.59126999806685
C         2.77720331333538   -1.16776548542187   -1.80891978284173
C         2.40701236698196    0.00590591144068   -2.57739927067439
C         2.77875589360087    1.16244011557625   -1.82069766362657
C         3.39430420568828    0.71983974874692   -0.59328998417693
C         3.39457207773515   -0.72005848196914   -0.59074388613229
C         1.96752140108260    2.29662781728711   -1.81652714971816
C         0.73945797865355    2.30150381622690   -2.57292851902408
C        -0.25044187196494    3.02199353037330   -1.81685410031311
C         0.36464182284559    3.45809900826758   -0.58924659987061
C         1.73678523229665    3.01107198804580   -0.59341220485313
C        -1.57220884869748    2.59171829870331   -1.81581363492185
C        -1.94991909780975    1.42677395329960   -2.57740467412284
C        -2.94353956161227    0.70212133443524   -1.82553678079444
C        -3.17547327554081    1.41710411055969   -0.60223175730120
C        -2.32843730891944    2.58608687346182   -0.59485653016791
C        -2.93371625429172   -0.69247189993581   -1.82854302601267
C        -1.94976039717890   -1.40957690352223   -2.58049962195694
C        -1.55955688795778   -2.57500335731006   -1.80707837424433
C        -2.32128227858926   -2.57333134890321   -0.59101921554894
C        -3.16988215068147   -1.41117630403445   -0.59929139627367
C        -0.97916023882212   -0.70852792222302   -3.29613471586852
C        -0.99349640620478    0.73808824840513   -3.30251554410040
C         0.37271111946278    1.18220896714919   -3.30190170744798
C         1.20980234646691    0.00489320057523   -3.29504830851228
C         0.37138268165608   -1.13804826755509   -3.32084019870650
Cl       -1.93678348591464    0.00366909356740    5.26680700384392
Cl        1.18495411587371   -3.65853228297880   -4.08829595701654
62
 energy: -137.536693575003 gnorm: 0.013570583854 xtb: 6.4.1 (a3dbbd7)
C        -1.29559231505103    0.00491227889744    3.52102558843898
C        -0.37192929242052   -1.17163420656612    3.32767145227633
C         0.97966369176724   -0.71692687737931    3.29578370037002
C         0.97811893756462    0.72547261790108    3.29231302536206
C        -0.37124254074309    1.18039010879255    3.32416860352262
C         2.33241176424100   -2.57254790573811    0.59119899788137
C         3.17773370705019   -1.41332950068787    0.59308882534425
C         2.94341266178756   -0.69147890656062    1.81731442851872
C         1.94958397870215   -1.41216229464638    2.57437815766861
C         1.57543820051804   -2.57119397697489    1.81790181518608
C         3.17529971058673    1.41603126819045    0.58535616887550
C         2.33274724920273    2.58588437784908    0.58783712620213
C         1.57551007509105    2.58097990047239    1.81225535265351
C         1.94903110504581    1.41870182096724    2.56751965708611
C         2.93973867316419    0.69678786235575    1.81330344865047
C        -0.36202775071771    3.45095537614894    0.59011529862362
C        -1.73491804231483    3.00547093359006    0.59343351258622
C        -1.97053887785406    2.29526135284979    1.81604504410527
C        -0.73522903916810    2.28037601924923    2.57310093859070
C         0.25138431177518    3.00189030142990    1.81386350396044
C        -3.39816736016166    0.72181296407817    0.57914755100163
C        -3.39510245625269   -0.71477208717456    0.57796499247295
C        -2.77409592572509   -1.14733914309651    1.81250051887005
C        -2.42647760370740    0.00405113704396    2.56579693478590
C        -2.77352932488851    1.15383626671363    1.80865213648663
C        -1.73128794790375   -2.99564564667776    0.59995614773038
C        -0.36402963219657   -3.43425095161451    0.59412130767774
C         0.25089715955394   -2.99098557812296    1.81734092208930
C        -0.73582804529635   -2.27250272997040    2.58149512720463
C        -1.97293471462160   -2.28786797998462    1.82262912438513
C        -0.24983602217538   -3.02188048683616   -1.81870452611749
C         0.79843503413819   -2.44665185101901   -2.74216797175441
C         1.98685548619009   -2.30037267781714   -1.82007957823100
C         1.73448898221356   -2.98681488472913   -0.59784125444779
C         0.35978508882282   -3.42792609054180   -0.59650487098179
C         2.77788699319893   -1.17010138732986   -1.81409616416127
C         2.40939037268557    0.00585667293553   -2.58041805072306
C         2.77959823719773    1.16303715699329   -1.82223312675327
C         3.39393402381002    0.71978035658689   -0.59449495361702
C         3.39198192158507   -0.72061694267643   -0.59304005884187
C         1.96862038746318    2.29757167473536   -1.81741205825853
C         0.74003233228779    2.30089225866443   -2.57375589951081
C        -0.24956884555308    3.02339432538681   -1.81852370743006
C         0.36540332383274    3.45985460447076   -0.58991341601159
C         1.73818330762619    3.01292098544939   -0.59405241962160
C        -1.57220049444734    2.59297291281564   -1.81693539739441
C        -1.94949591206616    1.42643467795556   -2.57771710864902
C        -2.94426785087647    0.70282947256188   -1.82544739796815
C        -3.17425158405378    1.41770091545798   -0.60075357684426
C        -2.32878507615895    2.58829494826941   -0.59533990615716
C        -2.93338787313116   -0.69202311862244   -1.82872465669304
C        -1.95099224807839   -1.41138752091910   -2.58302932810831
C        -1.55601074929241   -2.57657750327402   -1.81181806081056
C        -2.31572696975883   -2.57127423226128   -0.59275224887408
C        -3.16616595239261   -1.40917167854091   -0.59832460108120
C        -0.97634629969663   -0.71385637200170   -3.29645191043003
C        -0.99193059697821    0.73462786842955   -3.30076649617971
C         0.37380217156421    1.17840555143098   -3.30047840861028
C         1.21100691821889   -0.00077859615911   -3.29535904124415
C         0.37466389518561   -1.14792656711696   -3.32125313068033
Cl       -1.94534915410093    0.00565624278995    5.27631694587036
Cl        1.18896320184785   -3.65813516575606   -4.09662362632989
62
 energy: -137.536957599900 gnorm: 0.008233012705 xtb: 6.4.1 (a3dbbd7)
C        -1.29846404057450    0.00498607861128    3.53410419705961
C        -0.37477844945261   -1.17040146364993    3.32623936820870
C         0.97750038938715   -0.71716953416702    3.29285667130211
C         0.97607750110709    0.72516900037066    3.28920074432934
C        -0.37391540467065    1.17882927283960    3.32241730090756
C         2.33178036046482   -2.57198883220166    0.59005552805354
C         3.17821963575833   -1.41334439192715    0.59299967404017
C         2.94370537772998   -0.69152169134015    1.81738382095371
C         1.94878645173959   -1.41191900701120    2.57326597720902
C         1.57486351112177   -2.57103144331862    1.81681538484835
C         3.17663841256690    1.41660483401542    0.58545015234777
C         2.33391878840315    2.58657783829759    0.58745169159152
C         1.57568499899691    2.58105578167056    1.81181004536836
C         1.94831997197618    1.41814258533384    2.56656427139104
C         2.93968216507012    0.69676092878620    1.81298899314536
C        -0.36198222540789    3.45082688112921    0.58943625127257
C        -1.73557832693633    3.00686796572307    0.59311814702542
C        -1.97182518732392    2.29787637275521    1.81633783373374
C        -0.73586174392362    2.27993577905628    2.57243772327886
C         0.25133475068184    3.00031612228596    1.81289692166352
C        -3.39552069885749    0.72170370517430    0.58040956202169
C        -3.39271157651366   -0.71454786385376    0.57921517075811
C        -2.77257376673330   -1.14680142309938    1.81495827783975
C        -2.42164860175576    0.00431547717032    2.56812965429984
C        -2.77171402492954    1.15362844955572    1.81105558447103
C        -1.73231437195663   -2.99704346327185    0.59965207859558
C        -0.36436483316535   -3.43421571601626    0.59326342926221
C         0.25005562462815   -2.98906014091428    1.81567447125890
C        -0.73716822517709   -2.27234949715144    2.58103133584665
C        -1.97478680710139   -2.28996435119291    1.82340316138413
C        -0.24923026598648   -3.02419972102961   -1.82231697319911
C         0.79919978150507   -2.45198200328462   -2.74573113756404
C         1.98539196393054   -2.29834311001569   -1.82238542053394
C         1.73362298311494   -2.98444237584224   -0.59909011516683
C         0.35897543697134   -3.42610531013159   -0.59761540759303
C         2.77826602875453   -1.16959668507920   -1.81429290779221
C         2.41099096127817    0.00680252954589   -2.58074009342073
C         2.78129774231031    1.16398211192066   -1.82253403875854
C         3.39484167213427    0.71999811663659   -0.59463265951711
C         3.39229509292335   -0.72061758901527   -0.59309595424154
C         1.96957675495245    2.29802758664001   -1.81767962595079
C         0.74050414033363    2.30053420699866   -2.57420591383941
C        -0.24892945026354    3.02333713054979   -1.81933030229352
C         0.36593476888731    3.46070481370305   -0.59047134568520
C         1.73905052076948    3.01367145760333   -0.59435744065186
C        -1.57201656443219    2.59290821118031   -1.81735146546819
C        -1.94960294104316    1.42603010860625   -2.57767214285125
C        -2.94476670595612    0.70274139818535   -1.82474331131667
C        -3.17406787377873    1.41787561378969   -0.59991089881015
C        -2.32893742401312    2.58927301808870   -0.59579704251971
C        -2.93439385907591   -0.69215591489447   -1.82782395947074
C        -1.95265700390135   -1.41223890673967   -2.58275957508147
C        -1.55544679344402   -2.57679507850110   -1.81201405231739
C        -2.31465492131342   -2.57203542439014   -0.59284564601773
C        -3.16567556642528   -1.40895353268192   -0.59744987790555
C        -0.97535051372043   -0.71582263092016   -3.29402002276984
C        -0.99142442929922    0.73328696513182   -3.29953026167775
C         0.37391045025855    1.17676680156601   -3.29947577087939
C         1.21102506888214   -0.00301596530490   -3.29308508227317
C         0.37517945600433   -1.15089436790146   -3.31763604036947
Cl       -1.94907580604537    0.00649223849549    5.27589872112110
Cl        1.19156404667124   -3.65255959590178   -4.09734425669136
62
 energy: -137.537064398175 gnorm: 0.004400779730 xtb: 6.4.1 (a3dbbd7)
C        -1.29953218121753    0.00479571061074    3.53958148276866
C        -0.37491372061163   -1.17007186201105    3.32219404120579
C         0.97715509187114   -0.71756293723150    3.29041194599437
C         0.97587292859000    0.72484218763137    3.28666563766996
C        -0.37396626600384    1.17785820245596    3.31829524627984
C         2.33186748111089   -2.57209307898034    0.59022781685308
C         3.17877998807437   -1.41354556673357    0.59323437927030
C         2.94411040302310   -0.69185224941299    1.81746564310199
C         1.94894650615968   -1.41250758788210    2.57265897979167
C         1.57483604772101   -2.57197587128907    1.81669184052733
C         3.17742280642976    1.41671986681461    0.58556471868409
C         2.33444229603891    2.58658023085090    0.58719828117550
C         1.57597202085011    2.58129302194017    1.81146667482699
C         1.94861847631412    1.41803576189029    2.56589917410626
C         2.94003822624416    0.69649121529715    1.81280935474583
C        -0.36198607028833    3.45116434946350    0.58905254586946
C        -1.73591261150340    3.00776519191915    0.59296295363277
C        -1.97237631965418    2.29906072200730    1.81595615988049
C        -0.73562553340572    2.28016811531247    2.57112801983639
C         0.25165303135704    3.00035443356764    1.81222598671486
C        -3.39506552336115    0.72137197236647    0.58054453238148
C        -3.39256950076036   -0.71475620267253    0.57947929012577
C        -2.77176956767017   -1.14681232927810    1.81502035412288
C        -2.41919708531219    0.00414845008431    2.56691566085563
C        -2.77074445130117    1.15316890160735    1.81103259852077
C        -1.73358849460626   -2.99909571077487    0.59988978964859
C        -0.36509543645565   -3.43604811846506    0.59365058240613
C         0.24991186728392   -2.98992008912188    1.81518908513754
C        -0.73731383559050   -2.27318418918910    2.57978958869900
C        -1.97570608323864   -2.29153906606709    1.82341979302290
C        -0.25002988654135   -3.02394926100812   -1.82132899502141
C         0.79884418430240   -2.45328160759608   -2.74595068513689
C         1.98364486959796   -2.29514921714059   -1.82053731571533
C         1.73280204385616   -2.98317954465658   -0.59838378267606
C         0.35820028647536   -3.42575063543976   -0.59696302210505
C         2.77863190582088   -1.16869683211161   -1.81321184934774
C         2.41164237422052    0.00748970454443   -2.58039065816229
C         2.78248522675956    1.16449255755576   -1.82248211569672
C         3.39584123203763    0.72014893783435   -0.59453190501989
C         3.39335512373582   -0.72049492694503   -0.59261390291429
C         1.97001518420047    2.29803502812393   -1.81771157435037
C         0.74072701196011    2.30038539200915   -2.57440580025957
C        -0.24866472034723    3.02290511723818   -1.81955196105227
C         0.36609359308717    3.46080590775921   -0.59067527338845
C         1.73930726494915    3.01366804187286   -0.59444333431207
C        -1.57188335710583    2.59252306898229   -1.81734440508109
C        -1.94971465296977    1.42573950409340   -2.57751607502119
C        -2.94485982685152    0.70238250021051   -1.82420380692729
C        -3.17416858441532    1.41781501888983   -0.59960949589351
C        -2.32885931449609    2.58940754710986   -0.59595166083866
C        -2.93522284176262   -0.69250545963370   -1.82700047699790
C        -1.95349315138730   -1.41250979299886   -2.58181252833661
C        -1.55615509686329   -2.57675647467010   -1.81082856118033
C        -2.31549999692197   -2.57345329876231   -0.59237623164806
C        -3.16648513000872   -1.40946665561896   -0.59696070153938
C        -0.97526850284575   -0.71578099325660   -3.29185747846164
C        -0.99144420754556    0.73325866393751   -3.29930461757928
C         0.37373284865742    1.17658060631018   -3.29942296941644
C         1.21070016710489   -0.00318285458616   -3.29126737803116
C         0.37462189151452   -1.15043976797260   -3.31451459304698
Cl       -1.94909275258438    0.00673126083234    5.26928888072241
Cl        1.19268873041474   -3.64571265894950   -4.09417448145924
62
 energy: -137.537093673824 gnorm: 0.002159111817 xtb: 6.4.1 (a3dbbd7)
C        -1.29958723408485    0.00469567129581    3.53990486747024
C        -0.37402691384620   -1.17030036765733    3.32040344981697
C         0.97758191463245   -0.71769816260989    3.28996524700405
C         0.97635709123361    0.72478296781093    3.28623848330438
C        -0.37307109178752    1.17786231224698    3.31654791184179