72
 energy: -177.376021985477 gnorm: 0.259870128507 xtb: 6.4.1 (a3dbbd7)
C        -1.23626340000000    0.00000000000000    3.32997640000000
C        -0.38202640000000   -1.17575640000000    3.32997640000000
C         1.00015810000000   -0.72665740000000    3.32997640000000
C         1.00015810000000    0.72665740000000    3.32997640000000
C        -0.38202640000000    1.17575640000000    3.32997640000000
C         2.34433560000000   -2.60145750000000    0.59464210000000
C         3.19857260000000   -1.42570110000000    0.59464210000000
C         2.96246730000000   -0.69904370000000    1.83090550000000
C         1.96230920000000   -1.42570110000000    2.59495830000000
C         1.58028280000000   -2.60145750000000    1.83090550000000
C         3.19857260000000    1.42570110000000    0.59464210000000
C         2.34433560000000    2.60145750000000    0.59464210000000
C         1.58028280000000    2.60145750000000    1.83090550000000
C         1.96230920000000    1.42570110000000    2.59495830000000
C         2.96246730000000    0.69904370000000    1.83090550000000
C        -0.36750900000000    3.48258920000000    0.59464210000000
C        -1.74969350000000    3.03349030000000    0.59464210000000
C        -1.98579880000000    2.30683290000000    1.83090550000000
C        -0.74953540000000    2.30683290000000    2.59495830000000
C         0.25062270000000    3.03349030000000    1.83090550000000
C        -3.42570570000000    0.72665740000000    0.59464210000000
C        -3.42570570000000   -0.72665740000000    0.59464210000000
C        -2.80757400000000   -1.17575640000000    1.83090550000000
C        -2.42554760000000    0.00000000000000    2.59495830000000
C        -2.80757400000000    1.17575640000000    1.83090550000000
C        -1.74969350000000   -3.03349030000000    0.59464210000000
C        -0.36750900000000   -3.48258920000000    0.59464210000000
C         0.25062270000000   -3.03349030000000    1.83090550000000
C        -0.74953540000000   -2.30683290000000    2.59495830000000
C        -1.98579880000000   -2.30683290000000    1.83090550000000
C        -0.25062270000000   -3.03349030000000   -1.83090550000000
C         0.74953540000000   -2.30683290000000   -2.59495830000000
C         1.98579880000000   -2.30683290000000   -1.83090550000000
C         1.74969350000000   -3.03349030000000   -0.59464210000000
C         0.36750900000000   -3.48258920000000   -0.59464210000000
C         2.80757400000000   -1.17575640000000   -1.83090550000000
C         2.42554760000000    0.00000000000000   -2.59495830000000
C         2.80757400000000    1.17575640000000   -1.83090550000000
C         3.42570570000000    0.72665740000000   -0.59464210000000
C         3.42570570000000   -0.72665740000000   -0.59464210000000
C         1.98579880000000    2.30683290000000   -1.83090550000000
C         0.74953540000000    2.30683290000000   -2.59495830000000
C        -0.25062270000000    3.03349030000000   -1.83090550000000
C         0.36750900000000    3.48258920000000   -0.59464210000000
C         1.74969350000000    3.03349030000000   -0.59464210000000
C        -1.58028280000000    2.60145750000000   -1.83090550000000
C        -1.96230920000000    1.42570110000000   -2.59495830000000
C        -2.96246730000000    0.69904370000000   -1.83090550000000
C        -3.19857260000000    1.42570110000000   -0.59464210000000
C        -2.34433560000000    2.60145750000000   -0.59464210000000
C        -2.96246730000000   -0.69904370000000   -1.83090550000000
C        -1.96230920000000   -1.42570110000000   -2.59495830000000
C        -1.58028280000000   -2.60145750000000   -1.83090550000000
C        -2.34433560000000   -2.60145750000000   -0.59464210000000
C        -3.19857260000000   -1.42570110000000   -0.59464210000000
C        -1.00015810000000   -0.72665740000000   -3.32997640000000
C        -1.00015810000000    0.72665740000000   -3.32997640000000
C         0.38202640000000    1.17575640000000   -3.32997640000000
C         1.23626340000000    0.00000000000000   -3.32997640000000
C         0.38202640000000   -1.17575640000000   -3.32997640000000
C        -1.76086815247998    0.00000000000000    4.78849957557021
F        -0.76911826531252    0.00000000000000    5.67468926254662
F        -2.50968386795825   -1.06794314680471    5.04863888333743
F        -2.50968386795825    1.06794314680471    5.04863888333743
C         2.28376457660886   -3.72927671755932    2.62817408867206
F         3.59030321655004   -3.51265997057976    2.75037870097715
F         2.14318168460923   -4.91533956626619    2.04303190988612
F         1.79618325340524   -3.84739782561575    3.85992562899767
C         0.34440953624153    4.35941144868709    2.62817404748705
F        -0.83992598883967    4.95213069234126    2.75037577510431
F         1.15529636597892    5.23632261667420    2.04303359185445
F         0.80829780400759    4.16837989546168    3.85992670963205
72
 energy: -177.434886962884 gnorm: 0.164351621325 xtb: 6.4.1 (a3dbbd7)
C        -1.25041825622944   -0.00442620153982    3.33418195169362
C        -0.36392274434658   -1.18791399323366    3.33509243433737
C         0.99934307392680   -0.71390429557853    3.31318967222279
C         0.99651190521979    0.72926890934737    3.31460599287523
C        -0.36571402113307    1.18230462498851    3.33333875105468
C         2.34891554291835   -2.60783490919621    0.56069365956563
C         3.18131516400916   -1.42681394174806    0.57921572224286
C         2.95634574425876   -0.69529982054563    1.81341734123137
C         1.96492831744268   -1.39116386102591    2.57610932773527
C         1.61630203185778   -2.63006231120236    1.84657515668534
C         3.19601043172674    1.41534761983309    0.58833794170644
C         2.34016650694233    2.58396093513071    0.59569985240844
C         1.61267821616751    2.57895831422005    1.83523232073582
C         1.96950442246322    1.41776123737612    2.57878943921553
C         2.96364250002643    0.69732591248685    1.81701773023334
C        -0.37573283706683    3.45446390534909    0.56144632155051
C        -1.74115820721627    3.00828563184554    0.58420796548030
C        -1.97381294445124    2.28805941940252    1.81699558928806
C        -0.75192067367845    2.27397665148095    2.57320202153499
C         0.25775155054538    3.09298886248189    1.85005996318539
C        -3.42963337233755    0.72195868432158    0.57429130215261
C        -3.42977268563263   -0.72346671712151    0.57381591139067
C        -2.80892646872831   -1.16842836026771    1.80043611707480
C        -2.44677993240119   -0.00026291609098    2.53537802734662
C        -2.80787328822016    1.16246516099054    1.80311650234299
C        -1.75498984321169   -3.01697264075107    0.59646529098067
C        -0.37326336398199   -3.45292711572281    0.60035670622820
C         0.22209380473850   -3.02807886739319    1.83774353071447
C        -0.74879228856110   -2.29619827441585    2.58242327585368
C        -1.98923782797812   -2.29510784247526    1.81810047142276
C        -0.25070037733689   -3.02004052317586   -1.82009206036181
C         0.74437994939042   -2.29631837003072   -2.58452432750087
C         1.97932933706860   -2.29838011627146   -1.83354400722792
C         1.74165345850596   -3.02236582645668   -0.60791915786159
C         0.35932626811448   -3.46492474452063   -0.59276304696796
C         2.79953470016930   -1.17043575413145   -1.83028957591520
C         2.41590867722366    0.00300041994947   -2.58500976812334
C         2.79865304267009    1.17047386249830   -1.82600175781837
C         3.41486229730294    0.72100004781074   -0.59835343079811
C         3.41636488058354   -0.72657019833898   -0.60352239748487
C         1.97683008628605    2.30028272640133   -1.82167751569255
C         0.74363726345901    2.29799365907698   -2.58352281279930
C        -0.25384546145026    3.02366509629942   -1.83296705317196
C         0.36168651848688    3.45865544437851   -0.60557184380733
C         1.74534873111533    3.01907954270599   -0.59525388646090
C        -1.58082172391611    2.59115206993742   -1.82738910231358
C        -1.95775415559208    1.41952359062855   -2.58701868823689
C        -2.95518599045858    0.69506032278716   -1.82988838980189
C        -3.19500907594991    1.42026606270404   -0.60277487797444
C        -2.34296996993098    2.59053455290710   -0.60241146707876
C        -2.95446848254682   -0.69623815335525   -1.82973895445234
C        -1.95645864289522   -1.42035559023687   -2.58536168926718
C        -1.57960963336660   -2.58905385911910   -1.82177014934181
C        -2.34243495526433   -2.59017472762602   -0.59619210239082
C        -3.19510920396598   -1.42206966224116   -0.60295309374649
C        -0.99784451342920   -0.72285241298967   -3.31573210857943
C        -0.99850529651028    0.72376708702646   -3.31655656989842
C         0.37843083392119    1.17134357139199   -3.31537948507955
C         1.22834801635820    0.00179114223805   -3.31548577264980
C         0.37883789241577   -1.16888507913868   -3.31583832887977
C        -1.77143654416338   -0.00614428630678    4.81378523016874
F        -0.77490718385842   -0.00302503706859    5.69976814626318
F        -2.52070065064929   -1.07666641692207    5.06984720264859
F        -2.51859404052161    1.06745249202922    5.06638134383987
C         2.31466679785112   -3.76263725229880    2.65045997690933
F         3.62312964949259   -3.54430656940073    2.76963338181512
F         2.16067680125959   -4.94443462079342    2.05496431725579
F         1.81391095023236   -3.86879132964911    3.88010436512783
C         0.34394491913061    4.41095398434938    2.65520771393742
F        -0.84624772658979    4.99607018023823    2.77484807097971
F         1.16049421935612    5.27780039947462    2.06039530793761
F         0.81124417578584    4.19811104743603    3.88405913171217
72
 energy: -177.471265003675 gnorm: 0.092088700953 xtb: 6.4.1 (a3dbbd7)
C        -1.28386781999791   -0.01168950364855    3.42772784605207
C        -0.34194127127483   -1.19671215042649    3.28538945312602
C         0.99161684917180   -0.70023488147522    3.27055329765636
C         0.99072344245566    0.73197963172860    3.28009102465604
C        -0.34248535936491    1.18010002537548    3.27919119029779
C         2.33650398216988   -2.56566734726226    0.52855659296951
C         3.16443882375538   -1.41275723660589    0.56576001568624
C         2.93855026540042   -0.68870331309173    1.79694219646767
C         1.96489806625245   -1.35955923326912    2.55344465992605
C         1.66812368162900   -2.70485831999202    1.89518549498287
C         3.19734614192429    1.40375061753624    0.57951352095027
C         2.33300502198127    2.55880046149000    0.58485073840439
C         1.64102315903410    2.54508353359470    1.80796111016971
C         1.97612310066592    1.41843637546448    2.54622191129835
C         2.97231177089419    0.70061567873553    1.80362408690571
C        -0.38644494296521    3.42389233929237    0.52574262397135
C        -1.72908701166102    2.98201917657640    0.57067480971139
C        -1.95923508582533    2.26960693961449    1.80053909962395
C        -0.76252940492893    2.23614723349667    2.53484821862696
C         0.26128876041681    3.18494186671996    1.88937474485062
C        -3.42896111436694    0.71558097125401    0.55881764211283
C        -3.42972102121862   -0.71924481380614    0.55658461306624
C        -2.80299939838858   -1.15756988569274    1.77693365173928
C        -2.46704349590329   -0.00106588874635    2.49435382930680
C        -2.80094736529301    1.14026303095895    1.78714583176724
C        -1.76255293255928   -2.99985475650048    0.58993125133686
C        -0.38040575289790   -3.42602094986866    0.58977645039645
C         0.18276708162268   -3.02604135034634    1.81232341872824
C        -0.74429602486692   -2.28582346530425    2.53595291679676
C        -1.99944621807480   -2.29149808783871    1.79552637229908
C        -0.24781703584439   -3.00706476976893   -1.81113422468440
C         0.74187064990540   -2.28549894979454   -2.57444717442318
C         1.97376676649433   -2.28685999493463   -1.83524074304835
C         1.73062637348049   -2.99045555971798   -0.61451317128965
C         0.35379134686829   -3.45244030931885   -0.60075099137089
C         2.79337897770939   -1.16280313478107   -1.82778032246426
C         2.40929457106982    0.00589527792730   -2.57534454873177
C         2.79258868849950    1.16324742255287   -1.82306884971770
C         3.40898178198531    0.71730390964073   -0.60525945572306
C         3.41110454277232   -0.72163116582560   -0.61403431848529
C         1.96815211345612    2.29308836084322   -1.81321510031553
C         0.73862809471976    2.28739150552507   -2.57354399471943
C        -0.25388808285299    3.01200089741158   -1.83586007916249
C         0.35523875120623    3.43542036118675   -0.61619929096224
C         1.74314918421817    3.00450012642929   -0.60413646294646
C        -1.57943262016953    2.57842960286314   -1.82312440006688
C        -1.95085177842495    1.41223519000051   -2.57931793923503
C        -2.94571659554614    0.69071209217701   -1.82869558150391
C        -3.18702632540410    1.41209171309149   -0.60787154487688
C        -2.34005291813766    2.57982780735984   -0.61439775767760
C        -2.94529206646623   -0.69325756729807   -1.83011997853654
C        -1.94922194410689   -1.41478672939151   -2.57765677899976
C        -1.57957055464574   -2.57673456474148   -1.81616102370448
C        -2.34218129569838   -2.57736363673116   -0.60616909670881
C        -3.18977609350974   -1.41642141086539   -0.61144918599381
C        -0.99349888122446   -0.71956983664181   -3.30321787517130
C        -0.99398884169700    0.71929424114299   -3.30242965275501
C         0.37759599712647    1.16457635177494   -3.30266054182140
C         1.22223605407774    0.00204038497044   -3.30161137531901
C         0.37790871321266   -1.16215053823326   -3.30151410831849
C        -1.79561073269714   -0.00846831598211    4.88964432519078
F        -0.78290187761584   -0.00219025336187    5.75733032526569
F        -2.54363976153590   -1.08603623652336    5.11975460702334
F        -2.53877440930110    1.07660509959453    5.11153702100776
C         2.35110531913628   -3.81812830955481    2.68945053675720
F         3.65847114586040   -3.58062205829401    2.79921763876574
F         2.18158843922881   -4.98856001392452    2.07215539128714
F         1.82891629420491   -3.90351263022516    3.91356132154119
C         0.34548434349067    4.47283322183218    2.68907618291212
F        -0.85447111953041    5.04260154192352    2.79990740006549
F         1.16892238640252    5.32314852025701    2.07634846240410
F         0.81631276634936    4.22896623258598    3.91289080003254
72
 energy: -177.481950636530 gnorm: 0.050014702742 xtb: 6.4.1 (a3dbbd7)
C        -1.29102230764080   -0.00887058773365    3.44878174999078
C        -0.35298473248234   -1.19181259935305    3.29255290762861
C         0.98857440877752   -0.70983918488412    3.25870482758515
C         0.98400040854000    0.72790887700852    3.26733264878978
C        -0.35372644848012    1.18284557638337    3.28713016993086
C         2.34729639003697   -2.58886725127202    0.53963328667938
C         3.16531700451194   -1.42292138787566    0.55829384340002
C         2.93648674750378   -0.69688513680885    1.78710474077014
C         1.97075745060015   -1.38507316347090    2.55254577557217
C         1.68569603811999   -2.73187648368969    1.90376262976897
C         3.19343497354933    1.40491384414941    0.56862949979434
C         2.32977963915274    2.56643964828093    0.57860834559997
C         1.62858920511491    2.56937571974397    1.80659986725922
C         1.96678782537659    1.42138144343255    2.53600438165581
C         2.96558428559422    0.69655514856598    1.79149625784089
C        -0.38190351755119    3.44418043550228    0.53677232405438
C        -1.72476431211912    2.98315595129838    0.56229821804110
C        -1.95616793419759    2.27215375048507    1.79216266163093
C        -0.76061271271533    2.25792978051229    2.54219930349415
C         0.25821494086765    3.20633870424348    1.89755767976291
C        -3.43021460883144    0.71680118214024    0.54807260749990
C        -3.43418929992652   -0.71917589386570    0.54679817560981
C        -2.80388248413062   -1.15502155908465    1.77290242970514
C        -2.46138846844837   -0.00061638901886    2.50825548198241
C        -2.79629972189754    1.14165153219814    1.77981452737458
C        -1.75876766247641   -2.99442615615488    0.58039322134780
C        -0.37451599728468   -3.42621531871564    0.58599018118869
C         0.20396968634874   -3.03391308306348    1.81273709038133
C        -0.74148514640366   -2.28218121049834    2.53643747892527
C        -1.99623008044488   -2.28662456017412    1.78888516524229
C        -0.25081243623324   -3.00476516018897   -1.81706699431224
C         0.73875085735939   -2.28500804974477   -2.58115862024830
C         1.96912810040381   -2.28682682438372   -1.83711801010474
C         1.73381038046677   -3.00117560330670   -0.61381617350240
C         0.35416196866596   -3.45374740471450   -0.60612639665161
C         2.79237669293348   -1.16572929050977   -1.83824564478696
C         2.40949839538728    0.00430733368243   -2.58714711081777
C         2.79293921944743    1.16274863952247   -1.83433439356940
C         3.40963334808632    0.71541816359949   -0.61619268114966
C         3.40979740947920   -0.72650792136544   -0.62280304051896
C         1.96708470044235    2.29140110746588   -1.82150625659546
C         0.73760172310236    2.28600923977067   -2.58179699643317
C        -0.25410084021663    3.00894630815208   -1.83955441087362
C         0.35625441535864    3.44266442375648   -0.61647813614286
C         1.74291509531773    3.00804259229318   -0.61148585944086
C        -1.58016192554642    2.57786311496729   -1.83445583156814
C        -1.95499406431028    1.41308709216871   -2.59382106240083
C        -2.95305076281305    0.69133335425166   -1.84526553171180
C        -3.19100184320618    1.41254864952455   -0.62173904239574
C        -2.33795007840167    2.57794370449028   -0.62326422368709
C        -2.95425608034101   -0.69434607639422   -1.84655541153194
C        -1.95372815817993   -1.41557525333488   -2.59059232757978
C        -1.58272477242150   -2.57663924114781   -1.82648878952113
C        -2.34552747004277   -2.57648474936442   -0.61584821300846
C        -3.19829274066513   -1.41720350643157   -0.62511807506674
C        -0.99614819502768   -0.71991471210584   -3.31361072000919
C        -0.99631016987697    0.71921785141247   -3.31423280953426
C         0.37594419765089    1.16368225152764   -3.31172039252543
C         1.22106774926587    0.00111204689742   -3.31114675455644
C         0.37567550254830   -1.16251741015280   -3.30978428163200
C        -1.80833237760204   -0.00838379864084    4.91316324864734
F        -0.80417554838983   -0.00350111754746    5.79220491428033
F        -2.55777679633252   -1.08353580905445    5.15915009359930
F        -2.55529431272007    1.07145312065679    5.15312251169547
C         2.37414694328726   -3.85188211501543    2.70461575448833
F         3.68566378355604   -3.63227121312110    2.82674153978956
F         2.21483682895041   -5.03373633686442    2.10367129621793
F         1.86187762512309   -3.94744065115360    3.93350896652872
C         0.34508966737705    4.50705404933355    2.70473558938324
F        -0.84823613766227    5.09231297028746    2.82919313586431
F         1.16547712747927    5.37638461816841    2.11014007953166
F         0.81496570408912    4.27792055747604    3.93325664074661
72
 energy: -177.486906809576 gnorm: 0.021827088786 xtb: 6.4.1 (a3dbbd7)
C        -1.30233928609298   -0.00650996977567    3.48451827081164
C        -0.36402158315439   -1.18704419156649    3.28905992408034
C         0.98207559153510   -0.71740916646356    3.24040930597197
C         0.97289897354635    0.72415507001642    3.24667108985197
C        -0.36556964525767    1.18412913722243    3.28455532931369
C         2.35253794101171   -2.60208515083828    0.54982635673146
C         3.16139791327736   -1.42823589304250    0.55278544290226
C         2.92302550948961   -0.70163067449082    1.77795616958800
C         1.97137130355367   -1.40887316581917    2.55268621705478
C         1.70423331154658   -2.76496377367158    1.91858745349249
C         3.18252600740368    1.40454419724460    0.55858358743803
C         2.32425649169624    2.57316986751598    0.57048066738458
C         1.61356041280946    2.58594724083602    1.79623941995327
C         1.95115548735827    1.42660627864393    2.52026848395874
C         2.94898275483758    0.69356055564385    1.77775659340197
C        -0.37615271195777    3.46222867711417    0.54594061555146
C        -1.71728447806204    2.98407196741475    0.55502735384180
C        -1.94931632421498    2.27387745135782    1.78562047347209
C        -0.75853422599961    2.27919069567859    2.55020109134296
C         0.25487933932106    3.23289808209608    1.90981109702769
C        -3.42147284431303    0.71656357169219    0.54299798857208
C        -3.42974524498869   -0.71829199578588    0.54220398280442
C        -2.79934196980524   -1.15249696012045    1.77270768694910
C        -2.45206023625758   -0.00023880444936    2.51918164366297
C        -2.78618996339392    1.14130719775148    1.77791589034460
C        -1.75143319025202   -2.98856845620971    0.57127671196662
C        -0.36634401858291   -3.42526480057807    0.58127746573318
C         0.22108678923464   -3.03488444171171    1.80531454716243
C        -0.73560840733391   -2.28042821752227    2.53173257134011
C        -1.98971431550128   -2.28419692032396    1.78078038899046
C        -0.25133669319695   -3.00415775128264   -1.82302409481855
C         0.73734516315093   -2.28426462448065   -2.58617443320800
C         1.96590280004039   -2.28487927710436   -1.83724082655442
C         1.73664215847061   -3.00535624248069   -0.61210971263127
C         0.35678245729264   -3.45678481931691   -0.61339538291106
C         2.79103567952327   -1.16692509867308   -1.84675028117690
C         2.40975630178808    0.00319316481292   -2.59929565017367
C         2.79261278502100    1.16184765548754   -1.84564775125892
C         3.40610124086569    0.71369920780884   -0.62531609246562
C         3.40588176174907   -0.72901927313150   -0.62881405251810
C         1.96672112765814    2.29052058129560   -1.83072926657826
C         0.73651673519735    2.28424558730903   -2.58907730899960
C        -0.25359597604435    3.00528844589420   -1.84204314564465
C         0.35670361007297    3.44768525538932   -0.61716832858481
C         1.74370135761349    3.01260704318807   -0.62166693211210
C        -1.57910251076844    2.57646882281317   -1.84340892603892
C        -1.95806741161831    1.41364799088975   -2.60668710726838
C        -2.95712385664619    0.69199164676717   -1.85721750822002
C        -3.18760442057917    1.41176773839968   -0.62966694530281
C        -2.33240108918607    2.57636845548924   -0.62939668538924
C        -2.95993965595018   -0.69545958960221   -1.85867228983350
C        -1.95720850793897   -1.41705922913984   -2.60245469860333
C        -1.58359677635145   -2.57721598080316   -1.83595129788598
C        -2.34481409086105   -2.57535629667890   -0.62421843956432
C        -3.20028154842940   -1.41703763625292   -0.63367598044626
C        -0.99855001137984   -0.72115860346772   -3.32451985234877
C        -0.99840901390321    0.71854821762129   -3.32578956484477
C         0.37445452957015    1.16261462133453   -3.32163074907508
C         1.21985936199003    0.00008372797199   -3.32171205515406
C         0.37426654764774   -1.16350008508281   -3.31809181971688
C        -1.82379439485220   -0.00693913634859    4.94176451714880
F        -0.82535767395261   -0.00400288367042    5.82879012278390
F        -2.57404006622953   -1.08149907544485    5.19709434975074
F        -2.57490622798164    1.06865328759968    5.19437148370149
C         2.39297117681498   -3.88767067268798    2.72034991820921
F         3.70758430916644   -3.67923913382272    2.85032583992133
F         2.24327318886933   -5.07810773389654    2.13044595637058
F         1.88972219385882   -3.99241292888862    3.95360574273993
C         0.34664890176514    4.53898594726691    2.72043301715434
F        -0.84182503548898    5.13635830272365    2.85469929918572
F         1.16429610791293    5.42251062129504    2.13826344519870
F         0.81647237871882    4.32140291618384    3.95251672386894
72
 energy: -177.487745770288 gnorm: 0.009729714971 xtb: 6.4.1 (a3dbbd7)
C        -1.30736229827006   -0.00577407554647    3.50522008826761
C        -0.36935952380812   -1.18516938854833    3.28643929527062
C         0.97804656314675   -0.71968008758630    3.23339360165496
C         0.96633152967569    0.72275998273411    3.23758732234244
C        -0.37150805978837    1.18320241419996    3.28039193639877
C         2.35164307344688   -2.60285011724104    0.55358555769950
C         3.15767622294282   -1.42758876730605    0.55223509224257
C         2.91368531498279   -0.70215542248563    1.77630952645025
C         1.96850074924463   -1.41807180736036    2.55463754369413
C         1.70922260441348   -2.77870250480036    1.92562494206665
C         3.17453436580477    1.40399200871903    0.55522002521154
C         2.32039251294142    2.57589368585156    0.56591820098588
C         1.60442224388004    2.58964706047769    1.78786552488606
C         1.94057788877393    1.42939292192126    2.51218700702229
C         2.93722046805652    0.69244178829572    1.77225490391273
C        -0.37382960695184    3.46910374922304    0.54892481251514
C        -1.71437892109983    2.98626762110014    0.55374448801255
C        -1.94701655832608    2.27665441180478    1.78576364189913
C        -0.75843142565691    2.28885334586400    2.55540926947728
C         0.25312731471226    3.24261192872331    1.91555003845772
C        -3.41180682805399    0.71587673048380    0.54504533377699
C        -3.42106191645416   -0.71774899223782    0.54419933529317
C        -2.79376212177473   -1.15193618463128    1.77656742506742
C        -2.44518246547084   -0.00024552269035    2.52521589354830
C        -2.77954627531631    1.14135650888876    1.78174042974598
C        -1.74667580171749   -2.98777863726278    0.56859795143709
C        -0.36171258628051   -3.42625344626690    0.57878188757111
C         0.22734477096538   -3.03174704723315    1.79863431647747
C        -0.73226488542318   -2.28178036495194    2.53013021403994
C        -1.98526038051646   -2.28570689440126    1.77860447617942
C        -0.24961297275895   -3.00624733341944   -1.82692176371492
C         0.73854818794640   -2.28476614950683   -2.58887649811956
C         1.96624597492054   -2.28392410020632   -1.83712831683064
C         1.73836772513780   -3.00536294904545   -0.61164507911441
C         0.35966560143568   -3.46036569857214   -0.61777566820516
C         2.79069535407686   -1.16658570763521   -1.84947772150034
C         2.41041401546478    0.00327545130982   -2.60461165839263
C         2.79222466646949    1.16232680486737   -1.85062676348039
C         3.40284843697430    0.71383278759461   -0.62807834060481
C         3.40244592021655   -0.72818315401550   -0.62939620970045
C         1.96725323946606    2.29200398560873   -1.83619117810198
C         0.73628284001911    2.28466046038122   -2.59283189240713
C        -0.25322827242064    3.00507489176871   -1.84320744199885
C         0.35628110009687    3.45016835306128   -0.61807154220804
C         1.74404828662325    3.01626851306720   -0.62770425598983
C        -1.57781578638881    2.57620484142956   -1.84623414435640
C        -1.95807727635785    1.41361916703355   -2.61070404738821
C        -2.95556580933886    0.69182323934555   -1.85842360421612
C        -3.18220940727550    1.41075341581679   -0.62897710601468
C        -2.32844357201178    2.57603531343985   -0.62982086187653
C        -2.95862173264873   -0.69618731615253   -1.86018370521456
C        -1.95709774681434   -1.41840029429197   -2.60678460803994
C        -1.58188960127766   -2.57875000984371   -1.83995350949395
C        -2.34136328097921   -2.57560341032069   -0.62638076530379
C        -3.19576567732445   -1.41664421960320   -0.63342934466888
C        -0.99868766922439   -0.72236921191994   -3.32992779705043
C        -0.99868023952859    0.71809012691222   -3.33079520064639
C         0.37441400245039    1.16285771636908   -3.32702011568113
C         1.22009255012141   -0.00009771819360   -3.32717536801384
C         0.37500366149892   -1.16468918719921   -3.32280953564465
C        -1.83139687611930   -0.00436758187802    4.95588095526274
F        -0.83642663270433   -0.00167119518322    5.84756472226504
F        -2.58292033713934   -1.07878171046169    5.21196450205015
F        -2.58495934008736    1.06993416715489    5.20891211739115
C         2.39641215240435   -3.90369602954775    2.72346843596651
F         3.71198948026240   -3.69780215547685    2.85397915014758
F         2.24907690481403   -5.09524573980229    2.13394559094237
F         1.89694060059818   -4.01383473104105    3.95821790009447
C         0.34814958083191    4.55002016184807    2.72444970525726
F        -0.83933156834104    5.15042080844586    2.85993162687376
F         1.16469180923816    5.43587098694748    2.14316790171491
F         0.81859203444792    4.33704008632084    3.95738841181055
72
 energy: -177.487900455280 gnorm: 0.004834015562 xtb: 6.4.1 (a3dbbd7)
C        -1.30800788027086   -0.00592414694338    3.51238192210932
C        -0.37080136672550   -1.18464931519964    3.28565226419373
C         0.97707247648139   -0.71987217933791    3.23270601275711
C         0.96432053100626    0.72240499710825    3.23581535950335
C        -0.37334322998260    1.18142367842549    3.27768366113849
C         2.35029469136126   -2.59985417485725    0.55422666579207
C         3.15681009747016   -1.42560888274810    0.55321642549650
C         2.91148894818513   -0.70144147363009    1.77764306450697