72
 energy: -177.380064349414 gnorm: 0.280534943890 xtb: 6.4.1 (a3dbbd7)
C        -1.23626340000000    0.00000000000000    3.32997640000000
C        -0.38202640000000   -1.17575640000000    3.32997640000000
C         1.00015810000000   -0.72665740000000    3.32997640000000
C         1.00015810000000    0.72665740000000    3.32997640000000
C        -0.38202640000000    1.17575640000000    3.32997640000000
C         2.34433560000000   -2.60145750000000    0.59464210000000
C         3.19857260000000   -1.42570110000000    0.59464210000000
C         2.96246730000000   -0.69904370000000    1.83090550000000
C         1.96230920000000   -1.42570110000000    2.59495830000000
C         1.58028280000000   -2.60145750000000    1.83090550000000
C         3.19857260000000    1.42570110000000    0.59464210000000
C         2.34433560000000    2.60145750000000    0.59464210000000
C         1.58028280000000    2.60145750000000    1.83090550000000
C         1.96230920000000    1.42570110000000    2.59495830000000
C         2.96246730000000    0.69904370000000    1.83090550000000
C        -0.36750900000000    3.48258920000000    0.59464210000000
C        -1.74969350000000    3.03349030000000    0.59464210000000
C        -1.98579880000000    2.30683290000000    1.83090550000000
C        -0.74953540000000    2.30683290000000    2.59495830000000
C         0.25062270000000    3.03349030000000    1.83090550000000
C        -3.42570570000000    0.72665740000000    0.59464210000000
C        -3.42570570000000   -0.72665740000000    0.59464210000000
C        -2.80757400000000   -1.17575640000000    1.83090550000000
C        -2.42554760000000    0.00000000000000    2.59495830000000
C        -2.80757400000000    1.17575640000000    1.83090550000000
C        -1.74969350000000   -3.03349030000000    0.59464210000000
C        -0.36750900000000   -3.48258920000000    0.59464210000000
C         0.25062270000000   -3.03349030000000    1.83090550000000
C        -0.74953540000000   -2.30683290000000    2.59495830000000
C        -1.98579880000000   -2.30683290000000    1.83090550000000
C        -0.25062270000000   -3.03349030000000   -1.83090550000000
C         0.74953540000000   -2.30683290000000   -2.59495830000000
C         1.98579880000000   -2.30683290000000   -1.83090550000000
C         1.74969350000000   -3.03349030000000   -0.59464210000000
C         0.36750900000000   -3.48258920000000   -0.59464210000000
C         2.80757400000000   -1.17575640000000   -1.83090550000000
C         2.42554760000000    0.00000000000000   -2.59495830000000
C         2.80757400000000    1.17575640000000   -1.83090550000000
C         3.42570570000000    0.72665740000000   -0.59464210000000
C         3.42570570000000   -0.72665740000000   -0.59464210000000
C         1.98579880000000    2.30683290000000   -1.83090550000000
C         0.74953540000000    2.30683290000000   -2.59495830000000
C        -0.25062270000000    3.03349030000000   -1.83090550000000
C         0.36750900000000    3.48258920000000   -0.59464210000000
C         1.74969350000000    3.03349030000000   -0.59464210000000
C        -1.58028280000000    2.60145750000000   -1.83090550000000
C        -1.96230920000000    1.42570110000000   -2.59495830000000
C        -2.96246730000000    0.69904370000000   -1.83090550000000
C        -3.19857260000000    1.42570110000000   -0.59464210000000
C        -2.34433560000000    2.60145750000000   -0.59464210000000
C        -2.96246730000000   -0.69904370000000   -1.83090550000000
C        -1.96230920000000   -1.42570110000000   -2.59495830000000
C        -1.58028280000000   -2.60145750000000   -1.83090550000000
C        -2.34433560000000   -2.60145750000000   -0.59464210000000
C        -3.19857260000000   -1.42570110000000   -0.59464210000000
C        -1.00015810000000   -0.72665740000000   -3.32997640000000
C        -1.00015810000000    0.72665740000000   -3.32997640000000
C         0.38202640000000    1.17575640000000   -3.32997640000000
C         1.23626340000000    0.00000000000000   -3.32997640000000
C         0.38202640000000   -1.17575640000000   -3.32997640000000
C        -1.76086815247998    0.00000000000000    4.78849957557021
F        -0.76911826531252    0.00000000000000    5.67468926254662
F        -2.50968386795825   -1.06794314680471    5.04863888333743
F        -2.50968386795825    1.06794314680471    5.04863888333743
C         2.82790274436383   -2.05459160758554    3.71645040671519
F         3.82797483682855   -2.78118494419178    3.22571836876305
F         3.37293748548841   -1.13053297859378    4.50255013394648
F         2.11749631416700   -2.85850222732984    4.50254863174647
C        -2.82790274436383   -2.05459160758554   -3.71645040671519
F        -3.82797483682855   -2.78118494419178   -3.22571836876305
F        -3.37293748548841   -1.13053297859378   -4.50255013394648
F        -2.11749631416700   -2.85850222732984   -4.50254863174647
72
 energy: -177.446187501764 gnorm: 0.163509509559 xtb: 6.4.1 (a3dbbd7)
C        -1.25241823511896    0.00742214081981    3.33315880773855
C        -0.36996023862327   -1.17887997047171    3.33946228954703
C         0.96784588969670   -0.70398040738215    3.31597599582160
C         0.99357677184919    0.73262314033602    3.31941070316779
C        -0.36957801141769    1.19700043058547    3.33405016434110
C         2.32963019435469   -2.58732234486352    0.58202597476147
C         3.18006960172363   -1.41381159694638    0.58205414508071
C         2.94939882340418   -0.68100898274641    1.79344904161388
C         2.00471160043208   -1.45742946184481    2.63969671952211
C         1.56124323974335   -2.59500929780124    1.79533765127906
C         3.19111635541953    1.42492320046653    0.58465871189776
C         2.33645800715383    2.59196699282568    0.58937283288130
C         1.58004091878735    2.59095633083939    1.82578475066813
C         1.96187288846425    1.43198782502409    2.58649669690708
C         2.94827644023126    0.70227351109167    1.80982296537463
C        -0.36471959978313    3.46657314723287    0.59709089636721
C        -1.74270789554226    3.02112396234404    0.59518816805062
C        -1.97997724409045    2.29849026745376    1.81983975493386
C        -0.74005889098497    2.30367237261195    2.58560711379236
C         0.25221823926165    3.02957916038046    1.82590333215017
C        -3.42880140424236    0.72678162237154    0.58243841644496
C        -3.42890534128689   -0.71812987663390    0.58853262731517
C        -2.80207262225307   -1.16555304664587    1.81074399517144
C        -2.44657624601708    0.00108456317589    2.53848603960302
C        -2.80586675575640    1.17453077204018    1.80553261976291
C        -1.73726638349968   -3.02700176394398    0.60214471599614
C        -0.36709757203848   -3.47820049880404    0.59387536008804
C         0.24771749017146   -3.02216854994452    1.81322408787103
C        -0.74693807953763   -2.30006836577502    2.59116172130015
C        -1.97137413060204   -2.29986685200811    1.83014814123799
C        -0.24185376694898   -3.01853939094882   -1.81416248378899
C         0.75254074414172   -2.29718294783471   -2.59048505784833
C         1.97771719699936   -2.29925458156692   -1.83154189304867
C         1.74080919932498   -3.02676455671237   -0.60024435272340
C         0.37115186582612   -3.47702382408190   -0.59342459537694
C         2.79878208588116   -1.17014006099137   -1.82813643611734
C         2.42129272351510    0.00492487599196   -2.58753240351770
C         2.79978078464375    1.17387619216173   -1.82729323549094
C         3.41670135301559    0.72525491924661   -0.59926748570968
C         3.41674540378036   -0.72046672626898   -0.60413397634792
C         1.98031713752523    2.30046896482396   -1.82466107185726
C         0.75034922119859    2.30190228859508   -2.58314634532581
C        -0.24873130649719    3.02497200109634   -1.81997598185813
C         0.36529047916689    3.46893148481149   -0.59329323338047
C         1.74270023312332    3.02146996729279   -0.59290549876443
C        -1.57591929567352    2.59132757430123   -1.82336081294932
C        -1.95450270512572    1.42639230644222   -2.58697604445401
C        -2.94706342108406    0.70263500457741   -1.81557132361604
C        -3.19470309712354    1.42882810868895   -0.59507107836763
C        -2.33745116123747    2.59342481851966   -0.59255724499039
C        -2.94996840826275   -0.68176176499882   -1.79782477236853
C        -1.99986992112499   -1.45370260389049   -2.63752447626357
C        -1.55957596673586   -2.59406493951383   -1.79486830177441
C        -2.32629999819498   -2.58744718248789   -0.58322176351957
C        -3.18294431487058   -1.41454599314872   -0.58890130070711
C        -0.96578663816600   -0.70135819035815   -3.31842173718329
C        -0.98746346468197    0.73015611386493   -3.32002378529647
C         0.38932989680055    1.17886496404446   -3.31505688337455
C         1.23981916565884    0.00932796644462   -3.31684387721276
C         0.38978105917043   -1.16127707042626   -3.32107499000948
C        -1.77350977504174    0.00391036898228    4.81247967499455
F        -0.77524844185532    0.00176896801287    5.69671478758989
F        -2.51962360348215   -1.07008559998094    5.06588018584223
F        -2.52217412341604    1.07496491651570    5.07017545853058
C         2.86557665133684   -2.08205558435151    3.75483120792147
F         3.86423845090510   -2.80606157307821    3.25316337377805
F         3.40007966731894   -1.14083918007168    4.52999795130139
F         2.13772176838363   -2.88074398893309    4.53257478114073
C        -2.86222125205851   -2.07922967413173   -3.75389845533997
F        -3.86019767986228   -2.80370993840422   -3.25179604219816
F        -3.39877139718373   -1.14022459388940   -4.53079458475841
F        -2.13605731269692   -2.87910377753385   -4.53203373145481
72
 energy: -177.483327678096 gnorm: 0.073616695606 xtb: 6.4.1 (a3dbbd7)
C        -1.28923003683287    0.01613224151227    3.43659831633815
C        -0.34601149762236   -1.16464509742715    3.27253228137045
C         0.93480830967330   -0.68004845893139    3.27983540944813
C         0.97955937557270    0.73151626246086    3.27061487374760
C        -0.35750848876631    1.20841017231068    3.27967852506790
C         2.31331993837703   -2.57203296534483    0.57140735322857
C         3.15957570837668   -1.40048428536489    0.57370785888860
C         2.93911978907055   -0.66385067022973    1.75676344034314
C         2.06630422502499   -1.50151121182795    2.70009751728475
C         1.54228003590135   -2.58929934901318    1.75801903804476
C         3.18244072958044    1.42285919213387    0.57442230658780
C         2.32979333535054    2.58303261376988    0.58269062614215
C         1.57970148732287    2.58322108371671    1.81802447357262
C         1.96208228535082    1.44199519736061    2.56773155374001
C         2.93739363329183    0.70302482765493    1.78890041865609
C        -0.36356300203820    3.45545762004542    0.59506003038606
C        -1.73778826421928    3.01059300053476    0.59178998536804
C        -1.98157144149555    2.29550000552252    1.80513333727475
C        -0.73460356848147    2.30163632289289    2.55548750294641
C         0.25092039115071    3.03190950478253    1.81271785751564
C        -3.42733853452233    0.72577254633988    0.57469492982170
C        -3.42685039940205   -0.70760275419085    0.58725805137846
C        -2.78907645439860   -1.14692817608499    1.80263951616262
C        -2.46275919949266    0.00058182222575    2.51243531082641
C        -2.79697622968023    1.16819920269826    1.78959662206996
C        -1.72550699887495   -3.02042645696713    0.60557841382150
C        -0.36845203400670   -3.47350813962733    0.58687074820155
C         0.24796715753801   -3.01664543747409    1.78818460649052
C        -0.74915613518113   -2.29369626812912    2.56081377569346
C        -1.95961472442921   -2.29777921608600    1.83038641378936
C        -0.23552485637128   -3.00572205442641   -1.80182723684931
C         0.75777755747426   -2.28899379205213   -2.58383448534448
C         1.96999700418052   -2.29053234116557   -1.83381540650205
C         1.73225016260590   -3.02035344412098   -0.60704031569229
C         0.37578044499222   -3.46898574176774   -0.59648266976269
C         2.79241248934305   -1.16337563673673   -1.82515437526102
C         2.41970362290484    0.01061099677110   -2.58230986994429
C         2.79573837770814    1.17237971055236   -1.82486178997416
C         3.40813478598542    0.72321680769385   -0.60392293903071
C         3.40824130992861   -0.71377650639961   -0.61331607735971
C         1.97745834139368    2.29472959005722   -1.81928002512404
C         0.75520121106515    2.29745785894664   -2.57459821771731
C        -0.24413665533675    3.01720701214095   -1.81041864292051
C         0.36368615239318    3.45624043978177   -0.59615629553122
C         1.73733841867925    3.01027270619691   -0.59236107097290
C        -1.57045351044768    2.58129455927127   -1.81808083673263
C        -1.94424333158889    1.42740952835502   -2.57626279154548
C        -2.93218951507930    0.70429973451353   -1.80338132263633
C        -3.18647718496939    1.42912606044061   -0.59501081913135
C        -2.33135034758594    2.58585322895828   -0.59470300642490
C        -2.93571182678681   -0.66431090919548   -1.76671198669504
C        -2.05197051372319   -1.49161886993921   -2.70185266002519
C        -1.53817951651347   -2.58450088005657   -1.76141676160437
C        -2.30456897585680   -2.57039999288085   -0.57821010195674
C        -3.16106548435365   -1.39769002114058   -0.58537319007389
C        -0.93095545028184   -0.67503058117686   -3.30716161185361
C        -0.96888208195886    0.72690292530728   -3.29558595942240
C         0.40151126346627    1.18362244075476   -3.30740414332368
C         1.24636679428520    0.01945836441976   -3.30913500751276
C         0.39195881301823   -1.14295622596132   -3.29753680065242
C        -1.80009327572471    0.00629134367375    4.89246391688582
F        -0.78510518384298    0.00332122437465    5.75723163000609
F        -2.54166327359296   -1.07829810226062    5.11659768912125
F        -2.54747594044059    1.08487692564122    5.12590274195734
C         2.90317828776895   -2.11050908655971    3.80130838417639
F         3.89894431888739   -2.83166067350266    3.28535045648642
F         3.42603150609611   -1.15037869134995    4.56474161186568
F         2.15342766497880   -2.90387194060452    4.56698808268540
C        -2.89696627145569   -2.10540379508941   -3.80060135833705
F        -3.89089496859770   -2.82652801017882   -3.28150087012452
F        -3.42410202275921   -1.14921861887917   -4.56663370422312
F        -2.15174188573443   -2.90146218707109   -4.56784665233771
72
 energy: -177.493178531339 gnorm: 0.037894316258 xtb: 6.4.1 (a3dbbd7)
C        -1.29474497906126    0.01948445892247    3.47460972919970
C        -0.34972675177459   -1.15899504252503    3.29222238709179
C         0.95027335804151   -0.68942522768540    3.28745957496788
C         0.97994560908174    0.73077177029322    3.27075640400728
C        -0.36397734089710    1.20680993877455    3.29609467051798
C         2.31320829768740   -2.56527832855078    0.57222968229886
C         3.15793427125826   -1.39526139729541    0.57424859111127
C         2.94795468630968   -0.67287794094651    1.77396539445934
C         2.08373353874173   -1.50982756517926    2.71977382467713
C         1.55869387695003   -2.58912642221669    1.77610720386111
C         3.17865627177370    1.42101356061997    0.57157307254508
C         2.33099940527735    2.58576119208825    0.57869524992543
C         1.57844453826045    2.58346233515519    1.81261514793007
C         1.95947736066583    1.44062220858468    2.56491045067953
C         2.93856645118517    0.69967585377820    1.79175340851164
C        -0.36221434897494    3.45617179182762    0.58981247573865
C        -1.73614155848154    3.01135288781902    0.58601371931374
C        -1.98173306245180    2.29945576940515    1.80370113265466
C        -0.73782517510749    2.30127850040406    2.56049244120010
C         0.24970156770594    3.02734264490504    1.80792987367247
C        -3.42184057357849    0.73069448885926    0.57088227405170
C        -3.41607190205550   -0.70208516334139    0.58103435312907
C        -2.78209736278434   -1.13741063376580    1.80558990509503
C        -2.45322039303578    0.00763152497862    2.53224002848980
C        -2.79446807661085    1.17208110203778    1.79292219898753
C        -1.71978985067972   -3.00557299067843    0.59836049041006
C        -0.36252592392050   -3.45718002831216    0.58343690003425
C         0.25439800547687   -3.00503728524971    1.79465516526632
C        -0.74956570602673   -2.28709819413973    2.57213070947703
C        -1.95393097894173   -2.28727855190721    1.82929323960951
C        -0.24007994024825   -3.00002490954661   -1.81776258474547
C         0.75727024783649   -2.28381387712018   -2.59510998685085
C         1.96968678436499   -2.28216997800325   -1.84137141451980
C         1.73232249159462   -3.00861463816170   -0.61136260166168
C         0.37451763207607   -3.45476428235745   -0.60425414825043
C         2.79432023947967   -1.15719899930421   -1.83297041484091
C         2.42244519071907    0.01660045773991   -2.59003945573218
C         2.80205544928812    1.17946740219083   -1.83279189264870
C         3.41001165845026    0.72754045655245   -0.60931476764044
C         3.40487187225641   -0.70919419553600   -0.61617407253093
C         1.98225767868752    2.30140593023159   -1.82519453551806
C         0.75775588398605    2.30130728830450   -2.57863643489425
C        -0.24136157374702    3.02050959691790   -1.81546648264048
C         0.36590644344132    3.45919887693311   -0.60031197730784
C         1.74037780389718    3.01511426475431   -0.59690172555114
C        -1.56644047224619    2.58274719220385   -1.82433417807270
C        -1.94293905087485    1.42992482763294   -2.58588376321491
C        -2.93235449947942    0.70249170852500   -1.81921471469220
C        -3.18022905178555    1.42832678035349   -0.60412461657367
C        -2.32830866652141    2.58792730847183   -0.60163605226495
C        -2.94290268829020   -0.67194669632370   -1.79586156982151
C        -2.07034610812656   -1.50188238417013   -2.73337473850638
C        -1.54972404798854   -2.58383711169828   -1.78951247327389
C        -2.29891625551321   -2.56135462746433   -0.58913895634905
C        -3.15480664618215   -1.39085122051965   -0.59669052643518
C        -0.94890209079432   -0.68429315639330   -3.32388613587939
C        -0.97206478535284    0.72549404738930   -3.30313456660245
C         0.40040038358378    1.18612842413862   -3.31124097221324
C         1.24527712193435    0.02286022695929   -3.31505864462362
C         0.38605678971486   -1.14039867767045   -3.30695187544057
C        -1.81339295093704    0.00915082251804    4.93094235882915
F        -0.80906297175875    0.00624548012080    5.80965550811913
F        -2.55865394324528   -1.07181535418478    5.16792776697188
F        -2.56477051492419    1.08373845244074    5.17967286709809
C         2.92966789016709   -2.12609081292756    3.83246769480414
F         3.93382057579086   -2.85392319833753    3.33582217432103
F         3.46229186367365   -1.17922376526243    4.60860664741677
F         2.19446132727583   -2.92529738066035    4.60928922933368
C        -2.92357307433242   -2.12370960757223   -3.83997020152259
F        -3.92414263579137   -2.85029323258118   -3.33573133055476
F        -3.46129489334891   -1.18060988239389   -4.61779128287032
F        -2.19297587447196   -2.92565032825078   -4.61822824677165
72
 energy: -177.497114679155 gnorm: 0.012181633141 xtb: 6.4.1 (a3dbbd7)
C        -1.30047699599209    0.02092361587918    3.52261562339762
C        -0.35009335903604   -1.15411400770676    3.30285423384976
C         0.95942722637645   -0.69773882486607    3.28748523856225
C         0.97825220916071    0.72848319701088    3.26519815688515
C        -0.36872488850567    1.20259951996138    3.30283643077606
C         2.31137665238785   -2.55845756766426    0.57361586070258
C         3.15532272168393   -1.39011078137655    0.57669735513523
C         2.95536903338091   -0.68055357219702    1.79022740727749
C         2.10072508922935   -1.51864388209814    2.73990184628126
C         1.57306232592390   -2.58937478905804    1.79247784050733
C         3.17407975701860    1.41721773949624    0.56893266850231
C         2.33125470941572    2.58586792108668    0.57417583233744
C         1.57802419948356    2.58290369817758    1.80722503456179
C         1.95633968951274    1.43846690488852    2.56071185208765
C         2.93751975766031    0.69532710327623    1.79245383341286
C        -0.36009651195461    3.45556714730742    0.58553844863400
C        -1.73370144652706    3.01201410858522    0.58191607893791
C        -1.98083373027021    2.30436221408140    1.80386894508063
C        -0.73783248955606    2.29755961726551    2.56212318050305
C         0.25003886915371    3.02098828103244    1.80262762337843
C        -3.40861157961437    0.73321955161486    0.57018400917068
C        -3.39757394797689   -0.69666152584776    0.57594934633842
C        -2.76984028466015   -1.12716587158314    1.80870495788281
C        -2.43897401180300    0.01290770871354    2.54860226179661
C        -2.78821734271516    1.17466874509956    1.79913280063978
C        -1.71179518527278   -2.98806532436269    0.58946997452555
C        -0.35545701577218   -3.43670726920596    0.57959483901351
C         0.26266086877229   -2.99306258025065    1.79790212021253
C        -0.74841778974239   -2.28256201197214    2.57871075755983
C        -1.94629564254469   -2.27802729110572    1.82716828201474
C        -0.24528724842781   -2.99436021174940   -1.83100362492703
C         0.75719769472672   -2.28126741324529   -2.60487921381382
C         1.96790697897255   -2.27453083352953   -1.84632329788145
C         1.73079681942971   -2.99562645797026   -0.61373463751035
C         0.37232203560452   -3.43752555805840   -0.61059090734892
C         2.79360103672955   -1.15156212826454   -1.83669923365127
C         2.42240265624219    0.02050406187471   -2.59617381434279
C         2.80535735460867    1.18401337743602   -1.84020089304938
C         3.40988147002255    0.73027311011997   -0.61371905317353
C         3.40050860380019   -0.70604024300704   -0.61648852316380
C         1.98429227384023    2.30570254401972   -1.83200285478965
C         0.75829399520030    2.30334870528129   -2.58389180742831
C        -0.23939599220218    3.02365461923330   -1.82062546017607
C         0.36794617499554    3.46173065594950   -0.60482714069957
C         1.74284995336231    3.01828534433093   -0.60228026076375
C        -1.56357918263653    2.58478815405410   -1.83002430070499
C        -1.94332028708932    1.43282675458946   -2.59352437509103
C        -2.93221169792898    0.70023569339101   -1.83030320012206
C        -3.17015809953102    1.42463138689427   -0.60924750993285
C        -2.32349254284055    2.58829178141151   -0.60678079201016
C        -2.95032770342501   -0.67838380138186   -1.82257914717352
C        -2.09145175519393   -1.51372124842422   -2.76699931212518
C        -1.55998535909813   -2.58360849322522   -1.81696316832675
C        -2.29048290585986   -2.55115265309249   -0.60074260056943
C        -3.14509034272693   -1.38225633383311   -0.60708436884134
C        -0.96437818732954   -0.69183829972495   -3.33590614210902
C        -0.97648671431626    0.72227169335170   -3.30746739164274
C         0.39703399705056    1.18581552166225   -3.31402834487393
C         1.24104744406854    0.02408168981932   -3.31835585280894
C         0.37820360629336   -1.13942890240425   -3.31326385819438
C        -1.82561301098042    0.00950684479065    4.97159154805246
F        -0.83013710886174    0.00786330760895    5.86210937030217
F        -2.57512079743710   -1.06834894928975    5.21682815731923
F        -2.58066821766032    1.08179718108223    5.22887715807964
C         2.94825374840732   -2.13538819264269    3.86234427750909
F         3.95833303281142   -2.86747016807524    3.37852331756159
F         3.48825549121591   -1.19828534862185    4.64800877653751
F         2.22386155046008   -2.93995030994606    4.64650687504272
C        -2.94649345126873   -2.13895630475765   -3.87930516096917
F        -3.95148402578819   -2.86988513353479   -3.38513856969802
F        -3.49272706970502   -1.20601403435358   -4.66651781993795
F        -2.22631925846030   -2.94547669735237   -4.66555307772687
72
 energy: -177.497433354237 gnorm: 0.004579146838 xtb: 6.4.1 (a3dbbd7)
C        -1.30073411534313    0.02011176762284    3.54039580074182
C        -0.34942458808388   -1.15405334102420    3.30505170945018
C         0.96133198109022   -0.70049987216907    3.28664893637890
C         0.97802759921629    0.72704740697032    3.26288822834974
C        -0.36952554053433    1.19982072757779    3.30316747284728
C         2.31138671058111   -2.55755099995806    0.57397942561209
C         3.15582541869639   -1.38975601560911    0.57764981926702
C         2.95824512335144   -0.68286027973622    1.79470974604136
C         2.10455486328746   -1.51979075655369    2.74492205785901
C         1.57713065190620   -2.58959458172380    1.79697185201711
C         3.17331653611961    1.41523326625166    0.56781266789071
C         2.33135329170195    2.58473905950899    0.57231325461388
C         1.57839443059195    2.58196690565750    1.80523256002739
C         1.95583216355521    1.43645558045104    2.55896231375232
C         2.93735738533787    0.69337940639431    1.79153353301111
C        -0.35937385973369    3.45499145107532    0.58460733319544
C        -1.73309687471011    3.01260158155821    0.58161014697780
C        -1.97977032334518    2.30645110850491    1.80534116171098
C        -0.73670343490954    2.29571663044089    2.56304894555431
C         0.25082837431613    3.01771862144908    1.80102714128197
C        -3.40125536434248    0.73313182679096    0.57213293489577
C        -3.38807454431193   -0.69549971875397    0.57550454687704
C        -2.76344150292287   -1.12425245779215    1.81084219115318
C        -2.43225634739097    0.01376072865195    2.55491349574962
C        -2.78423494597539    1.17460730282163    1.80354460621193
C        -1.70910661828028   -2.98209872740373    0.58606720328784
C        -0.35298268487293   -3.42996767033521    0.57832050824937
C         0.26564282201305   -2.98942398180351    1.79796642473165
C        -0.74709751694211   -2.28326441742726    2.58038433738917
C        -1.94330467110424   -2.27629779913334    1.82648164840370
C        -0.24754424557902   -2.99318931646067   -1.83457131955844
C         0.75669387980488   -2.28212702988809   -2.60827185352703
C         1.96676117713773   -2.27330709038227   -1.84773311178097
C         1.72984555617453   -2.99150022522204   -0.61412550990096
C         0.37076968831158   -3.43227799674012   -0.61244557629771
C         2.79215778162832   -1.15076545533548   -1.83721147316258
C         2.42073011503376    0.02039594748653   -2.59822979394488
C         2.80461052243816    1.18383925520099   -1.84279500744129
C         3.40925215653435    0.73019962011326   -0.61540859827922
C         3.39909022871369   -0.70638360996790   -0.61632372409229
C         1.98349261016777    2.30568590222887   -1.83490231055594
C         0.75729525205948    2.30336321816562   -2.58675143549470
C        -0.23951335333873    3.02453898141327   -1.82271548677745
C         0.36840781553330    3.46234637207494   -0.60635178307334
C         1.74339637742257    3.01837770572678   -0.60449468936903
C        -1.56371749615092    2.58582918749810   -1.83186384102606
C        -1.94513620290132    1.43386707362188   -2.59587173814543
C        -2.93254879128051    0.69940421972376   -1.83160809987664
C        -3.16640080453535    1.42244522920013   -0.60897825616512
C        -2.32164729108258    2.58788830770924   -0.60755904486877
C        -2.95361754216515   -0.68024058165839   -1.83016830276204
C        -2.09824375630493   -1.51699031631542   -2.77734124772568
C        -1.56357505523862   -2.58440715059182   -1.82619793855163
C        -2.28811813837617   -2.54880773242094   -0.60495607345189
C        -3.14205114743873   -1.37984436918929   -0.60994319315518
C        -0.96946100601161   -0.69403087847419   -3.33879077664765
C        -0.97934543785186    0.72077464675599   -3.30885585584435
C         0.39439202491222    1.18454901961375   -3.31543710126759
C         1.23789049144954    0.02321408036444   -3.31947980831638
C         0.37442476060662   -1.14029741251750   -3.31525928632751
C        -1.82775226808421    0.00894219057719    4.98585797600278
F        -0.83562956341816    0.00824371705754    5.88090660070540
F        -2.57914826745343   -1.06774433613935    5.23253355503700
F        -2.58422584870388    1.08100139511455    5.24344772342739
C         2.94989441188730   -2.13347017385041    3.87222958745873
F         3.96196691973219   -2.86619206407843    3.39256966798210
F         3.48927603497576   -1.19670457237017    4.65913851003494
F         2.22644985562488   -2.93816059067271    4.65749999240971
C        -2.95101079962380   -2.14093550529656   -3.89389416724997
F        -3.95752003938772   -2.87361740748542   -3.40434402902033
F        -3.49756648438781   -1.20936187597156   -4.68322929670704
F        -2.23122269350493   -2.94699664632407   -4.68163928143097
72
 energy: -177.497470987334 gnorm: 0.002305035546 xtb: 6.4.1 (a3dbbd7)
C        -1.29987402509763    0.01946096531278    3.54397625226947
C        -0.34918256811502   -1.15460694853628    3.30426294844734
C         0.96123005140998   -0.70120106970374    3.28506742866050
C         0.97808172855226    0.72634452747789    3.26134703578404
C        -0.36953113351118    1.19862115043684    3.30203489273661
C         2.31193175996541   -2.55863418987527    0.57347028089717
C         3.15673945541060   -1.39079256568541    0.57707484790600
C         2.95919520193132   -0.68359927245346    1.79427769694326