62
 energy: -137.485852104826 gnorm: 0.197703263309 xtb: 6.4.1 (a3dbbd7)
C        -1.23626340000000    0.00000000000000    3.32997640000000
C        -0.38202640000000   -1.17575640000000    3.32997640000000
C         1.00015810000000   -0.72665740000000    3.32997640000000
C         1.00015810000000    0.72665740000000    3.32997640000000
C        -0.38202640000000    1.17575640000000    3.32997640000000
C         2.34433560000000   -2.60145750000000    0.59464210000000
C         3.19857260000000   -1.42570110000000    0.59464210000000
C         2.96246730000000   -0.69904370000000    1.83090550000000
C         1.96230920000000   -1.42570110000000    2.59495830000000
C         1.58028280000000   -2.60145750000000    1.83090550000000
C         3.19857260000000    1.42570110000000    0.59464210000000
C         2.34433560000000    2.60145750000000    0.59464210000000
C         1.58028280000000    2.60145750000000    1.83090550000000
C         1.96230920000000    1.42570110000000    2.59495830000000
C         2.96246730000000    0.69904370000000    1.83090550000000
C        -0.36750900000000    3.48258920000000    0.59464210000000
C        -1.74969350000000    3.03349030000000    0.59464210000000
C        -1.98579880000000    2.30683290000000    1.83090550000000
C        -0.74953540000000    2.30683290000000    2.59495830000000
C         0.25062270000000    3.03349030000000    1.83090550000000
C        -3.42570570000000    0.72665740000000    0.59464210000000
C        -3.42570570000000   -0.72665740000000    0.59464210000000
C        -2.80757400000000   -1.17575640000000    1.83090550000000
C        -2.42554760000000    0.00000000000000    2.59495830000000
C        -2.80757400000000    1.17575640000000    1.83090550000000
C        -1.74969350000000   -3.03349030000000    0.59464210000000
C        -0.36750900000000   -3.48258920000000    0.59464210000000
C         0.25062270000000   -3.03349030000000    1.83090550000000
C        -0.74953540000000   -2.30683290000000    2.59495830000000
C        -1.98579880000000   -2.30683290000000    1.83090550000000
C        -0.25062270000000   -3.03349030000000   -1.83090550000000
C         0.74953540000000   -2.30683290000000   -2.59495830000000
C         1.98579880000000   -2.30683290000000   -1.83090550000000
C         1.74969350000000   -3.03349030000000   -0.59464210000000
C         0.36750900000000   -3.48258920000000   -0.59464210000000
C         2.80757400000000   -1.17575640000000   -1.83090550000000
C         2.42554760000000    0.00000000000000   -2.59495830000000
C         2.80757400000000    1.17575640000000   -1.83090550000000
C         3.42570570000000    0.72665740000000   -0.59464210000000
C         3.42570570000000   -0.72665740000000   -0.59464210000000
C         1.98579880000000    2.30683290000000   -1.83090550000000
C         0.74953540000000    2.30683290000000   -2.59495830000000
C        -0.25062270000000    3.03349030000000   -1.83090550000000
C         0.36750900000000    3.48258920000000   -0.59464210000000
C         1.74969350000000    3.03349030000000   -0.59464210000000
C        -1.58028280000000    2.60145750000000   -1.83090550000000
C        -1.96230920000000    1.42570110000000   -2.59495830000000
C        -2.96246730000000    0.69904370000000   -1.83090550000000
C        -3.19857260000000    1.42570110000000   -0.59464210000000
C        -2.34433560000000    2.60145750000000   -0.59464210000000
C        -2.96246730000000   -0.69904370000000   -1.83090550000000
C        -1.96230920000000   -1.42570110000000   -2.59495830000000
C        -1.58028280000000   -2.60145750000000   -1.83090550000000
C        -2.34433560000000   -2.60145750000000   -0.59464210000000
C        -3.19857260000000   -1.42570110000000   -0.59464210000000
C        -1.00015810000000   -0.72665740000000   -3.32997640000000
C        -1.00015810000000    0.72665740000000   -3.32997640000000
C         0.38202640000000    1.17575640000000   -3.32997640000000
C         1.23626340000000    0.00000000000000   -3.32997640000000
C         0.38202640000000   -1.17575640000000   -3.32997640000000
Cl       -1.84886636902500    0.00000000000000    5.03315507598844
Cl       -0.36014152167560   -4.58182402846686   -2.76190941674295
62
 energy: -137.531775472448 gnorm: 0.111467620591 xtb: 6.4.1 (a3dbbd7)
C        -1.24915987395852   -0.00258217012183    3.35529872686724
C        -0.36257228220522   -1.18469435231117    3.32748240698387
C         1.00253009013109   -0.72503588730458    3.31489839458252
C         1.00040303893147    0.72480786935242    3.31434052010757
C        -0.36386152678164    1.18119096704029    3.32843606801149
C         2.34210931554140   -2.58796067927976    0.59782512683177
C         3.19095118620439   -1.41658708515727    0.59271948802733
C         2.95562982766394   -0.69390011682694    1.82140713960032
C         1.96391097920096   -1.42105497959189    2.58419926732786
C         1.58655188842395   -2.59049847876006    1.82796471458331
C         3.18650899302714    1.42127962865558    0.58973135721619
C         2.33648036430477    2.59076425564485    0.59038746995885
C         1.58025344142818    2.59081368928431    1.82210640851585
C         1.96090900538948    1.42346970956421    2.58180586145111
C         2.95303481145215    0.69770057767426    1.82084231630406
C        -0.36280219357222    3.46444183909234    0.59363726468761
C        -1.73926888490259    3.01768004292948    0.59314567785496
C        -1.97342016000414    2.29328367531062    1.81879977970152
C        -0.73515634409782    2.29252971612020    2.58230514218697
C         0.25492814665779    3.02121567095572    1.82354785920918
C        -3.42265012241005    0.72826773503451    0.57884538153777
C        -3.42444654269564   -0.71839897923894    0.57862356191872
C        -2.79479846836558   -1.16382196906699    1.80479978995252
C        -2.43059245883292   -0.00513660173654    2.54211419312223
C        -2.79658560161601    1.16914713378579    1.80380845932987
C        -1.74242821313909   -3.01438498661699    0.59867762127855
C        -0.35687638100452   -3.45221136263806    0.60373023549389
C         0.26155862285596   -3.02450756636182    1.83370168224982
C        -0.73213009508313   -2.29547212935437    2.58252014860668
C        -1.97121451740389   -2.29941124013764    1.81409928286947
C        -0.25650411516725   -3.10341518030000   -1.85874171318503
C         0.75024750810017   -2.27696573287815   -2.57153857685004
C         1.97333997779031   -2.28808003816080   -1.81896953447615
C         1.74126135562019   -3.00990770182063   -0.58493815056676
C         0.37413855971232   -3.45584304039462   -0.56745353827096
C         2.79852940761881   -1.16449072397266   -1.82192813734576
C         2.41803260731196    0.00274938612350   -2.58189858398180
C         2.79601920317242    1.17228076467167   -1.82286899982399
C         3.41195138569998    0.72590657586164   -0.59335198250606
C         3.41315531804395   -0.72085890984675   -0.59212812988429
C         1.97611358657146    2.29745632540465   -1.82260496228867
C         0.74372364770478    2.29759572810906   -2.58163645366388
C        -0.24964706277676    3.02329095480906   -1.82291528305773
C         0.36572595179293    3.46557907157180   -0.59202316125482
C         1.74241389179526    3.01945208539361   -0.59354035950217
C        -1.57437433309431    2.59156866560914   -1.82240732212701
C        -1.95637576765763    1.42372851478275   -2.58264372581175
C        -2.95750274321698    0.70327909734362   -1.82578145114646
C        -3.19249235846961    1.42642110764461   -0.59833703220942
C        -2.33398638916540    2.59205925222815   -0.59317052847180
C        -2.96389096013640   -0.68593186807802   -1.82677523705466
C        -1.96126081531994   -1.40719507470262   -2.57827361618387
C        -1.60262973378828   -2.58082640331404   -1.82889248196827
C        -2.33455591130680   -2.57847942199910   -0.60028162213162
C        -3.19801794015534   -1.41219239163342   -0.59920796102941
C        -1.00046133408793   -0.71742144516427   -3.31228499647563
C        -0.99829753080757    0.72533943312065   -3.31382003330611
C         0.37883723270077    1.17170376851658   -3.31315449553783
C         1.23005271757563    0.00422475824398   -3.30936391572676
C         0.38067253819303   -1.16240352966402   -3.30700439430684
Cl       -1.87966847028713   -0.00204106518541    5.09950010436332
Cl       -0.36135335980691   -4.67934091672656   -2.81211941134138
62
 energy: -137.552126326552 gnorm: 0.047814281670 xtb: 6.4.1 (a3dbbd7)
C        -1.28651683143051   -0.00472126951227    3.47513939168081
C        -0.34972216753738   -1.18281582572460    3.28251561160596
C         0.99600669943250   -0.72205444861267    3.28171080505228
C         0.99101641068242    0.72132079050843    3.28041297996390
C        -0.35219343909350    1.17625890235812    3.28297645148635
C         2.33946069467763   -2.57556153155972    0.60016803613511
C         3.18506677010628   -1.40811823401323    0.59147288154447
C         2.95109097529168   -0.68962553283700    1.81356533062932
C         1.96432013872907   -1.41880930844086    2.57023832474146
C         1.59024133935275   -2.58074979684004    1.82086122864665
C         3.17719859101479    1.41865317730061    0.58700523215688
C         2.33065274485515    2.58202815102016    0.58782643384387
C         1.57856406002444    2.58296170289945    1.81269675127277
C         1.95758632291821    1.42308489790613    2.56519110886961
C         2.94449255175031    0.69719826962745    1.81245448815806
C        -0.36121424384552    3.45208116588771    0.58721869479147
C        -1.73259373888261    3.00434394458328    0.58738635482119
C        -1.96958273235945    2.28470633116675    1.80449685939297
C        -0.72717019930502    2.27700557363787    2.55315196570974
C         0.25447155944572    3.01052531167324    1.80867049653957
C        -3.41622933202904    0.73220567255599    0.56940515390590
C        -3.41687110737589   -0.70630931549271    0.57094427089324
C        -2.77771421700792   -1.14334857049165    1.79602735213891
C        -2.43422540680682   -0.01162473008084    2.52404123562133
C        -2.78022838819535    1.15867436319215    1.78852390090174
C        -1.73905361576386   -2.99877851821493    0.60825192756517
C        -0.34779062556205   -3.43312560645587    0.60039903832418
C         0.26674964141140   -3.01541244143863    1.82397396876968
C        -0.72010851404566   -2.28246590356067    2.55513322955345
C        -1.96511826020504   -2.29952060520719    1.79717592362211
C        -0.25554499344366   -3.18991311851539   -1.91181659119920
C         0.75788338551776   -2.25446466344959   -2.55935180848659
C         1.95766101292685   -2.26585685308332   -1.80688000091546
C         1.72955222994440   -2.98715006007426   -0.57763094821496
C         0.38036266620179   -3.43256973363046   -0.55461454752723
C         2.79247154299237   -1.15128800628223   -1.81551768412291
C         2.41556413557208    0.00631715106139   -2.57169139942233
C         2.78967457357770    1.16992872145870   -1.81535115421904
C         3.40227152495823    0.72630829595065   -0.59122954204903
C         3.40346188644625   -0.71457284745156   -0.58984103850475
C         1.97032831923659    2.29007452975269   -1.81368898794335
C         0.74226266575903    2.29001421850701   -2.57004261001379
C        -0.24583913619840    3.01568374903663   -1.81888319877381
C         0.36494954227359    3.45222420775214   -0.59294233450086
C         1.73713037945933    3.00744667870899   -0.59227850264713
C        -1.56708630053011    2.58361577901652   -1.81759930832026
C        -1.94845112602035    1.42310952489693   -2.57403625565186
C        -2.95193866891068    0.70913256963595   -1.82462868294621
C        -3.18586397252964    1.42760024985641   -0.60266788046156
C        -2.32551299770474    2.58493734207320   -0.59707900418588
C        -2.95845156195017   -0.67299532276606   -1.82086593664470
C        -1.95166401197787   -1.39429829172044   -2.55496168159014
C        -1.60954613094795   -2.55088033743119   -1.79878732395809
C        -2.31891910497071   -2.55237640304549   -0.60163337340507
C        -3.19068480241850   -1.39359417374073   -0.59813214293364
C        -0.99868513869424   -0.71194503697530   -3.29680970299596
C        -0.99216728928859    0.72134960742432   -3.29758098481513
C         0.38012772202995    1.16762394095261   -3.29799703643655
C         1.22784076189636    0.00760522378146   -3.29491383817081
C         0.38414529047155   -1.15296929734246   -3.28277661223141
Cl       -1.92618869092455   -0.00439963764557    5.24925562932808
Cl       -0.36873728370099   -4.78352865101286   -2.87481528513301
62
 energy: -137.554783577313 gnorm: 0.025684417763 xtb: 6.4.1 (a3dbbd7)
C        -1.28829128533411   -0.00327212416241    3.49240145569265
C        -0.35871794119212   -1.18008981367631    3.30498069228365
C         0.99177732318722   -0.72014780200845    3.28789728960313
C         0.98610081822919    0.72280025093790    3.28622108256488
C        -0.36219089204697    1.17632575924337    3.30620362992384
C         2.33898985330500   -2.57324339324492    0.59556661382706
C         3.18745244866580   -1.40596315481272    0.58989439571649
C         2.95378368621150   -0.68671838763080    1.81380448878910
C         1.96307047141470   -1.41329522325963    2.57131920420415
C         1.59048352368688   -2.57486602947648    1.81829203087836
C         3.18184457039366    1.42257720873940    0.58654582239465
C         2.33398397445515    2.58646120851440    0.58775621189359
C         1.57846463905866    2.58236026799621    1.81279429495634
C         1.95472045885540    1.42199666552087    2.56603384347457
C         2.94732438521394    0.70058482615071    1.81284197796598
C        -0.36078349434576    3.45095485673739    0.58788753012259
C        -1.73291739234236    3.00564296896497    0.58764759134686
C        -1.97023242661274    2.28635358630007    1.80796355541824
C        -0.73154197442321    2.27619015503521    2.56515223588917
C         0.25243883479123    3.00262145664328    1.80955460899649
C        -3.41223931678404    0.73641930159648    0.57130800773567
C        -3.40716405847620   -0.70281629277776    0.57068893116334
C        -2.77466477367938   -1.14028938831532    1.80224742405702
C        -2.42745898405837   -0.00868968787068    2.53970239636041
C        -2.77975194724110    1.16134552694087    1.79599142726890
C        -1.73717438235431   -2.99901388806390    0.60542941051307
C        -0.34755971751804   -3.43818035554126    0.59350226479351
C         0.26534928512367   -3.00226575934842    1.81707452795512
C        -0.72306596345343   -2.27890411185221    2.56520959851515
C        -1.96354765635233   -2.29687380882689    1.79878451848323
C        -0.25446844522343   -3.20302862297554   -1.92180040775201
C         0.75421192869633   -2.27615109248004   -2.57245347369785
C         1.95444433134498   -2.27036057258596   -1.81095150063911
C         1.72727221557878   -2.99120688090713   -0.58228098495792
C         0.37795157805882   -3.45133151689600   -0.56971708906373
C         2.78876535195232   -1.15279075536327   -1.81569873493116
C         2.41348722896817    0.00626611148898   -2.57103907273114
C         2.79251139049890    1.17276986556883   -1.81810388537789
C         3.40672833605310    0.72937160425584   -0.59335718488815
C         3.40567200305777   -0.71266841858181   -0.59207368459700
C         1.97224857433597    2.29345291092126   -1.81585130285833
C         0.74297659943425    2.29240978448582   -2.57198136743512
C        -0.24542671158552    3.02007294486233   -1.82092900928256
C         0.36609781968451    3.45526497145260   -0.59320043410645
C         1.73944574639210    3.01165969590215   -0.59328480032890
C        -1.56776876081821    2.58959535731920   -1.82082980681371
C        -1.95029323413227    1.42824061028293   -2.57890626488725
C        -2.95304000514813    0.71300435750437   -1.82897362977903
C        -3.18692766467978    1.43303689013184   -0.60480129701625
C        -2.32717009369714    2.59123175746354   -0.59899222525235
C        -2.95445492263368   -0.67292241555869   -1.82610155150675
C        -1.94951359546392   -1.40086642417231   -2.56209513991822
C        -1.60089163171733   -2.56596885093061   -1.80848657901968
C        -2.31439399175168   -2.55745783842254   -0.60751533802602
C        -3.18186262599450   -1.39201785410665   -0.60098684976193
C        -0.99921052325596   -0.71376343768596   -3.30078573298516
C        -0.99342682002577    0.72243810717484   -3.29913335551483
C         0.37903016325896    1.16764040227023   -3.29744432682716
C         1.22341027877894    0.00376827157613   -3.29028062090764
C         0.38161192871570   -1.16228085040275   -3.28731001057142
Cl       -1.93274674324091   -0.00579414428234    5.25197995417385
Cl       -0.37175966251950   -4.79144281422911   -2.87606569628081
62
 energy: -137.555690755942 gnorm: 0.014297608485 xtb: 6.4.1 (a3dbbd7)
C        -1.29322031009873   -0.00302887176935    3.51617099214024
C        -0.36534203415758   -1.17745780700331    3.31271917951349
C         0.98758462199461   -0.71914010622020    3.28727915483962
C         0.98122203753969    0.72304568843509    3.28500217681748
C        -0.36970748089758    1.17431510621801    3.31404870352651
C         2.33840712582026   -2.57230233634881    0.59242420112847
C         3.18781992370426   -1.40543622733504    0.58897061738256
C         2.95429102412363   -0.68580168996057    1.81372528034089
C         1.96157761805664   -1.41032071948451    2.57105753901537
C         1.59042967532387   -2.57222130933222    1.81637883818310
C         3.18513094647554    1.42511419266323    0.58629727247300
C         2.33639406841937    2.58905434078203    0.58704389908378
C         1.57796859409501    2.58165844941798    1.81153260399543
C         1.95201705712945    1.42052405694392    2.56440619059750
C         2.94794390619329    0.70180403922564    1.81228145658787
C        -0.36116971305685    3.44910653473248    0.58692397627023
C        -1.73406431186396    3.00684083222647    0.58637562145228
C        -1.97245622545436    2.28856907749026    1.80862009815654
C        -0.73437151907341    2.27398378076461    2.56827237960515
C         0.25078931825732    2.99634860881206    1.80798338351819
C        -3.40710417926126    0.73764509971547    0.57301285685566
C        -3.39824154168103   -0.70051583007124    0.57160724668566
C        -2.77044332479404   -1.13764980320907    1.80827203496206
C        -2.41981676021335   -0.00807945631888    2.54927289774928
C        -2.77865452797221    1.16246060278843    1.80131068924402
C        -1.73751021048537   -3.00059008865347    0.60666889920422
C        -0.34709215049227   -3.43882615397926    0.58884100056249
C         0.26497544913064   -2.99361875309854    1.81134845136856
C        -0.72438286277987   -2.27567168021085    2.56734726818886
C        -1.96440777470147   -2.29877126979336    1.79983358222334
C        -0.25308180643913   -3.21545664660533   -1.93160603926906
C         0.75179324683170   -2.28853288794326   -2.57967992607903
C         1.95136205770783   -2.27111739620550   -1.81219136685085
C         1.72473063712287   -2.99242984256023   -0.58455995238843
C         0.37569434800749   -3.46132064577036   -0.57928711587015
C         2.78632906056091   -1.15306973781451   -1.81502081837517
C         2.41288010040430    0.00679061466833   -2.56996625714739
C         2.79517543964142    1.17499999507791   -1.81928142724912
C         3.41024607209469    0.73132730940901   -0.59449535013928
C         3.40627914166622   -0.71159090636764   -0.59283206269472
C         1.97388026231819    2.29577301208220   -1.81701383450361
C         0.74397624277441    2.29414707377509   -2.57320599611960
C        -0.24504594727190    3.02298738526777   -1.82284760263033
C         0.36683075066352    3.45725922216522   -0.59416499504288
C         1.74094100557393    3.01425276514420   -0.59434656731065
C        -1.56817059218899    2.59372398357848   -1.82345192176156
C        -1.95141501949420    1.43159150570224   -2.58186772442243
C        -2.95300489366527    0.71504223491190   -1.83067676522463
C        -3.18678415259934    1.43523407363295   -0.60578540256085
C        -2.32869915179589    2.59508071823311   -0.60119631286718
C        -2.94928187076900   -0.67275563904528   -1.82660635377138
C        -1.94664272089273   -1.40430493851752   -2.56476037407331
C        -1.59133141511748   -2.57090125119400   -1.80797769451444
C        -2.30868968947268   -2.55947872485895   -0.60989851879203
C        -3.17373743706776   -1.38987197017252   -0.60076852860545
C        -0.99961062049523   -0.71381405571239   -3.30293177031809
C        -0.99398802557120    0.72370486554690   -3.29974348819569
C         0.37858763840091    1.16732357150039   -3.29573545260231
C         1.22140409560122    0.00167478190217   -3.28621061453906
C         0.38065662834886   -1.16628415910688   -3.28668595590657
Cl       -1.94032578639828   -0.00754648455872    5.25818188416670
Cl       -0.37853192846025   -4.79530016205861   -2.87716852676781
62
 energy: -137.555971036384 gnorm: 0.007913313290 xtb: 6.4.1 (a3dbbd7)
C        -1.29621966134269   -0.00340203888449    3.52860765418026
C        -0.36782493958126   -1.17646331119962    3.31073330532934
C         0.98582669457185   -0.71914978046882    3.28469601274354
C         0.97922953351852    0.72274902138147    3.28222099630216
C        -0.37242690903249    1.17258353191383    3.31151979457912
C         2.33848755581990   -2.57272158010536    0.59173302486548
C         3.18765239191920   -1.40601493961663    0.58885020833505
C         2.95396753870075   -0.68615963558774    1.81386343538054
C         1.96098327516363   -1.41003067652776    2.57071682981762
C         1.59021843352870   -2.57268822782402    1.81606545431598
C         3.18589073594569    1.42563123099149    0.58636584584287
C         2.33706578929906    2.58962584424971    0.58668935093947
C         1.57754568008489    2.58173047877709    1.81082131560404
C         1.95098383778002    1.41982393976087    2.56322439265544
C         2.94765955861512    0.70163069979579    1.81204934482665
C        -0.36185149839908    3.44876490938410    0.58620676318867
C        -1.73520104168529    3.00809418124925    0.58562354773505
C        -1.97414078496144    2.29011614330358    1.80818837170993
C        -0.73524739351067    2.27329866213387    2.56723355905521
C         0.25013409022825    2.99473022302209    1.80687220052931
C        -3.40487162782031    0.73695895760031    0.57387946991516
C        -3.39503702083292   -0.70017745487315    0.57274291941568
C        -2.76842165923505   -1.13692189724401    1.81137968568234
C        -2.41560202849171   -0.00870296451356    2.55162020546994
C        -2.77796474852386    1.16239483577984    1.80294818553561
C        -1.73877140820602   -3.00282823250248    0.60888080691399
C        -0.34703229098284   -3.43870402540781    0.58781018413817
C         0.26499455432660   -2.99195345006526    1.80950716933700
C        -0.72482121625348   -2.27546355395820    2.56661740883222
C        -1.96609167453586   -2.30190666961864    1.80094796356551
C        -0.25253902516688   -3.21877893488945   -1.93525944996902
C         0.75135904097181   -2.29045042421969   -2.58070593557839
C         1.95081669209765   -2.27057418581960   -1.81183773048654
C         1.72393384698004   -2.99233876090215   -0.58460246876466
C         0.37458369780121   -3.46270542412369   -0.58148308634379
C         2.78627004548336   -1.15316157979843   -1.81477156046075
C         2.41340702694528    0.00707043218343   -2.56998731813191
C         2.79629206687269    1.17556066312509   -1.81943459301055
C         3.41129815567278    0.73159709414427   -0.59465522093817
C         3.40644528268503   -0.71167312597021   -0.59273416140088
C         1.97438105866101    2.29623549519327   -1.81727085444559
C         0.74451845899197    2.29464490713251   -2.57401003507094
C        -0.24503978740561    3.02343194040725   -1.82359855594483
C         0.36684109763134    3.45805436953257   -0.59467806567879
C         1.74114917411537    3.01478171564160   -0.59473333428339
C        -1.56838333733127    2.59470597920499   -1.82438751335356
C        -1.95157725511940    1.43206625999584   -2.58269133196550
C        -2.95274397149624    0.71505942545626   -1.83049030281686
C        -3.18649299739006    1.43495458006134   -0.60570696810532
C        -2.32942129392947    2.59592724625196   -0.60199074842403
C        -2.94702073689676   -0.67301871656604   -1.82513179597021
C        -1.94492999058935   -1.40459108939324   -2.56405043022902
C        -1.58599428164565   -2.56941510305511   -1.80355847953522
C        -2.30614434976650   -2.55985296920469   -0.60937707724671
C        -3.17102979292071   -1.38923364070613   -0.59957956606640
C        -0.99936337507672   -0.71341486910183   -3.30329911704894
C        -0.99389704052985    0.72427710185969   -3.30048809577556
C         0.37875472016366    1.16716955832429   -3.29558258459625
C         1.22181110579844    0.00126657362139   -3.28579897584243
C         0.38127304298095   -1.16630083279683   -3.28532409231214
Cl       -1.94249789654382   -0.00801965642076    5.25586583606390
Cl       -0.38418103885213   -4.78994227858049   -2.87601613376345
62
 energy: -137.556066017769 gnorm: 0.003775226298 xtb: 6.4.1 (a3dbbd7)
C        -1.29746347717656   -0.00370737503303    3.53295362443018
C        -0.36796305367641   -1.17641391105995    3.30706602040593
C         0.98555547335689   -0.71939121778185    3.28291704978326
C         0.97893253209206    0.72252863023386    3.28048668077993
C        -0.37256222666425    1.17184940752360    3.30736364160379
C         2.33874909563795   -2.57326331662402    0.59210297442124
C         3.18753655372105   -1.40651681746090    0.58898486830772
C         2.95365238605254   -0.68654523241323    1.81398848758259
C         1.96091377798580   -1.41051568435937    2.57046032387038
C         1.59010596256028   -2.57376741668605    1.81638465840131
C         3.18550677650171    1.42535277663023    0.58650047991283
C         2.33685282988361    2.58937555711025    0.58669438811198
C         1.57728255390388    2.58211808364185    1.81070365490268
C         1.95084820747994    1.41979686631388    2.56284138060555
C         2.94731477178231    0.70130560581100    1.81208720641015
C        -0.36233637382850    3.44919092920123    0.58601450124357
C        -1.73583452713972    3.00875429361096    0.58557650663310
C        -1.97492533510419    2.29068465768600    1.80781884972912
C        -0.73529921634449    2.27370789175426    2.56609760833532
C         0.24998651910790    2.99533322998374    1.80658661151879
C        -3.40469531630246    0.73610831491816    0.57408451516830
C        -3.39516746844942   -0.70062517982879    0.57340384840367
C        -2.76800928103782   -1.13711460681822    1.81217237337174
C        -2.41437477492608   -0.00944240295518    2.55078152406697
C        -2.77761627691392    1.16192413881399    1.80266607835567
C        -1.73953582846856   -3.00429467930979    0.61036030940847
C        -0.34704024514608   -3.43902716495063    0.58836918193510
C         0.26514357529695   -2.99309818097402    1.80971297779107
C        -0.72484246456181   -2.27657860267809    2.56607107321341
C        -1.96708878023450   -2.30395138517216    1.80173597878528
C        -0.25272602781973   -3.21812671232902   -1.93583531258755
C         0.75193810997213   -2.28860066894820   -2.57963807449950
C         1.95146344825699   -2.27021922786095   -1.81130161134823
C         1.72412097808618   -2.99217728384576   -0.58402254893681
C         0.37447071304728   -3.46133017763014   -0.58050128211769
C         2.78700019610806   -1.15327089792200   -1.81490138214375
C         2.41404019683944    0.00707738099483   -2.57041917320634
C         2.79639235433009    1.17528988299862   -1.81924388100574
C         3.41107451007731    0.73126242981370   -0.59443208801113
C         3.40652896102606   -0.71201095448781   -0.59249866299903
C         1.97431680015206    2.29589181802341   -1.81712888248093
C         0.74467539249378    2.29444409585425   -2.57429822398674
C        -0.24516215638865    3.02284860196113   -1.82362074536287
C         0.36659875965306    3.45803466349288   -0.59472970594616
C         1.74085450305812    3.01443777243046   -0.59469036032460
C        -1.56842354548999    2.59419025730584   -1.82434551309988
C        -1.95127316282088    1.43131591665613   -2.58248035838163
C        -2.95252656304303    0.71450736031045   -1.82993965217922
C        -3.18632539666381    1.43419929277348   -0.60539970168661
C        -2.32952865697822    2.59543522958037   -0.60191377319809
C        -2.94680360274165   -0.67332582162488   -1.82389765571755
C        -1.94414053856095   -1.40374941837268   -2.56236995358435
C        -1.58418443634885   -2.56676270300507   -1.79986603506016
C        -2.30582243459666   -2.55961924084106   -0.60812255072955
C        -3.17142560277051   -1.38949555020156   -0.59875450299821
C        -0.99885417550590   -0.71332597283059   -3.30285670874654
C        -0.99353287852859    0.72417988273722   -3.30095986015261
C         0.37911805492874    1.16716556949618   -3.29621818836750
C         1.22281557032756    0.00146903159733   -3.28697242742651
C         0.38226618717974   -1.16547723896428   -3.28483476826328
Cl       -1.94146992835725   -0.00756136954348    5.24932109056708
Cl       -0.38810988901060   -4.78229718521341   -2.87486922426195
62
 energy: -137.556085630134 gnorm: 0.001714726890 xtb: 6.4.1 (a3dbbd7)
C        -1.29753376941795   -0.00371021721263    3.53271738241745
C        -0.36727461733572   -1.17667811347856    3.30577996887957
C         0.98587088899776   -0.71947914457747    3.28276229601979
C         0.97930289384960    0.72254271657598    3.28041278382981
C        -0.37182635245610    1.17203384355723    3.30599068355720