63
 energy: -142.082360551908 gnorm: 0.137353458933 xtb: 6.4.1 (a3dbbd7)
C        -1.29585809763920    0.00401118881931    3.54517689231029
C        -0.36796043466059   -1.17243305044266    3.30515820987539
C         0.98298838984909   -0.72191219210780    3.27512267957929
C         0.98156472691728    0.71960753564614    3.26971969840148
C        -0.37066843430553    1.17924059866277    3.30150764324135
C         2.33648296598357   -2.58548060321166    0.57950289371033
C         3.18657767566203   -1.41946403917212    0.57781419536533
C         2.94957050634668   -0.69854930588343    1.80123308089156
C         1.95308396825138   -1.41752165469557    2.55613481597303
C         1.57961582984989   -2.57968580834158    1.80518673258983
C         3.18767024138397    1.40991878537575    0.57593180017933
C         2.33807592119235    2.57402574463448    0.57591940987423
C         1.57683795447400    2.56605672116665    1.79975339077111
C         1.95304946478205    1.40835201085528    2.55205927541471
C         2.95072023090319    0.68875745027160    1.80098024590342
C        -0.36516779392141    3.42666371311492    0.57921714402649
C        -1.72924376731069    3.01648005687427    0.58287705229366
C        -2.09463355901587    2.46231282969886    1.94730853737491
C        -0.73027134368917    2.28553619224850    2.58224921046650
C         0.24829448370074    2.97593693088527    1.80334175247540
C        -3.37466967439567    0.70300551329579    0.57574930039426
C        -3.39003092771629   -0.73268815670587    0.56838248256510
C        -2.76818811346571   -1.16356142396752    1.78871572205038
C        -2.38904763717889    0.02437925858140    2.53264263708558
C        -2.74834472581071    1.12995086235998    1.81420011509538
C        -1.73481952354600   -3.00995345707075    0.57938225067925
C        -0.36149853487188   -3.44686666226009    0.58178847329193
C         0.25217194576597   -2.99475012297255    1.80551622011247
C        -0.72930832450935   -2.27346636848304    2.56467955460776
C        -1.97147545437730   -2.28746259180062    1.79868366143107
C        -0.24419850633136   -3.01431906314620   -1.82647673825261
C         0.74940205395547   -2.29291975806330   -2.58286291039202
C         1.97453700920709   -2.29239152825096   -1.82543977569151
C         1.74139873391846   -3.01127177396538   -0.59946235539016
C         0.36858334361035   -3.45436466601281   -0.59762914030018
C         2.79442417375665   -1.17031401238235   -1.82833550582627
C         2.41574661868216   -0.00512369138436   -2.58546959698227
C         2.79806943058290    1.16104826437995   -1.83045397159780
C         3.41356646756867    0.71553904959985   -0.60565027126811
C         3.41126633543504   -0.72579612437446   -0.60436594375932
C         1.98256115237360    2.28538932475628   -1.82964816243890
C         0.75350030248264    2.28551308222168   -2.58573232043658
C        -0.23508280223273    3.00436687434747   -1.82344140510130
C         0.37359850933878    3.44286488634390   -0.60220138875814
C         1.74684322375821    3.00246743965493   -0.60372642363152
C        -1.55566653240424    2.56818250404503   -1.80941223602174
C        -1.93859434660526    1.40592010808590   -2.57168095899201
C        -2.93551210472019    0.68461262540438   -1.82146846795257
C        -3.16898901543324    1.39767486955451   -0.59605965569985
C        -2.30435127708354    2.57332623889815   -0.58497549494069
C        -2.94114405324375   -0.70773319319533   -1.83440725651199
C        -1.94505174587464   -1.42387954866205   -2.59102123509086
C        -1.56548890453788   -2.59170746569988   -1.83211639417485
C        -2.32839595521473   -2.59312664308342   -0.60918315809929
C        -3.17773883520354   -1.43218193780650   -0.61434027481289
C        -0.98775846768414   -0.72638522805960   -3.31322849835342
C        -0.98659864734294    0.71557045446948   -3.30737103344774
C         0.38544609972999    1.16109326157285   -3.31071431262535
C         1.23106807690940   -0.00470839623161   -3.31198800118088
C         0.38446650877846   -1.17000629315169   -3.31255499434049
Cl       -1.95494402211016   -0.00808767691631    5.23350834623694
Cl       -3.13453400293270    3.62205440046694    2.87428256889563
Cl       -0.34455701898989   -4.56573573730572   -2.75337180894657
63
 energy: -142.106497137553 gnorm: 0.059272338901 xtb: 6.4.1 (a3dbbd7)
C        -1.29643003563648    0.00418166936724    3.54455730820043
C        -0.36790479538042   -1.17155886988505    3.30468535424615
C         0.98350795735305   -0.72041271068436    3.27557065212633
C         0.98125734521455    0.72045300000863    3.26975484391042
C        -0.37150262742715    1.17961684935170    3.30094529570514
C         2.34169455125326   -2.58243746049214    0.58655036567916
C         3.19043712860312   -1.41646075671121    0.58088926685757
C         2.95262917031000   -0.69605482902001    1.80417805187870
C         1.95603572615272   -1.41525216161346    2.55908517312676
C         1.58504363278629   -2.57854580251045    1.81032272007559
C         3.18891206278385    1.41228264197335    0.57729687847134
C         2.33883585697952    2.57542228625923    0.57682110264260
C         1.57709301241942    2.56701385944200    1.80005688225989
C         1.95321636562791    1.40967784781045    2.55263391348250
C         2.95176318867574    0.69086627722331    1.80258096444383
C        -0.36477965961339    3.42735981702522    0.57996475752421
C        -1.72966965725104    3.01852279615264    0.58397081271185
C        -2.09523066905397    2.46470068265218    1.94841897104156
C        -0.73073305094665    2.28633295352312    2.58247680364850
C         0.24831237749774    2.97684570337379    1.80343710110446
C        -3.37712999448182    0.70938445125852    0.57776344286164
C        -3.39453209359740   -0.72639671503251    0.57178365715768
C        -2.77145970981898   -1.16045178004783    1.79091612930441
C        -2.38947037561993    0.02451560103625    2.53195781086500
C        -2.74986673897845    1.13370999481826    1.81492923334893
C        -1.73504589611110   -3.00452161260741    0.58258978857826
C        -0.35477951543597   -3.43478659329353    0.58605311294119
C         0.25673515075340   -2.99425482110367    1.81108230713835
C        -0.72843868282760   -2.27249188971187    2.56478878973753
C        -1.97096577338238   -2.28759372019177    1.79824369168707
C        -0.24792749749019   -3.10859535566725   -1.88162440682488
C         0.75853589150131   -2.27962096675567   -2.57935367627137
C         1.97363776537493   -2.28227460625655   -1.82069747639470
C         1.74016734747751   -3.00162098256430   -0.59311858243138
C         0.37667081580483   -3.44690518272665   -0.58466068196763
C         2.79995325025484   -1.16370837708436   -1.82761904967548
C         2.42223609028174   -0.00106686071244   -2.58577821483932
C         2.80137682370492    1.16398774278379   -1.82930897044084
C         3.41676239373667    0.71863195627480   -0.60413022506863
C         3.41502339707643   -0.72233893012435   -0.60208865000624
C         1.98364092752464    2.28674316034795   -1.82867319049931
C         0.75401807980768    2.28617260074698   -2.58432041869648
C        -0.23493840643495    3.00561320227646   -1.82283867355680
C         0.37377026158348    3.44318462058891   -0.60183326300700
C         1.74737039100633    3.00332227611881   -0.60325062619995
C        -1.55651280216822    2.56993504668368   -1.80855119904144
C        -1.94187172387114    1.40967742917279   -2.56997171659166
C        -2.94244842723198    0.69268599243496   -1.82042579391970
C        -3.17299574041678    1.40429941221605   -0.59465396427539
C        -2.30527632786813    2.57694474452060   -0.58375958910058
C        -2.95302913800359   -0.69856762022877   -1.83073671646024
C        -1.94862997886126   -1.41534178200169   -2.57809047608573
C        -1.59110170284640   -2.59053893097233   -1.83478361072944
C        -2.32825282256685   -2.57832569083577   -0.60883628670249
C        -3.18696623182480   -1.42174866149364   -0.61212699700997
C        -0.98950066438823   -0.72156392512441   -3.30723703681740
C        -0.98734139696851    0.71582701219016   -3.30441400042599
C         0.38623030698449    1.16182046351022   -3.30838404387038
C         1.23593788780895   -0.00003470392160   -3.31194646975589
C         0.38864515898241   -1.16154971188948   -3.30123158638383
Cl       -1.95453648828235   -0.00846022619488    5.23318136942570
Cl       -3.13435946543197    3.62507266320465    2.87639173871593
Cl       -0.34443246431278   -4.69531191540222   -2.83049639570304
63
 energy: -142.112475915787 gnorm: 0.013923570069 xtb: 6.4.1 (a3dbbd7)
C        -1.29638860662927    0.00648257237447    3.54449988275001
C        -0.36775096598715   -1.16896312978775    3.30406067594708
C         0.98437279422381   -0.71730651943110    3.27655399187221
C         0.98119165912801    0.72301401526200    3.27018923461318
C        -0.37193856501781    1.18218248471673    3.30136299873045
C         2.34032264396040   -2.57790683008329    0.58841071734064
C         3.19086091364963   -1.41307645316194    0.58300666592011
C         2.95466727040572   -0.69225855729829    1.80661965243757
C         1.95848285223543   -1.41201378846910    2.56200007430694
C         1.58656876492491   -2.57339721017318    1.81046644088750
C         3.19031758790262    1.41637916523571    0.57970409989986
C         2.33955888526472    2.57869032534002    0.57894047581456
C         1.57732309284440    2.57026023261384    1.80170951103122
C         1.95367281899412    1.41305570763983    2.55414118833374
C         2.95302093959825    0.69480430969479    1.80501465724937
C        -0.36477191623895    3.43013534683956    0.58207860186600
C        -1.73036322278399    3.02228790687568    0.58613050267796
C        -2.09551160802362    2.46810524278877    1.95054037375847
C        -0.73096661359931    2.28935052168430    2.58416012471356
C         0.24835059886458    2.97984986196869    1.80479489830324
C        -3.37935629682480    0.71509625030774    0.58015655569865
C        -3.39397270715159   -0.72161913531875    0.57341195906966
C        -2.77213987261115   -1.15617238670605    1.79261959509563
C        -2.38935273165776    0.02587373249407    2.53179246097091
C        -2.75158500588365    1.13834351421682    1.81640486148607
C        -1.73597461067303   -3.00465171699330    0.58426259196079
C        -0.35087479892875   -3.43167848871192    0.58123865828723
C         0.25768138599388   -2.98764922946549    1.80648097256812
C        -0.72766463683508   -2.26891016774773    2.56281327907162
C        -1.96888029828894   -2.28601718686618    1.79451045331896
C        -0.24856186172734   -3.19125504896254   -1.92976064709258
C         0.76109003424340   -2.28196162913359   -2.58244264524652
C         1.96468144357482   -2.27643791729261   -1.81894523532482
C         1.73074775832285   -2.99546666058990   -0.59121490176941
C         0.37873825169352   -3.45180683794853   -0.58429835285508
C         2.79790874038312   -1.15982990994721   -1.82480853139091
C         2.42293217142211    0.00129584114284   -2.58110160243815
C         2.80410140236891    1.16763492699699   -1.82746933116327
C         3.41865717359654    0.72226871824817   -0.60161369307713
C         3.41520714306947   -0.71895309514505   -0.59986881748068
C         1.98471972206819    2.28942152057284   -1.82662628430266
C         0.75418356492204    2.28750920315298   -2.58149369701381
C        -0.23472781658182    3.00812162713991   -1.82065282787832
C         0.37366888176920    3.44516979837297   -0.60006823333186
C         1.74763227199935    3.00552110869170   -0.60148193478811
C        -1.55688432615826    2.57215264464504   -1.80651382459976
C        -1.94338340548673    1.41341039859595   -2.56739326477903
C        -2.94360345029649    0.69751978966264   -1.81797157665105
C        -3.17633972700850    1.41033359978889   -0.59292336591716
C        -2.30645746713368    2.58144271763115   -0.58148019106897
C        -2.95196757190285   -0.69414393257114   -1.82699744400701
C        -1.94348617351094   -1.41571789488971   -2.56924800498417
C        -1.59347400726247   -2.58619357896617   -1.83141393535786
C        -2.31942433101185   -2.57175603350638   -0.61241855575563
C        -3.18427877198236   -1.41566349161741   -0.61042207247868
C        -0.99089289077867   -0.72080038630348   -3.30631434450119
C        -0.98771184670906    0.71392241375953   -3.29909769681074
C         0.38590456004333    1.16176811668645   -3.30281027740507
C         1.23393373711085   -0.00058115709877   -3.30302681386652
C         0.38981660737896   -1.16477352545614   -3.29415599297209
Cl       -1.95450552206359   -0.00829635399789    5.23297830230973
Cl       -3.13361777189944    3.62924696444000    2.87985750977412
Cl       -0.35211651251737   -4.78938172445536   -2.88794156961142
63
 energy: -142.112793112517 gnorm: 0.008256243202 xtb: 6.4.1 (a3dbbd7)
C        -1.29621551768217    0.00773743045624    3.54458565005572
C        -0.36756900306958   -1.16746322670582    3.30296147842261
C         0.98464712684349   -0.71555579466815    3.27665632713201
C         0.98127667935537    0.72458929357820    3.27083192440052
C        -0.37206264441200    1.18360586929550    3.30170603811794
C         2.33822314389959   -2.57573889933284    0.58710015762565
C         3.18952272313928   -1.41137220620626    0.58346950363641
C         2.95497526419004   -0.69047499789078    1.80752249562730
C         1.95890004521304   -1.41044216395823    2.56272078969198
C         1.58609776734411   -2.57080648755428    1.80902958977925
C         3.19100790523105    1.41853592981240    0.58101024525864
C         2.34002051189640    2.58080126411308    0.58025088860639
C         1.57738878228228    2.57224779678393    1.80286659687040
C         1.95401982154120    1.41502308324357    2.55533226599974
C         2.95362016614113    0.69680338567750    1.80640104485918
C        -0.36501248620312    3.43192973705055    0.58316814830873
C        -1.73084803102161    3.02419404305164    0.58703836682772
C        -2.09590152839255    2.46989589775201    1.95163336395200
C        -0.73120292570321    2.29096002370530    2.58496812585075
C         0.24825638302678    2.98164378999341    1.80567505348088
C        -3.37966752090493    0.71672899289227    0.58095405656094
C        -3.39231163800721   -0.72035515386649    0.57333381671405
C        -2.77141908440245   -1.15461551963225    1.79303658231841
C        -2.38902391241051    0.02674885999272    2.53176311105363
C        -2.75248389662894    1.14023322533188    1.81728363058864
C        -1.73676501967032   -3.00685614858424    0.58515788032065
C        -0.35058117983020   -3.43502725499725    0.57784525477295
C         0.25748808306641   -2.98438108919832    1.80198759408853
C        -0.72701763342174   -2.26660370167840    2.56031803669574
C        -1.96826162359134   -2.28542438827412    1.79286175506227
C        -0.24710477361905   -3.21185091860193   -1.94153322709647
C         0.76090408431480   -2.29016598295987   -2.58804493964169
C         1.96123705324149   -2.27691810293298   -1.81974667911650
C         1.72716202701401   -2.99591625375618   -0.59207350254702
C         0.37830498378751   -3.46089660791778   -0.58876390797962
C         2.79499967395305   -1.15950915587474   -1.82272114699877
C         2.42149140340614    0.00148311312208   -2.57818613855498
C         2.80429992639541    1.16899022644203   -1.82619766378429
C         3.41883490843266    0.72391316227987   -0.60033053461291
C         3.41368773384141   -0.71748838197800   -0.59884001900279
C         1.98470532348333    2.29057993871374   -1.82506610639585
C         0.75391813582230    2.28763689428691   -2.57956670378059
C        -0.23467799493255    3.00939365116590   -1.81943140462194
C         0.37356634842755    3.44666637799130   -0.59900618497505
C         1.74776364140306    3.00718395839705   -0.60028184651052
C        -1.55685198789776    2.57315001170316   -1.80564395502759
C        -1.94328857529818    1.41461667490884   -2.56642250694446
C        -2.94268538613100    0.69822921211157   -1.81685780594363
C        -3.17700369909570    1.41204196712433   -0.59236900652175
C        -2.30701511433454    2.58329863891983   -0.58066254850129
C        -2.94841883498252   -0.69375240185172   -1.82577640827639
C        -1.94035731849801   -1.41841701062759   -2.56869436955405
C        -1.58852556881403   -2.58609006606803   -1.83009005072804
C        -2.31525746570056   -2.57297055180984   -0.61446448926433
C        -3.18011665299166   -1.41459664344760   -0.60988402308287
C        -0.99132711601779   -0.72113256541856   -3.30810849205352
C        -0.98798499689250    0.71313191114235   -3.29727133103708
C         0.38532606727617    1.16076545670195   -3.29908573716192
C         1.23168350808645   -0.00262672858375   -3.29785021575414
C         0.38951146806594   -1.16929442297813   -3.29482206197648
Cl       -1.95447660960304   -0.00754529581381    5.23299372212804
Cl       -3.13226052355915    3.63218166508589    2.88241802607336
Cl       -0.35775466561061   -4.80464275817401   -2.89815221128899
63
 energy: -142.112892790596 gnorm: 0.004767940319 xtb: 6.4.1 (a3dbbd7)
C        -1.29618028213027    0.00797582281365    3.54469787824373
C        -0.36746120155576   -1.16710662350743    3.30270973182841
C         0.98482183639864   -0.71489422000246    3.27680801071150
C         0.98140893294028    0.72508309330245    3.27127466415163
C        -0.37211011955580    1.18383995417361    3.30173942388083
C         2.33690831929534   -2.57422985440132    0.58628460535303
C         3.18866502678375   -1.41043952744102    0.58369188837483
C         2.95520358305742   -0.68981905251916    1.80817933887435
C         1.95920481451994   -1.40980633593687    2.56336598172711
C         1.58583919723304   -2.56962370107426    1.80848919024230
C         3.19154059609701    1.41945097635263    0.58154612528438
C         2.34033379485195    2.58162225854080    0.58073565576703
C         1.57740862857067    2.57282526371650    1.80324459174062
C         1.95428114040670    1.41567916631525    2.55589712878592
C         2.95409004921094    0.69755756974280    1.80711198945070
C        -0.36519245157551    3.43231510946255    0.58338348668683
C        -1.73113823041940    3.02454818190497    0.58709017272314
C        -2.09610068311797    2.47015045160514    1.95181851007198
C        -0.73134139393099    2.29109342179794    2.58501157148247
C         0.24818248220718    2.98193935999577    1.80576471312120
C        -3.37970155176204    0.71698549822392    0.58111969875721
C        -3.39145530793281   -0.72016442123247    0.57312895717189
C        -2.77100110522116   -1.15417009633822    1.79344428449971
C        -2.38892719234551    0.02676552504437    2.53177145355747
C        -2.75322204321253    1.14068391263575    1.81766021900654
C        -1.73760074379030   -3.00846253444373    0.58649361968944
C        -0.35062085520532   -3.43665430431415    0.57634867332774
C         0.25749609126840   -2.98265503110285    1.79957745123435
C        -0.72661025723767   -2.26545644579368    2.55898248759848
C        -1.96828071475111   -2.28558147443143    1.79252469416215
C        -0.24623074315903   -3.22016251396043   -1.94630858944475
C         0.76030716150027   -2.29462867061016   -2.59103513087770
C         1.95926769023810   -2.27667187112966   -1.81989941214030
C         1.72510779715359   -2.99568841610126   -0.59226451208819
C         0.37759685997899   -3.46567321048580   -0.59138593312292
C         2.79318933409406   -1.15922280427021   -1.82130662682426
C         2.42078509375399    0.00166356574770   -2.57691628342066
C         2.80449091515133    1.16975821835369   -1.82570181973836
C         3.41905637902642    0.72476681238399   -0.59991328866899
C         3.41273473142166   -0.71669980389479   -0.59828980751230
C         1.98466097038977    2.29106052353059   -1.82439520976687
C         0.75384250912963    2.28766388374023   -2.57895270176263
C        -0.23463157942999    3.00987616718462   -1.81915832467458
C         0.37351877923746    3.44721640059307   -0.59875183759487
C         1.74788905270781    3.00793636387864   -0.59986304934419
C        -1.55681403345317    2.57343958360580   -1.80564420199158
C        -1.94318775855905    1.41520145336067   -2.56645753354612
C        -2.94218084428692    0.69823941054739   -1.81665135725587
C        -3.17723137722693    1.41232508013985   -0.59241444184628
C        -2.30733525360611    2.58376568347250   -0.58067683773252
C        -2.94607272258231   -0.69372063322830   -1.82515956703545
C        -1.93827786289567   -1.41990096260815   -2.56891057923079
C        -1.58413390198376   -2.58504659516870   -1.82846946737431
C        -2.31268204075192   -2.57408098688864   -0.61537712790772
C        -3.17739782489380   -1.41414526732653   -0.60961566283109
C        -0.99163868168138   -0.72073197188864   -3.30993385275405
C        -0.98819133719893    0.71307063591963   -3.29715796832089
C         0.38503879687508    1.16013124221215   -3.29724678134341
C         1.23059644460645   -0.00377881087992   -3.29518448790151
C         0.38925961567000   -1.17131928929305   -3.29527413980417
Cl       -1.95432840487043   -0.00691865523519    5.23312543322673
Cl       -3.13121251131647    3.63349495345740    2.88345244062166
Cl       -0.36284585134498   -4.80466085676246   -2.89922123535251
63
 energy: -142.112934416489 gnorm: 0.002497776422 xtb: 6.4.1 (a3dbbd7)
C        -1.29623252386458    0.00771213332185    3.54475380437485
C        -0.36745820020035   -1.16741736733740    3.30292785612496
C         0.98489279266264   -0.71493357247796    3.27689469883622
C         0.98143736885689    0.72493914068449    3.27137183630206
C        -0.37217062928049    1.18354221465891    3.30158457269027
C         2.33657597324675   -2.57363182887114    0.58605882023905
C         3.18843103511057   -1.41019608445775    0.58375983395239
C         2.95534562495751   -0.68983156994839    1.80850208665724
C         1.95943384406018   -1.40979132578231    2.56378077557193
C         1.58590644384247   -2.56949646134860    1.80858604098425
C         3.19173183091690    1.41954577046814    0.58158059957203
C         2.34037125707280    2.58158697111039    0.58070871196707
C         1.57732594944974    2.57266403947492    1.80316411902834
C         1.95431810993016    1.41557606699777    2.55592668037156
C         2.95426301621780    0.69756902390299    1.80726392501232
C        -0.36531377992067    3.43201909745761    0.58318344949369
C        -1.73126631773562    3.02417619447033    0.58681314190833
C        -2.09613779377420    2.46967542617231    1.95154334443205
C        -0.73143549611558    2.29062988561744    2.58472836648572
C         0.24808864278137    2.98158642090078    1.80550429248085
C        -3.37961193426614    0.71665705035415    0.58098195160730
C        -3.39128277498358   -0.72045832967157    0.57298726294372
C        -2.77085472023502   -1.15435267066010    1.79374191744884
C        -2.38894415853274    0.02634272338930    2.53172094718383
C        -2.75358487165394    1.14042214925238    1.81761623904825
C        -1.73802869794847   -3.00920826868023    0.58752250602839
C        -0.35052430934835   -3.43674753948847    0.57613495818355
C         0.25770076703697   -2.98223655786870    1.79892763319095
C        -0.72641736880157   -2.26533337976831    2.55870050787887
C        -1.96847918998201   -2.28615376373434    1.79280200541238
C        -0.24607701553675   -3.22259688046004   -1.94777364605999
C         0.75987845254508   -2.29555155913892   -2.59155047512216
C         1.95855624112045   -2.27606365370864   -1.81965122133713
C         1.72436162975395   -2.99510563351409   -0.59202964040636
C         0.37719301719126   -3.46656105620648   -0.59207081228415
C         2.79268459189321   -1.15905376837044   -1.82075968997105
C         2.42078641870175    0.00180389278798   -2.57680195969438
C         2.80472035092619    1.17002979119348   -1.82572138859196
C         3.41923865187621    0.72499953465917   -0.59998405212821
C         3.41248720188357   -0.71648890891456   -0.59815186044283
C         1.98463137619428    2.29106727149156   -1.82434077240678
C         0.75388097686086    2.28765787124355   -2.57915545743986
C        -0.23463031442101    3.00984435950545   -1.81936858043673
C         0.37345347803875    3.44715739750431   -0.59891185846025
C         1.74788161313318    3.00797333794562   -0.59992229066964
C        -1.55681541194436    2.57331276343996   -1.80598067874143
C        -1.94314110889832    1.41534181876456   -2.56687691657945
C        -2.94210226575129    0.69804468914387   -1.81689701145213
C        -3.17722610846776    1.41199867098908   -0.59267056048389
C        -2.30744811335598    2.58352571015158   -0.58097052524084
C        -2.94524196094597   -0.69377476902527   -1.82496233531517
C        -1.93718799086585   -1.42018749521053   -2.56889563399101
C        -1.58145014968223   -2.58357612914937   -1.82696728597039
C        -2.31139016385716   -2.57437171352215   -0.61553556568756
C        -3.17637633828432   -1.41400221527664   -0.60956302530634
C        -0.99172040405712   -0.72019350900407   -3.31090013602826
C        -0.98824576841624    0.71325132975836   -3.29779511953234
C         0.38503556581393    1.15992041683840   -3.29698362600655
C         1.23045949608291   -0.00413225082905   -3.29448954718731
C         0.38927897962180   -1.17152968547721   -3.29512577173342
Cl       -1.95430896503896   -0.00652111412731    5.23318802330490
Cl       -3.13081847891417    3.63366262565251    2.88341236871589
Cl       -0.36703761190844   -4.79872612578809   -2.89662953057899
63
 energy: -142.112946610572 gnorm: 0.001372848690 xtb: 6.4.1 (a3dbbd7)
C        -1.29629137997844    0.00745455919154    3.54471357019746
C        -0.36749608670599   -1.16776077996484    3.30314141370234
C         0.98489070545987   -0.71518435656222    3.27687510499353
C         0.98138167411724    0.72467576532333    3.27123925493049
C        -0.37222301470139    1.18327486922422    3.30144107944929
C         2.33690740253764   -2.57381375594869    0.58621268525418
C         3.18862228675813   -1.41035639994653    0.58373303336860
C         2.95536370722649   -0.69002683223120    1.80847431570098
C         1.95951277915576   -1.40998711404823    2.56381610506260
C         1.58610060099104   -2.56983308408936    1.80884296608187
C         3.19163466627804    1.41932324599490    0.58143450388178
C         2.34024906824673    2.58129607157214    0.58053900963555
C         1.57722821709792    2.57240008708089    1.80299277375499
C         1.95421663417151    1.41531076864772    2.55573798152223
C         2.95418223505786    0.69735809124704    1.80711368394156
C        -0.36535790082456    3.43171614694044    0.58298800690599
C        -1.73127237729659    3.02381660260534    0.58662768106621
C        -2.09610665032720    2.46925867900125    1.95128177564057
C        -0.73149026116747    2.29030934532474    2.58453540585171
C         0.24801396821256    2.98130033005628    1.80531680400471
C        -3.37953051956492    0.71635232532030    0.58082847010126
C        -3.39144181813525   -0.72075595484765    0.57297849406246
C        -2.77087520627304   -1.15466354786402    1.79380313289280
C        -2.38896678900332    0.02599379904801    2.53161360833658
C        -2.75356411423744    1.14009874048237    1.81740876807857
C        -1.73793827768643   -3.00920549901292    0.58774977123686
C        -0.35032605325317   -3.43633007546710    0.57650443041809
C         0.25789571748441   -2.98258901699051    1.79933124893799
C        -0.72639967969233   -2.26571585439622    2.55901936385455
C        -1.96854718436763   -2.28658173454100    1.79308982443837
C        -0.24633426741905   -3.22226575808841   -1.94763834614374
C         0.75993272177613   -2.29461518661906   -2.59085221407061
C         1.95883792336832   -2.27580239636597   -1.81945958610703
C         1.72464930173282   -2.99486969910139   -0.59181471288946
C         0.37730568014946   -3.46555986337588   -0.59155825162836
C         2.79306921905294   -1.15906051846439   -1.82092096623644
C         2.42107923436925    0.00183225437086   -2.57715079363299
C         2.80483596025633    1.16993920257219   -1.82588874954457
C         3.41928237792346    0.72487053482409   -0.60014539954184
C         3.41271142452154   -0.71661865646578   -0.59824749941147
C         1.98463311928668    2.29089872943366   -1.82452599171118
C         0.75393422483303    2.28763237836629   -2.57949971227355
C        -0.23466029823021    3.00965762089222   -1.81960681929105
C         0.37339772242937    3.44692501482519   -0.59909812349957
C         1.74779974774943    3.00772947244494   -0.60010016267385
C        -1.55683819688670    2.57310612546777   -1.80620776486793
C        -1.94313757712772    1.41520894116742   -2.56715175839529
C        -2.94221980801638    0.69791608876693   -1.81715390791999
C        -3.17716666366841    1.41169776684439   -0.59283909420884
C        -2.30741675245909    2.58319495584444   -0.58114846586538
C        -2.94555785144033   -0.69384290222167   -1.82505024909735
C        -1.93709356510535   -1.41979413754840   -2.56866507553959
C        -1.58098701210416   -2.58270750974003   -1.82628787961412
C        -2.31129598883002   -2.57407831000755   -0.61529850387013
C        -3.17667356587865   -1.41407425098509   -0.60963041843417
C        -0.99161478207651   -0.72003589997647   -3.31087593612218
C        -0.98817006569915    0.71333987120728   -3.29828933951499
C         0.38516818188298    1.16000707142192   -3.29751270042816
C         1.23078218056772   -0.00398422809524   -3.29494464543739
C         0.38948369175758   -1.17103804580556   -3.29486908067821
Cl       -1.95446192439219   -0.00646891142568    5.23309367900010
Cl       -3.13104943953873    3.63332181337633    2.88300186008782