156
 energy: -486.119264438125 gnorm: 10.990258597884 xtb: 6.4.1 (a3dbbd7)
C        -1.23626340000000    0.00000000000000    3.32997640000000
C        -0.38202640000000   -1.17575640000000    3.32997640000000
C         1.00015810000000   -0.72665740000000    3.32997640000000
C         1.00015810000000    0.72665740000000    3.32997640000000
C        -0.38202640000000    1.17575640000000    3.32997640000000
C         2.34433560000000   -2.60145750000000    0.59464210000000
C         3.19857260000000   -1.42570110000000    0.59464210000000
C         2.96246730000000   -0.69904370000000    1.83090550000000
C         1.96230920000000   -1.42570110000000    2.59495830000000
C         1.58028280000000   -2.60145750000000    1.83090550000000
C         3.19857260000000    1.42570110000000    0.59464210000000
C         2.34433560000000    2.60145750000000    0.59464210000000
C         1.58028280000000    2.60145750000000    1.83090550000000
C         1.96230920000000    1.42570110000000    2.59495830000000
C         2.96246730000000    0.69904370000000    1.83090550000000
C        -0.36750900000000    3.48258920000000    0.59464210000000
C        -1.74969350000000    3.03349030000000    0.59464210000000
C        -1.98579880000000    2.30683290000000    1.83090550000000
C        -0.74953540000000    2.30683290000000    2.59495830000000
C         0.25062270000000    3.03349030000000    1.83090550000000
C        -3.42570570000000    0.72665740000000    0.59464210000000
C        -3.42570570000000   -0.72665740000000    0.59464210000000
C        -2.80757400000000   -1.17575640000000    1.83090550000000
C        -2.42554760000000    0.00000000000000    2.59495830000000
C        -2.80757400000000    1.17575640000000    1.83090550000000
C        -1.74969350000000   -3.03349030000000    0.59464210000000
C        -0.36750900000000   -3.48258920000000    0.59464210000000
C         0.25062270000000   -3.03349030000000    1.83090550000000
C        -0.74953540000000   -2.30683290000000    2.59495830000000
C        -1.98579880000000   -2.30683290000000    1.83090550000000
C        -0.25062270000000   -3.03349030000000   -1.83090550000000
C         0.74953540000000   -2.30683290000000   -2.59495830000000
C         1.98579880000000   -2.30683290000000   -1.83090550000000
C         1.74969350000000   -3.03349030000000   -0.59464210000000
C         0.36750900000000   -3.48258920000000   -0.59464210000000
C         2.80757400000000   -1.17575640000000   -1.83090550000000
C         2.42554760000000    0.00000000000000   -2.59495830000000
C         2.80757400000000    1.17575640000000   -1.83090550000000
C         3.42570570000000    0.72665740000000   -0.59464210000000
C         3.42570570000000   -0.72665740000000   -0.59464210000000
C         1.98579880000000    2.30683290000000   -1.83090550000000
C         0.74953540000000    2.30683290000000   -2.59495830000000
C        -0.25062270000000    3.03349030000000   -1.83090550000000
C         0.36750900000000    3.48258920000000   -0.59464210000000
C         1.74969350000000    3.03349030000000   -0.59464210000000
C        -1.58028280000000    2.60145750000000   -1.83090550000000
C        -1.96230920000000    1.42570110000000   -2.59495830000000
C        -2.96246730000000    0.69904370000000   -1.83090550000000
C        -3.19857260000000    1.42570110000000   -0.59464210000000
C        -2.34433560000000    2.60145750000000   -0.59464210000000
C        -2.96246730000000   -0.69904370000000   -1.83090550000000
C        -1.96230920000000   -1.42570110000000   -2.59495830000000
C        -1.58028280000000   -2.60145750000000   -1.83090550000000
C        -2.34433560000000   -2.60145750000000   -0.59464210000000
C        -3.19857260000000   -1.42570110000000   -0.59464210000000
C        -1.00015810000000   -0.72665740000000   -3.32997640000000
C        -1.00015810000000    0.72665740000000   -3.32997640000000
C         0.38202640000000    1.17575640000000   -3.32997640000000
C         1.23626340000000    0.00000000000000   -3.32997640000000
C         0.38202640000000   -1.17575640000000   -3.32997640000000
C        -1.76086815247998    0.00000000000000    4.78849957557021
F        -0.76911826531252    0.00000000000000    5.67468926254662
F        -2.50968386795825   -1.06794314680471    5.04863888333743
F        -2.50968386795825    1.06794314680471    5.04863888333743
C        -0.54413818249354   -1.67468516033722    4.78849957845317
F        -0.23767107904745   -0.73147481112462    5.67468925997942
F        -1.79120914301982   -2.05683909935453    5.04863874564184
F         0.24013968171955   -2.71686350152345    5.04863903502921
C         1.42457227037960   -1.03501233722714    4.78849957248258
F         0.62223011468481   -0.45207589682711    5.67468926529602
F         1.40265511061956   -2.33913928186680    5.04863905501621
F         2.65809836182651   -0.61117154425495    5.04863869666890
C         1.42457227037960    1.03501233722714    4.78849957248258
F         0.62223011468481    0.45207589682711    5.67468926529602
F         2.65809836182651    0.61117154425495    5.04863869666891
F         1.40265511061956    2.33913928186680    5.04863905501621
C        -0.54413818249354    1.67468516033722    4.78849957845317
F        -0.23767107904745    0.73147481112462    5.67468925997942
F        -1.79120914301982    2.05683909935453    5.04863874564184
F         0.24013968171955    2.71686350152345    5.04863903502921
C         3.37204091334889   -3.72927672645244    0.86730596148276
F         4.06564647311729   -3.51265957144658    1.98125763710227
F         4.25569947457670   -3.84739838595791   -0.11965645964809
F         2.78580317558591   -4.91533944031226    1.00324916143780
C         4.58877084110522   -2.05459160147071    0.86730597290559
F         4.59709252483521   -2.78118520641283    1.98125951001435
F         4.97417519512416   -2.85850196315549   -0.11965482382298
F         5.53562669678859   -1.13053295630600    1.00324569798425
C         4.58877084110522    2.05459160147071    0.86730597290559
F         4.59709252483521    2.78118520641283    1.98125951001435
F         4.97417519512416    2.85850196315549   -0.11965482382298
F         5.53562669678859    1.13053295630600    1.00324569798425
C         2.28376457660886    3.72927671755932    2.62817408867206
F         3.59030321655004    3.51265997057976    2.75037870097715
F         2.14318168460923    4.91533956626619    2.04303190988612
F         1.79618325340524    3.84739782561575    3.85992562899767
C        -0.53602450593361    4.99908416128281    0.86730591619822
F        -1.22448605650957    5.23152837615597    1.98125850960180
F        -1.18149064144157    5.61404773804446   -0.11965571789346
F         0.63540201352706    5.61404743764837    1.00324736766175
C         0.34440953624153   -4.35941144868709    2.62817404748705
F        -0.83992598883967   -4.95213069234126    2.75037577510431
F         1.15529636597892   -5.23632261667420    2.04303359185445
F         0.80829780400759   -4.16837989546168    3.85992670963205
C        -2.84103082519036   -3.32439911178427    2.62817407941587
F        -2.23127406184888   -4.50005340761388    2.75037746012492
F        -4.01248672303643   -3.55720929213525    2.04303264409737
F        -3.10404037880941   -2.89718378306488    3.85992609894427
C         2.50473491433418   -4.35941144902977   -0.86730593917895
F         2.08438487052912   -4.95213043104453   -1.98125838386969
F         3.81390519137296   -4.16837996597314   -1.00324768478856
F         2.34400857369757   -5.23632280881804    0.11965581818547
C         0.53602450593361   -4.99908416128281   -0.86730591619822
F         1.22448605650957   -5.23152837615597   -1.98125850960180
F        -0.63540201352706   -5.61404743764837   -1.00324736766175
F         1.18149064144157   -5.61404773804446    0.11965571789346
C         4.92005227074660    1.03501232949151   -0.86730592957069
F         5.35386609588658    0.45207588830481   -1.98125865327758
F         5.14292645153878    2.33913927311179   -1.00324714649869
F         5.70437742108406    0.61117153086585    0.11965558739362
C         4.92005227074660   -1.03501232949151   -0.86730592957069
F         5.35386609588658   -0.45207588830481   -1.98125865327758
F         5.14292645153878   -2.33913927311179   -1.00324714649869
F         5.70437742108406   -0.61117153086585    0.11965558739362
C         1.08016271022039    3.32439912180418   -3.71645041587937
F         1.46215754230407    4.50005299330749   -3.22571838851551
F         2.06425285383526    2.89718320022386   -4.50255037491024
F         0.03290491502765    3.55721032900471   -4.50254840735999
C         0.53602450593361    4.99908416128281   -0.86730591619822
F         1.22448605650957    5.23152837615597   -1.98125850960180
F        -0.63540201352706    5.61404743764837   -1.00324736766175
F         1.18149064144157    5.61404773804446    0.11965571789346
C         2.50473491433418    4.35941144902977   -0.86730593917895
F         2.08438487052912    4.95213043104453   -1.98125838386969
F         3.81390519137296    4.16837996597314   -1.00324768478856
F         2.34400857369757    5.23632280881804    0.11965581818547
C        -2.28376457660886    3.72927671755932   -2.62817408867206
F        -3.59030321655004    3.51265997057978   -2.75037870097715
F        -1.79618325340526    3.84739782561576   -3.85992562899768
F        -2.14318168460923    4.91533956626621   -2.04303190988614
C        -4.25247495652193    1.01957928511255   -2.62817407757680
F        -4.45020405360863    2.32910962270744   -2.75037677428969
F        -4.21414295278388    0.51936236815955   -3.85992636334025
F        -5.33704498641440    0.51936149478958   -2.04303305824604
C        -3.37204091334889    3.72927672645244   -0.86730596148276
F        -4.06564647311728    3.51265957144662   -1.98125763710229
F        -2.78580317558593    4.91533944031228   -1.00324916143777
F        -4.25569947457673    3.84739838595791    0.11965645964807
C        -2.82790274436383   -2.05459160758554   -3.71645040671519
F        -3.82797483682855   -2.78118494419178   -3.22571836876305
F        -3.37293748548841   -1.13053297859378   -4.50255013394648
F        -2.11749631416700   -2.85850222732984   -4.50254863174647
C        -2.28376457660886   -3.72927671755932   -2.62817408867206
F        -3.59030321655004   -3.51265997057978   -2.75037870097715
F        -1.79618325340526   -3.84739782561576   -3.85992562899768
F        -2.14318168460923   -4.91533956626621   -2.04303190988614
156
 energy: -494.329462907270 gnorm: 8.604316760225 xtb: 6.4.1 (a3dbbd7)
C        -1.23796154113404    0.00003974009571    3.32308204362298
C        -0.38256021784253   -1.17700345783242    3.32304301910781
C         1.00118721415722   -0.72707687356098    3.32277440753351
C         1.00067279365209    0.72710263015300    3.32210429949469
C        -0.38265079381441    1.17695576683324    3.32293614409740
C         2.33668838109615   -2.59491742957590    0.59672600767944
C         3.18810265181718   -1.41977495534833    0.59644671936506
C         2.96290920474915   -0.69989097516438    1.83141258166014
C         1.96403591227916   -1.42642576991076    2.59312133586200
C         1.58233469582137   -2.60023440061421    1.83163258208130
C         3.19207126820781    1.42462758765276    0.59772304303959
C         2.34511238105232    2.60138601307449    0.59525629578601
C         1.58155324740591    2.60163522477678    1.83118624171156
C         1.96333307395234    1.42565171420713    2.59379495136705
C         2.96310226002271    0.69981074929559    1.83095299059959
C        -0.36939299606718    3.47711602127715    0.59837456224387
C        -1.74981575698675    3.03360044968681    0.59759108856337
C        -1.98480515076757    2.30618657797419    1.83100089077625
C        -0.75161623283502    2.30767681715043    2.59198351642973
C         0.24815580935711    3.03404876851956    1.83172496054049
C        -3.42460516490769    0.72566581954951    0.59623892118241
C        -3.42505205322646   -0.72584977514888    0.59570842543371
C        -2.80898208393250   -1.17158205231139    1.83069850177853
C        -2.42773034981283   -0.00026047437995    2.59134082157702
C        -2.80798048342908    1.17541829438141    1.82994283940659
C        -1.74791715476757   -3.03284347097279    0.59238452825587
C        -0.37050547033586   -3.48244403722201    0.59491041649936
C         0.24971839472602   -3.03527377041825    1.83103223698580
C        -0.74940370042393   -2.30688215133894    2.59356127668879
C        -1.98744850269905   -2.30916294647894    1.83098336882419
C        -0.24876677861059   -3.03398726688830   -1.83272629329841
C         0.74949327781461   -2.30610229148582   -2.59488036781939
C         1.98483271185168   -2.30819976450825   -1.83231462401519
C         1.74577872100846   -3.02675833558340   -0.59703728901068
C         0.36423840102266   -3.47884685430971   -0.59433556490530
C         2.80901661037740   -1.17448451560720   -1.83233267852809
C         2.42516482620274    0.00034371940083   -2.59496520027726
C         2.80813293252221    1.17358121837464   -1.83241095939263
C         3.41560073304466    0.72608895899688   -0.59689615893580
C         3.41378609242854   -0.72512492141158   -0.59640237787667
C         1.98643809489186    2.30892845196724   -1.83068466104349
C         0.75029761051196    2.30744207593438   -2.59580804447652
C        -0.24981687961640    3.03458079937585   -1.83031362579619
C         0.36731674105640    3.47764923801703   -0.59677698460457
C         1.75015162822657    3.02741133554264   -0.59490262253683
C        -1.57914443971939    2.59871683970034   -1.83148558985959
C        -1.96167384756341    1.42561503365219   -2.59644654130559
C        -2.96283247535028    0.70016824843183   -1.83103838931208
C        -3.19916429546383    1.42558323803111   -0.59315860971900
C        -2.34453105972381    2.59905400967720   -0.59297961507948
C        -2.96420216017157   -0.70197543463117   -1.82999488752447
C        -1.96245817465853   -1.42334942900941   -2.59440069252705
C        -1.57946991994392   -2.60103065437349   -1.82852315097818
C        -2.34555820952422   -2.60147130961406   -0.59277984641224
C        -3.19753272852865   -1.42577576684394   -0.59470687073508
C        -0.99715475748375   -0.72447481352999   -3.33007128956641
C        -0.99811831039767    0.72512671831796   -3.33043415443331
C         0.38072143348977    1.17135434441171   -3.32984308255895
C         1.23526369882220    0.00024401885035   -3.33000496449368
C         0.38223247556216   -1.17526268725780   -3.33010898131801
C        -1.78311109320478   -0.00015620530755    4.76521899417036
F        -0.85702864789991   -0.00051580940716    5.70351856120370
F        -2.55483088456548   -1.01670018636242    5.05107521417368
F        -2.55603060036667    1.01661222387799    5.05083432813078
C        -0.55076844073400   -1.69496595017680    4.76667746343836
F        -0.26572656091789   -0.81565203731905    5.70253478758499
F        -1.75474404804607   -2.11431185996896    5.05268253366343
F         0.17654548918380   -2.74250001575407    5.05277036583024
C         1.44073925943242   -1.04703583681133    4.76532438751942
F         0.69381625351548   -0.50413698709565    5.70248433945476
F         1.47021461580166   -2.32515861119274    5.05134660338001
F         2.66688767783045   -0.68008787628462    5.05157478834740
C         1.44008087057362    1.04682912876878    4.76678066851506
F         0.69408830759594    0.50435131180185    5.70234175183626
F         2.66669019748421    0.68006220796614    5.05144169676852
F         1.46916337355370    2.32312319957316    5.05298079925391
C        -0.55063813565480    1.69454898209903    4.76526436809692
F        -0.26477651912920    0.81568165950352    5.70318210995942
F        -1.75699931497233    2.11688436343812    5.05107264303196
F         0.17759325214047    2.74505602685459    5.05128725912133
C         3.35211803658185   -3.70951713302873    0.85166891019619
F         4.04985525752249   -3.55705727753263    2.01001640605686
F         4.25927651897321   -3.89757950659756   -0.09130675234459
F         2.79461518656972   -4.92488583189899    1.04124204724464
C         4.56212436654834   -2.04437259932827    0.85334263647713
F         4.63370002376806   -2.75079724693758    2.00765871381235
F         5.02482234306247   -2.84442556073218   -0.09614538564384
F         5.54691934694401   -1.14041267857883    1.05838173477511
C         4.57374156892015    2.05056548699506    0.87162473692939
F         4.61761872025555    2.77101185365782    1.97047204386138
F         4.97650564243577    2.89009873208708   -0.10229355561961
F         5.53937954671841    1.14810673738509    1.05651702551225
C         2.28264612493314    3.72803271702969    2.62877266652295
F         3.57483579449319    3.52678636408236    2.76553729383396
F         2.14507499230321    4.91720879169035    2.04654642519381
F         1.79632988958781    3.85078506859456    3.86021999655950
C        -0.53903106401696    4.98439970327830    0.87216350525544
F        -1.22565376226930    5.23394350432653    1.98318185532183
F        -1.21022658549669    5.62481658218211   -0.09937872515033
F         0.63000081735451    5.62517600139141    1.03756661903957
C         0.34316591075272   -4.35822842185955    2.62808117079835
F        -0.81552126102941   -4.96224933852095    2.75114174607666
F         1.15564333363278   -5.23897153288302    2.04652007336450
F         0.81028374359607   -4.17123340626941    3.86030538167746
C        -2.84171973252223   -3.32376319247808    2.62714725948513
F        -2.25672667992854   -4.49418789491537    2.75117369973363
F        -4.01442813729947   -3.55759818683137    2.04268876283263
F        -3.10687466294473   -2.89841987361546    3.86013792885169
C         2.48889037762055   -4.33872452011142   -0.84110247422129
F         2.13212813384236   -4.95103559818708   -2.00906509098656
F         3.81759822666958   -4.18506724426473   -1.06443243973535
F         2.39346907522674   -5.24175677705825    0.09962316186488
C         0.53021985040960   -4.99287384969718   -0.85633830426750
F         1.18007029322417   -5.25307868368385   -1.99655304660451
F        -0.63562984550851   -5.61771959384545   -1.00321725692863
F         1.11195675423926   -5.64309072408655    0.12248054108854
C         4.89164730963673    1.03011784711522   -0.85536074354506
F         5.36630533494591    0.49741369677419   -2.00918216788509
F         5.15333458479952    2.34420857113732   -1.03940171699627
F         5.73897788224491    0.65035077442307    0.09361691225561
C         4.89106622966618   -1.02692151262507   -0.85522406072840
F         5.36542444194568   -0.49790404644980   -2.00795325137903
F         5.15837451225753   -2.33871188724265   -1.05648165712828
F         5.73923410664933   -0.65066830327040    0.09699311405318
C         1.07885734259348    3.31982392186937   -3.71825998458047
F         1.45979105720840    4.49154601338914   -3.25507627001012
F         2.06560685246204    2.89729387495459   -4.50396900557336
F         0.03463450786560    3.55774118165797   -4.50523340728991
C         0.53861727847117    4.97178862048516   -0.83734728340887
F         1.18765055850191    5.26651976607079   -1.99438271914361
F        -0.64170169602957    5.63153625935556   -1.04557563210211
F         1.14214176024227    5.64477111468853    0.09887092786539
C         2.50266926406322    4.35173475135347   -0.85630219220680
F         2.13471940680753    4.95042939261327   -1.98190480836491
F         3.81829182087704    4.17094931635909   -1.00662805199410
F         2.41748831492110    5.21947386155419    0.12352411831578
C        -2.27387587006199    3.72854798234795   -2.62933082963070
F        -3.56563416153275    3.52544152338407   -2.79344623497889
F        -1.79858066904752    3.84840289224343   -3.86172052417334
F        -2.10733101191291    4.91960393249198   -2.10571920884106
C        -4.25179994472165    1.01539700868567   -2.62765665178960
F        -4.46670996692455    2.30679809883475   -2.76051412175114
F        -4.21629292186768    0.52128484289176   -3.86095142504041
F        -5.33910424920190    0.51880670070743   -2.04291887287116
C        -3.36858620383082    3.72904898602005   -0.85792781335355
F        -4.09334061934924    3.52549071737231   -1.93996482951073
F        -2.82581537257529    4.91945759511033   -0.94307507241444
F        -4.25795223155002    3.84784752689639    0.12122815854624
C        -2.82004371220680   -2.04713654497437   -3.71998722306835
F        -3.85167690470294   -2.74395108643549   -3.25103152156699
F        -3.37351143893584   -1.13156301008274   -4.50532343983236
F        -2.13611331495021   -2.80265916528848   -4.54276803059740
C        -2.27350719395452   -3.73044302998754   -2.62584681221900
F        -3.58762301599822   -3.55569184736255   -2.72343482922661
F        -1.77707735720479   -3.90704925312465   -3.82513950338515
F        -2.14593540516905   -4.91754531708312   -2.04354153449861
156
 energy: -501.394664854872 gnorm: 6.994392066638 xtb: 6.4.1 (a3dbbd7)
C        -1.23888230710147    0.00036520702692    3.31878019172828
C        -0.38278918526396   -1.17773913109048    3.31820370561306
C         1.00211140681109   -0.72738764320190    3.31736921945962
C         1.00142150418265    0.72751392210068    3.31727797809774
C        -0.38308574089613    1.17748494013502    3.31818254864426
C         2.33128489632757   -2.59022376319491    0.60015785541725
C         3.18129488937187   -1.41679865227420    0.59973227586133
C         2.96257595105805   -0.70011062678382    1.83179035419659
C         1.96591456422573   -1.42684624157711    2.59295927149647
C         1.58522052098417   -2.59971667949053    1.83101081524580
C         3.18846701685168    1.42596070625982    0.60183780297388
C         2.34581591952676    2.60047089225507    0.59605915354225
C         1.58352567024507    2.60356392322328    1.83304314770190
C         1.96494925584822    1.42464022281883    2.59280664982345
C         2.96272456585595    0.70036961803098    1.83184078989596
C        -0.37168898406401    3.47239820877017    0.60290187346213
C        -1.75001880637722    3.03299374319251    0.60134809303770
C        -1.98368142046701    2.30465179063458    1.83030130780199
C        -0.75381315515902    2.30951203976600    2.58945986411984
C         0.24514672551941    3.03418759476384    1.83197972919252
C        -3.42282032871555    0.72501844751778    0.59727336447164
C        -3.42444425420496   -0.72530871910436    0.59740096599478
C        -2.81082293111342   -1.16669152060863    1.82794076531958
C        -2.43026992786318   -0.00041354474622    2.58822174948583
C        -2.80859406748477    1.17509827200975    1.82920891547738
C        -1.74518102239598   -3.03137323173986    0.58909585254606
C        -0.37466615435916   -3.48106946698133    0.59547651215998
C         0.24868933876640   -3.03811010459086    1.83286826022174
C        -0.74914647725575   -2.30617126283630    2.59298709620758
C        -1.98987699500968   -2.31288515365734    1.83390908506438
C        -0.24661768526715   -3.03437604009358   -1.83439634078036
C         0.75010726038376   -2.30429468947842   -2.59373068102100
C         1.98279359542114   -2.30936816214854   -1.83505544481810
C         1.74470007271656   -3.02497789128591   -0.60050968960877
C         0.36036585524655   -3.47790277129230   -0.59489859890064
C         2.80950640556498   -1.17313375493216   -1.83499344839484
C         2.42469074592885    0.00055398166720   -2.59336528028377
C         2.80928338904313    1.17066267769382   -1.83380183436079
C         3.41200435619947    0.72798296473624   -0.60026294255109
C         3.40926842877054   -0.72543140660475   -0.60003333370832
C         1.98698038131681    2.31091553690379   -1.83143503623939
C         0.75147149771964    2.30970906543788   -2.59754965851210
C        -0.24881016013396    3.03528170274399   -1.82964912075688
C         0.36702012901456    3.47636634923953   -0.60006933246713
C         1.75148452917133    3.02171581502865   -0.59591381683597
C        -1.57820568395052    2.59652177942134   -1.83277873286154
C        -1.96077798373806    1.42521475011634   -2.59808614919172
C        -2.96556342284312    0.70181758647585   -1.83260414539410
C        -3.19973162042898    1.42460150959152   -0.59081003780187
C        -2.34572458062014    2.59717017957923   -0.59116629111662
C        -2.96437970900321   -0.70575621446987   -1.82675823409756
C        -1.96337191081510   -1.42108082962231   -2.59433075911796
C        -1.57903283195683   -2.60246457022267   -1.82684797291565
C        -2.34668607376599   -2.60039094314938   -0.59009625068708
C        -3.19631542361046   -1.42515835898748   -0.59508764480162
C        -0.99382905627821   -0.72197156738452   -3.33259670433562
C        -0.99504970958645    0.72348234635565   -3.32755447598382
C         0.37934763435325    1.16547870455882   -3.33185857497466
C         1.23365888615949    0.00069486657785   -3.32928736155448
C         0.38226167359580   -1.17439165869064   -3.32997072614451
C        -1.79405458684580   -0.00034928877680    4.75503115119303
F        -0.98685734057717   -0.00205843745054    5.71891558506623
F        -2.58319765717880   -0.98402706985199    5.05232594015432
F        -2.58409459123225    0.98470872308677    5.05221076666429
C        -0.55489539766992   -1.70486143547585    4.75677208558317
F        -0.30843496245133   -0.93950269841041    5.71693745896187
F        -1.73013238076141   -2.14987859201949    5.05612580742167
F         0.13630421812518   -2.75642158365151    5.05635237423496
C         1.44803500505943   -1.05303757702835    4.75576736308391
F         0.80175069286837   -0.58264932700542    5.71726145501127
F         1.51243383760631   -2.31593284563522    5.05266608349450
F         2.67137017009220   -0.72250807973295    5.05288487904739
C         1.44825618072641    1.05374346893733    4.75722762166888
F         0.80065759364080    0.58289419732509    5.71690975814031
F         2.67061390210077    0.72224935291057    5.05254757351960
F         1.51065253294131    2.31065643797396    5.05647148789412
C        -0.55439391287254    1.70467866283025    4.75538369989789
F        -0.30520244921533    0.94075760286399    5.71826687981366
F        -1.73531855559905    2.15377704579923    5.05232902636148
F         0.13791852079777    2.76176973013564    5.05258095281918
C         3.33977900029778   -3.68753758151878    0.81455986697434
F         4.04583936648088   -3.59162746145241    2.04547379375122
F         4.26020390064612   -3.93407860612616   -0.01840032152800
F         2.80832957332626   -4.93216238896088    1.09223891245298
C         4.53982602057381   -2.03912422027628    0.82459188164428
F         4.66216263457181   -2.73193524814163    2.03201168260807
F         5.06256030087511   -2.83744062480826   -0.02958261885154
F         5.54951965464732   -1.16162237424065    1.14224385450519
C         4.56274301125652    2.04650974070052    0.87650360672169
F         4.63726914221118    2.76058675668679    1.95907895407037
F         4.97369223055785    2.93040701171047   -0.05492003760661
F         5.53176534059047    1.17607637888401    1.13621571524580
C         2.28231496981079    3.72673680679531    2.62972279177469
F         3.55980864853072    3.54024307395055    2.78000061685988
F         2.14726995693842    4.91862139795792    2.05098341946452
F         1.79629819036011    3.85461625741148    3.85998543341848
C        -0.54365034639704    4.96919215722746    0.87334343398011
F        -1.22684603374360    5.23675277039305    1.98580997532977
F        -1.25068367780308    5.63360005729814   -0.04903697878740
F         0.62127843135040    5.63579703816173    1.08570547802484
C         0.34113571892780   -4.35714144666170    2.62861114724911
F        -0.79227950339427   -4.97199675605635    2.75180157255440
F         1.15549276634062   -5.24160880742885    2.05088306696020
F         0.81266231516555   -4.17434666670286    3.86001971973180
C        -2.84215523024982   -3.32351412747789    2.62659823427926
F        -2.28098262906048   -4.48861278714371    2.75183324110755
F        -4.01644234824260   -3.55800621867345    2.04215612475008
F        -3.11015511867950   -2.89966851531257    3.85962631211177
C         2.47428869905740   -4.31809792488956   -0.80737932187326
F         2.16259128069659   -4.95817952766368   -2.04438907862464
F         3.80331512421654   -4.20672091149805   -1.15022539043304
F         2.42363783628607   -5.24994229228667    0.06162681965237
C         0.52530870178581   -4.98755192435096   -0.84512078302902
F         1.15360253864468   -5.26774095245330   -2.00865350809640
F        -0.63408870122890   -5.62064128645039   -1.00267503849204
F         1.06839020550022   -5.66071061938552    0.12309191737100
C         4.86806560265299    1.01918168607215   -0.82416505421494
F         5.38117419990729    0.52748928615591   -2.04165726950555
F         5.17025497091206    2.32858310298900   -1.10074521924121
F         5.76473110856468    0.67967990437603    0.02203952788732
C         4.86554090763438   -1.01625266672850   -0.82703409882774
F         5.37803903827963   -0.52940456846944   -2.03306689002792
F         5.17329202252926   -2.32470680048779   -1.13991917941651
F         5.76986514664758   -0.67629915772293    0.03120004836559
C         1.07766050466168    3.31523532310998   -3.72015580545661
F         1.45735371410325    4.48145875397210   -3.28527061910816
F         2.06708156340953    2.89727610017213   -4.50547935664057
F         0.03671163999004    3.55819632311283   -4.50825330016422
C         0.54513599402116    4.94555195029102   -0.80801583902843
F         1.16506159823602    5.29846654107428   -2.00808860715117
F        -0.62210847841534    5.64868795570617   -1.10979658216718
F         1.12191052897500    5.66821636783572    0.06173303619520