62
 energy: -137.503501745588 gnorm: 0.199073416288 xtb: 6.4.1 (a3dbbd7)
C        -1.23626340000000    0.00000000000000    3.32997640000000
C        -0.38202640000000   -1.17575640000000    3.32997640000000
C         1.00015810000000   -0.72665740000000    3.32997640000000
C         1.00015810000000    0.72665740000000    3.32997640000000
C        -0.38202640000000    1.17575640000000    3.32997640000000
C         2.34433560000000   -2.60145750000000    0.59464210000000
C         3.19857260000000   -1.42570110000000    0.59464210000000
C         2.96246730000000   -0.69904370000000    1.83090550000000
C         1.96230920000000   -1.42570110000000    2.59495830000000
C         1.58028280000000   -2.60145750000000    1.83090550000000
C         3.19857260000000    1.42570110000000    0.59464210000000
C         2.34433560000000    2.60145750000000    0.59464210000000
C         1.58028280000000    2.60145750000000    1.83090550000000
C         1.96230920000000    1.42570110000000    2.59495830000000
C         2.96246730000000    0.69904370000000    1.83090550000000
C        -0.36750900000000    3.48258920000000    0.59464210000000
C        -1.74969350000000    3.03349030000000    0.59464210000000
C        -1.98579880000000    2.30683290000000    1.83090550000000
C        -0.74953540000000    2.30683290000000    2.59495830000000
C         0.25062270000000    3.03349030000000    1.83090550000000
C        -3.42570570000000    0.72665740000000    0.59464210000000
C        -3.42570570000000   -0.72665740000000    0.59464210000000
C        -2.80757400000000   -1.17575640000000    1.83090550000000
C        -2.42554760000000    0.00000000000000    2.59495830000000
C        -2.80757400000000    1.17575640000000    1.83090550000000
C        -1.74969350000000   -3.03349030000000    0.59464210000000
C        -0.36750900000000   -3.48258920000000    0.59464210000000
C         0.25062270000000   -3.03349030000000    1.83090550000000
C        -0.74953540000000   -2.30683290000000    2.59495830000000
C        -1.98579880000000   -2.30683290000000    1.83090550000000
C        -0.25062270000000   -3.03349030000000   -1.83090550000000
C         0.74953540000000   -2.30683290000000   -2.59495830000000
C         1.98579880000000   -2.30683290000000   -1.83090550000000
C         1.74969350000000   -3.03349030000000   -0.59464210000000
C         0.36750900000000   -3.48258920000000   -0.59464210000000
C         2.80757400000000   -1.17575640000000   -1.83090550000000
C         2.42554760000000    0.00000000000000   -2.59495830000000
C         2.80757400000000    1.17575640000000   -1.83090550000000
C         3.42570570000000    0.72665740000000   -0.59464210000000
C         3.42570570000000   -0.72665740000000   -0.59464210000000
C         1.98579880000000    2.30683290000000   -1.83090550000000
C         0.74953540000000    2.30683290000000   -2.59495830000000
C        -0.25062270000000    3.03349030000000   -1.83090550000000
C         0.36750900000000    3.48258920000000   -0.59464210000000
C         1.74969350000000    3.03349030000000   -0.59464210000000
C        -1.58028280000000    2.60145750000000   -1.83090550000000
C        -1.96230920000000    1.42570110000000   -2.59495830000000
C        -2.96246730000000    0.69904370000000   -1.83090550000000
C        -3.19857260000000    1.42570110000000   -0.59464210000000
C        -2.34433560000000    2.60145750000000   -0.59464210000000
C        -2.96246730000000   -0.69904370000000   -1.83090550000000
C        -1.96230920000000   -1.42570110000000   -2.59495830000000
C        -1.58028280000000   -2.60145750000000   -1.83090550000000
C        -2.34433560000000   -2.60145750000000   -0.59464210000000
C        -3.19857260000000   -1.42570110000000   -0.59464210000000
C        -1.00015810000000   -0.72665740000000   -3.32997640000000
C        -1.00015810000000    0.72665740000000   -3.32997640000000
C         0.38202640000000    1.17575640000000   -3.32997640000000
C         1.23626340000000    0.00000000000000   -3.32997640000000
C         0.38202640000000   -1.17575640000000   -3.32997640000000
Cl       -1.84886636902500    0.00000000000000    5.03315507598844
Cl       -2.98448910038358    3.49508763763196    2.76190945402756
62
 energy: -137.549838573250 gnorm: 0.116647858036 xtb: 6.4.1 (a3dbbd7)
C        -1.24728128084880    0.00411125686223    3.35689416474765
C        -0.36400294789127   -1.18070095397603    3.32882416459214
C         1.00091520377883   -0.72411610846991    3.31353565234395
C         1.00263701143356    0.72589288042286    3.30976617104706
C        -0.35944081997434    1.18970690625084    3.32643639398504
C         2.33407557481409   -2.59040502041826    0.58992096729716
C         3.18551687477812   -1.42045179136545    0.58925916062144
C         2.95155973947573   -0.69771227012384    1.81882292772510
C         1.95915202842096   -1.42345267177491    2.58101832990729
C         1.57812326976340   -2.59088249581485    1.82205877088444
C         3.18827003140248    1.41721353884624    0.58874759501617
C         2.33980782938020    2.58784485094081    0.58830375838108
C         1.58539086974757    2.59094651319863    1.82075763503024
C         1.96312489855596    1.42305491368811    2.58018651763704
C         2.95284760119575    0.69425674153358    1.81870466890394
C        -0.35906408226420    3.46295482396061    0.58811106763356
C        -1.72349844602481    3.00785214645276    0.57474438217220
C        -2.02143738803698    2.34603063572044    1.86420232836119
C        -0.72111262106665    2.30583823722750    2.58442548172658
C         0.26088119664777    3.02251300151420    1.82112731386302
C        -3.41762853991790    0.70707837520713    0.58257591214850
C        -3.41993023635389   -0.73778298581582    0.57620217965836
C        -2.80293002734485   -1.18199193707868    1.80247666366157
C        -2.42422682237560   -0.00212723970478    2.53752053468237
C        -2.80402974742116    1.13632031018160    1.82288298113767
C        -1.74085421250995   -3.01876160443192    0.58936107748849
C        -0.36470739126868   -3.46307995096401    0.59207934880834
C         0.25262773338495   -3.02061508383982    1.82428833944594
C        -0.73565711677338   -2.29175525304439    2.58257868413076
C        -1.97686492254022   -2.29743445549656    1.81645199197273
C        -0.25004285415237   -3.01898841817566   -1.82392488228748
C         0.74539378578304   -2.29515677905876   -2.58427933823070
C         1.97508607000590   -2.29594839932605   -1.82403741390900
C         1.74077458369861   -3.01880339853802   -0.59371116773408
C         0.36498476339699   -3.46490164451542   -0.59255491362009
C         2.79421791402926   -1.17020618099707   -1.82454690141989
C         2.41446954101255   -0.00032283007157   -2.58418549539620
C         2.79642173029701    1.16894629310445   -1.82466418100482
C         3.41201267651187    0.72132553784230   -0.59510139894424
C         3.41028976016775   -0.72455655185037   -0.59486813943810
C         1.97986903679630    2.29556603579650   -1.82466684474365
C         0.74783362214052    2.29610814299338   -2.58370246638992
C        -0.24549399744268    3.02013597138589   -1.82466671601620
C         0.37150294580729    3.46219173977961   -0.59713309401269
C         1.74699957323873    3.01758278334704   -0.59522563993472
C        -1.57035792639045    2.58686747071055   -1.82459581534659
C        -1.95374644016228    1.41780722650617   -2.58220424931987
C        -2.95056522148298    0.69367176798565   -1.82322507162759
C        -3.18638178051030    1.41175298618114   -0.59327513939318
C        -2.32286762747119    2.58443705208055   -0.59582185429427
C        -2.95025299329775   -0.69966582338759   -1.82764454613048
C        -1.95335473988587   -1.41987329972099   -2.58681197941909
C        -1.57308762909411   -2.59051913941205   -1.82627576775673
C        -2.33512499369491   -2.59336252413366   -0.59783372808406
C        -3.19146202609633   -1.42974100473587   -0.60483169352921
C        -0.99605449333113   -0.72246596149786   -3.31578520495531
C        -0.99616466924776    0.72379377917055   -3.31432998447921
C         0.37992095994123    1.17070902502538   -3.31441278339839
C         1.22932297219611    0.00068551494167   -3.31489164771737
C         0.37981154845560   -1.16911400567512   -3.31551038096583
Cl       -1.88107583196314   -0.00728853565573    5.09888087974961
Cl       -3.03849698883075    3.56407549784459    2.80863692475437
62
 energy: -137.571010857971 gnorm: 0.075207841306 xtb: 6.4.1 (a3dbbd7)
C        -1.28338250210242    0.00316455357771    3.47994383420841
C        -0.34725010941056   -1.17971125395422    3.28227428860902
C         0.99689808184767   -0.72421265643742    3.28067540777387
C         1.00268349117610    0.71867302238409    3.27930912309800
C        -0.33686920557016    1.17822975687052    3.27238985291011
C         2.32761771041015   -2.57918917660883    0.58591376103459
C         3.17615465010072   -1.41413319111511    0.58467765485620
C         2.94518152246886   -0.69561439163244    1.80706185330059
C         1.95899101632554   -1.42348862160029    2.56302794140111
C         1.57796913629087   -2.58177706102753    1.81171848349681
C         3.17877026419039    1.41129760101951    0.58287406797373
C         2.33468982586778    2.57647812865001    0.58186355649109
C         1.58858881450494    2.57695636315297    1.81057644478956
C         1.96509474981752    1.41961628435621    2.56398291486687
C         2.94698647720723    0.69123306391257    1.80684083480243
C        -0.35602567383576    3.43557196089697    0.57587411264233
C        -1.70234502354492    2.99142739571158    0.55530233383984
C        -2.07666378518407    2.42890314639413    1.92106124709978
C        -0.69181663356140    2.27353438339786    2.55181610164157
C         0.26352629474203    2.99601676758697    1.80346533706202
C        -3.39920999169966    0.69132512253388    0.56546953471781
C        -3.41193455479296   -0.74367717084469    0.55980481366024
C        -2.78843567934960   -1.17817625734085    1.77616011699821
C        -2.41557019658633    0.00985002671423    2.49596655227893
C        -2.77198217896643    1.09639497996335    1.80122333818121
C        -1.73423052505724   -3.00704757971286    0.58222745773236
C        -0.36319921713989   -3.44863640887761    0.58637138067035
C         0.25340382869475   -3.00950878018390    1.81170337749191
C        -0.72399072276512   -2.27731047537085    2.55389741790447
C        -1.97326478476740   -2.28751416618108    1.79725593708817
C        -0.24709991689135   -3.00679458629526   -1.81705409951508
C         0.74466326255569   -2.28586094323122   -2.57260050082459
C         1.96729306560078   -2.28624215660360   -1.81578410301876
C         1.73485193049747   -3.00508253594895   -0.59182936806764
C         0.36490239879938   -3.44972846876564   -0.59122484573857
C         2.78407834563507   -1.16455646299130   -1.81749365761330
C         2.40620513492014   -0.00138648060379   -2.57328162104078
C         2.78643596131639    1.16239449926923   -1.81863556448037
C         3.40011493782125    0.71746284674045   -0.59603917738842
C         3.39816040661210   -0.72097739630667   -0.59501590348200
C         1.97448392589204    2.28575603198454   -1.81957204390266
C         0.74718304758978    2.28589101815293   -2.57544658383787
C        -0.23911341643041    3.00938096143679   -1.82191171173155
C         0.37419819341369    3.44911331378553   -0.60532629758048
C         1.74349379706944    3.00488257133645   -0.59773795631758
C        -1.56115075692665    2.57488378807446   -1.81909814196732
C        -1.94274049404886    1.40933606338592   -2.57077314266411
C        -2.93605665724355    0.68647289608263   -1.81737714725998
C        -3.17361341438876    1.39573234643851   -0.59537861908528
C        -2.30104142907602    2.56856118347087   -0.59595083267045
C        -2.93965043156232   -0.70392136586681   -1.82774025378801
C        -1.94361363699161   -1.41722151245954   -2.58023997784043
C        -1.56479877818087   -2.58278560771349   -1.82245124624627
C        -2.32774663399993   -2.58725542913196   -0.60357756357983
C        -3.18366343661876   -1.43369622284087   -0.61546432133802
C        -0.98965378505985   -0.72117257567352   -3.30260408544653
C        -0.98961805842515    0.71855749345108   -3.30014118987540
C         0.38010185372007    1.16380960808732   -3.30089667022347
C         1.22457618947021   -0.00059391305128   -3.30064693342175
C         0.38045453401816   -1.16472575596897   -3.30112306340562
Cl       -1.93202265209137   -0.00592345989033    5.24787264020977
Cl       -3.11335403571539    3.65210252304357    2.87887943453680
62
 energy: -137.575667698701 gnorm: 0.033471310259 xtb: 6.4.1 (a3dbbd7)
C        -1.28598997670862    0.00522136231358    3.49489914208635
C        -0.35866133576193   -1.17608541148594    3.30378937751222
C         0.99057900994485   -0.72217069932355    3.28260749713268
C         0.99100443472280    0.72049909869036    3.27831317106719
C        -0.35753115436817    1.18464635304087    3.30241728329768
C         2.33214709449411   -2.58224053659358    0.58136822276479
C         3.18151462447136   -1.41668182773075    0.57967015695728
C         2.94808858601832   -0.69717831442417    1.80343581265632
C         1.95555374969784   -1.41955909458163    2.55985729772472
C         1.57873022057777   -2.57947466394209    1.80738182309180
C         3.18393279713746    1.40935419786433    0.57793310052122
C         2.33764737936088    2.57465261654311    0.57855632414470
C         1.58286655240129    2.57171593795124    1.80537526514078
C         1.95856159730847    1.41422627181194    2.55833599472386
C         2.94937958716342    0.68980112515923    1.80336504199992
C        -0.36031011330965    3.43318067905562    0.57976671849404
C        -1.71669654779946    3.00377333220549    0.57199819318689
C        -2.08242874202548    2.43844664575112    1.93065852385154
C        -0.71578764999711    2.28889702601154    2.57699161359343
C         0.25532496713675    2.98962028709480    1.80684928902235
C        -3.39403179212713    0.69839636083399    0.57271682919784
C        -3.40407173552013   -0.73925021445118    0.56377598396924
C        -2.78261962087489   -1.17295419384765    1.78424705130886
C        -2.41198469393380    0.01298999872664    2.52272715401256
C        -2.77751245072463    1.12062689701736    1.81545113707011
C        -1.73312598510476   -3.00723996600002    0.57882422651904
C        -0.36121189362990   -3.44685567440143    0.58232454041508
C         0.25259808936645   -3.00044840267058    1.80775808752450
C        -0.72734527385639   -2.27402665545048    2.56194362963304
C        -1.97050060946833   -2.28538836015431    1.79710086813090
C        -0.24464008992488   -3.01102973389309   -1.82429744310893
C         0.74808971414718   -2.28977506096456   -2.58022257243863
C         1.97194557232994   -2.28981034438323   -1.82289617220762
C         1.73912013832525   -3.00853624033034   -0.59755215645313
C         0.36765346267844   -3.45171302167695   -0.59651101610458
C         2.79033736132114   -1.16819751856669   -1.82532323228588
C         2.41216728318134   -0.00394666481858   -2.58177585760565
C         2.79370169373843    1.16081448102937   -1.82647719245195
C         3.40791865426664    0.71548135517306   -0.60269121130903
C         3.40554799325170   -0.72422883160334   -0.60173978274691
C         1.97973833687304    2.28437889430388   -1.82535201040434
C         0.75114132795330    2.28474301110482   -2.58102924609532
C        -0.23649957058299    3.00446264614201   -1.82183977754552
C         0.37441289278916    3.44332835625257   -0.60253499427039
C         1.74686883707215    3.00295831598812   -0.60122725284729
C        -1.55765918092900    2.56830538738391   -1.81351012064823
C        -1.94005853706365    1.40598234629069   -2.57212271772390
C        -2.93511489392448    0.68403258008385   -1.81973763961465
C        -3.17072294390548    1.39549580095272   -0.59448971348197
C        -2.30434724647297    2.57066314081499   -0.58911003963941
C        -2.94028720477009   -0.70710483071833   -1.83340354320005
C        -1.94358215884412   -1.42135031135264   -2.58822444347300
C        -1.56432937920980   -2.58793966624201   -1.82986608720801
C        -2.32755569168625   -2.59121671761627   -0.60873565916781
C        -3.18083299115468   -1.43380719203691   -0.61653021968166
C        -0.98772942375874   -0.72447703845754   -3.31039457542972
C        -0.98712422194634    0.71624009463679   -3.30522720512604
C         0.38364555834148    1.16214983966453   -3.30750364576813
C         1.22896445460122   -0.00300140774301   -3.30845165048837
C         0.38357117621107   -1.16778590621923   -3.30927432622598
Cl       -1.93714798387467   -0.01061372346997    5.24665722310589
Cl       -3.11866752303331    3.65409142288946    2.87601945491130
62
 energy: -137.577196144603 gnorm: 0.020396536895 xtb: 6.4.1 (a3dbbd7)
C        -1.29159053943712    0.00582702530103    3.52111666292144
C        -0.36652514913727   -1.17319533708189    3.31108816802775
C         0.98448494350573   -0.72096433210003    3.27867342046429
C         0.98258979101272    0.72073892904491    3.27318477415358
C        -0.36941262465983    1.18475652065876    3.31119367980493
C         2.33533124494217   -2.58422865225429    0.57886922137532
C         3.18540764175417   -1.41860143148810    0.57704748133764
C         2.94908137539401   -0.69826673134029    1.80069935107402
C         1.95284022552824   -1.41710338840050    2.55648552841889
C         1.57922316271092   -2.57816445604544    1.80461847188176
C         3.18698588273080    1.40887396504294    0.57539487391842
C         2.33818772629416    2.57311324707685    0.57616860558338
C         1.57805562108372    2.56674320938769    1.80090548898489
C         1.95362658092141    1.40970138448012    2.55314948553585
C         2.95007630485268    0.68864841405950    1.80065788954293
C        -0.36406560939395    3.42772237265795    0.58090460982702
C        -1.72667853985692    3.01193467083864    0.58222252220627
C        -2.09000093619407    2.45300872074914    1.94153517057923
C        -0.72914046960616    2.29215164966167    2.58742130331701
C         0.24939048201532    2.98064437981841    1.80660133824617
C        -3.38438551230301    0.70240430540444    0.57645543582434
C        -3.39492180908749   -0.73482310520437    0.56615227520249
C        -2.77393829836260   -1.16605429398666    1.78761334724272
C        -2.40181863711502    0.02034372924751    2.53428756471687
C        -2.76747104426434    1.13114838535412    1.82032119484063
C        -1.73311285096862   -3.00736795055116    0.57760078772531
C        -0.36058092303136   -3.44505592400198    0.58051827916919
C         0.25195624376672   -2.99401328917217    1.80506966019890
C        -0.72913736190563   -2.27130478550366    2.56437378613520
C        -1.96972250122226   -2.28433871308552    1.79666663445348
C        -0.24352556400099   -3.01348937939045   -1.82765055643044
C         0.74992902120681   -2.29221939180673   -2.58373251074561
C         1.97457312890775   -2.29175018786761   -1.82627444200287
C         1.74145233449708   -3.01035429256583   -0.60039354875978
C         0.36901429567777   -3.45281485323599   -0.59881207892889
C         2.79420825889856   -1.16998640710230   -1.82912005604421
C         2.41579604193103   -0.00513418688425   -2.58602864087185
C         2.79814191590358    1.16051983766535   -1.83080858087985
C         3.41299630617245    0.71498135348408   -0.60619778161881
C         3.41052672740165   -0.72578403112436   -0.60514360121373
C         1.98273744909327    2.28436015060429   -1.82918363456418
C         0.75348594077183    2.28439187304215   -2.58463830226497
C        -0.23484188430998    3.00196618033207   -1.82187212726389
C         0.37386747028697    3.43986895260962   -0.60121359897754
C         1.74757166245310    3.00139977849564   -0.60354161366219
C        -1.55516046804808    2.56489334171205   -1.80897929520921
C        -1.93797076209816    1.40426312869582   -2.57144418769728
C        -2.93445319064386    0.68306633445110   -1.82073289446541
C        -3.16885469903171    1.39538759652470   -0.59467525351609
C        -2.30496253891871    2.57137871301388   -0.58460940223839
C        -2.94069535903765   -0.70866879785288   -1.83595615940317
C        -1.94410436421618   -1.42388622257822   -2.59233532047502
C        -1.56457890737312   -2.59112541380190   -1.83349748768944
C        -2.32767758967909   -2.59294412285643   -0.61095447968753
C        -3.17836323147469   -1.43308848362780   -0.61640631262632
C        -0.98686130626725   -0.72642684373272   -3.31413200294808
C        -0.98575691986328    0.71498052215004   -3.30743058513075
C         0.38567463116890    1.16096344670499   -3.31083695537420
C         1.23138089822364   -0.00449722066502   -3.31234727543364
C         0.38515276313612   -1.16959323847182   -3.31327590196852
Cl       -1.94827835584591   -0.01050847272903    5.25191768695076
Cl       -3.12851359429755    3.65065945587191    2.87837441844717
62
 energy: -137.577856046671 gnorm: 0.010514064023 xtb: 6.4.1 (a3dbbd7)
C        -1.29528698813053    0.00436046881850    3.54169548139458
C        -0.37008017806276   -1.17216791498870    3.31024037893898
C         0.98146716247423   -0.72112120886473    3.27513105381643
C         0.97907027034320    0.72007854181159    3.26922959525784
C        -0.37409890132723    1.18101237416687    3.30743381720433
C         2.33700237030312   -2.58554652537103    0.57863067144498
C         3.18728661125724   -1.41967638482727    0.57695204203554
C         2.94943989643342   -0.69869414671122    1.80029577218997
C         1.95206113043370   -1.41655174735158    2.55541654918521
C         1.57961426392189   -2.57866561694921    1.80427921974362
C         3.18826768942556    1.40961227117824    0.57528024483000
C         2.33806939353318    2.57330432229189    0.57541786136377
C         1.57556905899173    2.56478183043921    1.79877778413055
C         1.95149901113290    1.40743164844776    2.55091431794274
C         2.95048304288775    0.68840406541493    1.80016582942178
C        -0.36598829894444    3.42497545222802    0.58013796867270
C        -1.73162078337593    3.01698368421394    0.58582419153801
C        -2.09463023971483    2.46352495679661    1.94707906993192
C        -0.73430138343392    2.28899683008847    2.58702020322400
C         0.24668680448936    2.97489976241187    1.80458335096006
C        -3.37617872836612    0.70456219401073    0.57721874719714
C        -3.38861682157622   -0.73165993732688    0.56822435891009
C        -2.76754083595350   -1.16218743210920    1.78922907691015
C        -2.39099758951151    0.02541962144153    2.53704525398244
C        -2.75385653974933    1.13450174685748    1.81862936564806
C        -1.73416554665331   -3.00884231371637    0.57826982949062
C        -0.36099959525662   -3.44534700544462    0.58081166457315
C         0.25186085727696   -2.99241991722703    1.80458992989588
C        -0.72979865075647   -2.27162630664974    2.56487093054435
C        -1.97058998872754   -2.28601879544264    1.79760813101621
C        -0.24375482137049   -3.01454648360158   -1.82784348316549
C         0.75002482035659   -2.29319349086883   -2.58406042493540
C         1.97519494309948   -2.29246246124199   -1.82657450918393
C         1.74199897363138   -3.01122928463233   -0.60055957858651
C         0.36905701319718   -3.45399579476187   -0.59870899624204
C         2.79540984318240   -1.17043069129556   -1.82950918761697
C         2.41679932229201   -0.00519295642363   -2.58673108754084
C         2.79947597324423    1.16107628148482   -1.83171801695289
C         3.41494383568702    0.71547260445679   -0.60665356104236
C         3.41246715217639   -0.72603779686840   -0.60542721693143
C         1.98354684132742    2.28535834672778   -1.83063629843512
C         0.75421439829734    2.28520839633380   -2.58640140124664
C        -0.23450246648944    3.00278252668921   -1.82273150628937
C         0.37347373867265    3.44057084769098   -0.60129757703522
C         1.74721752332613    3.00165830878268   -0.60428080021632
C        -1.55462294651066    2.56579760476522   -1.80770598524722
C        -1.93771197186268    1.40481263635876   -2.57109199736347
C        -2.93504376384003    0.68381080661810   -1.82147273750030
C        -3.16879453214240    1.39684804914972   -0.59589163711498
C        -2.30483338560288    2.57263940926576   -0.58361452000364
C        -2.94129860246465   -0.70846508473389   -1.83581887551325
C        -1.94510324917785   -1.42460999617630   -2.59289438409123
C        -1.56545734041031   -2.59237263576878   -1.83381708126771
C        -2.32827324082361   -2.59338467245718   -0.61050401671886
C        -3.17727695252303   -1.43207251806693   -0.61503742460860
C        -0.98726817319226   -0.72682568559430   -3.31461259669869
C        -0.98595890396110    0.71514696608750   -3.30801415729429
C         0.38603397578306    1.16085555838250   -3.31162102411334
C         1.23181292979088   -0.00485763156819   -3.31309566831006
C         0.38507395225528   -1.17014894934415   -3.31390139995988
Cl       -1.95560753300342   -0.00905364855696    5.24880440392110
Cl       -3.13421931571720    3.63960455916178    2.87748458592589
62
 energy: -137.577998964250 gnorm: 0.004580948339 xtb: 6.4.1 (a3dbbd7)
C        -1.29601226646973    0.00382255566203    3.54650226315147
C        -0.36968638747367   -1.17187964286267    3.30665076870460
C         0.98171656641138   -0.72150013582677    3.27445720529737
C         0.97984410224084    0.71979621555562    3.26866323691211
C        -0.37303194539245    1.17900162022227    3.30234915574827
C         2.33682150048975   -2.58566191079083    0.57936689317159
C         3.18699230075252   -1.41964203550647    0.57773267487259
C         2.94941478388850   -0.69854682961709    1.80104165010565
C         1.95245013213336   -1.41694954239752    2.55593876380944
C         1.57952896752745   -2.57937690918882    1.80502614286384
C         3.18804155471727    1.41014325782400    0.57590514804361
C         2.33796950982315    2.57401235850630    0.57575763346126
C         1.57582688506636    2.56542986430297    1.79907664725456
C         1.95202911677936    1.40771964335285    2.55135967687874
C         2.95064710392474    0.68873582498936    1.80080284452846
C        -0.36586911154176    3.42557011002119    0.57940122858680
C        -1.73109886334986    3.01749648644473    0.58478223859150
C        -2.09508356301406    2.46490597663412    1.94758437959067
C        -0.73293801388307    2.28612249462858    2.58365626438386
C         0.24711555170741    2.97448844023489    1.80343308216823
C        -3.37375701140630    0.70435897575343    0.57660776515911
C        -3.38826226024089   -0.73130087705508    0.56884946888852
C        -2.76660920738721   -1.16184854848031    1.78919868121613
C        -2.38759104168664    0.02627297399230    2.53488370843210
C        -2.74808397304268    1.13275564317846    1.81579369907524
C        -1.73500130245712   -3.00971462811243    0.57925086779983
C        -0.36161741067173   -3.44629616270976    0.58166809135422
C         0.25187332615960   -2.99357097768067    1.80527997329610
C        -0.72974440270411   -2.27268581180382    2.56471846860994
C        -1.97148948612210   -2.28708477311749    1.79850780904368
C        -0.24428340843627   -3.01441187727120   -1.82681693751894
C         0.74944995844950   -2.29303415398669   -2.58313736037630
C         1.97467758257019   -2.29238249334297   -1.82565289551205
C         1.74148921737093   -3.01125242013170   -0.59966165850056
C         0.36854095550820   -3.45439757070204   -0.59781573232575
C         2.79480994157441   -1.17026913255449   -1.82856036787238
C         2.41616066983582   -0.00498600563753   -2.58581479934821
C         2.79868862644436    1.16133251887552   -1.83085340865505
C         3.41430967998332    0.71577853151495   -0.60586439050551
C         3.41186928243020   -0.72577640438949   -0.60454126352469
C         1.98296826675983    2.28578918573549   -1.83014328993487
C         0.75383176540766    2.28579299577811   -2.58622510096333
C        -0.23488599330483    3.00423717535639   -1.82329561315122
C         0.37343760237823    3.44248206384842   -0.60179304311171
C         1.74682432877752    3.00243242103523   -0.60392463656554
C        -1.55526126290216    2.56779262047597   -1.80848282017053
C        -1.93832089740961    1.40587292185831   -2.57126054022685
C        -2.93557513425032    0.68473522014404   -1.82148785555978
C        -3.16907354332768    1.39793366415421   -0.59621782979894
C        -2.30452196883255    2.57349790800701   -0.58429953582472
C        -2.94141884006027   -0.70768476299403   -1.83472043130413
C        -1.94542429830709   -1.42407664577955   -2.59168476545334
C        -1.56584877328102   -2.59198784866504   -1.83266488618944
C        -2.32862345634907   -2.59302713527689   -0.60940328328579
C        -3.17751203640547   -1.43164526597607   -0.61415354730542
C        -0.98778511683808   -0.72640395448969   -3.31363052028502
C        -0.98654019627006    0.71568747254507   -3.30761444810561
C         0.38560605800826    1.16117214990116   -3.31100755987638
C         1.23127386968081   -0.00465464925330   -3.31231136764197
C         0.38450545235694   -1.16997242822055   -3.31295634474245
Cl       -1.95625050476920   -0.00784203642671    5.24136144008495
Cl       -3.13486845097941    3.62978191734666    2.87545289256802
62
 energy: -137.578027881944 gnorm: 0.001655416871 xtb: 6.4.1 (a3dbbd7)
C        -1.29593698986232    0.00408019200531    3.54587293379547
C        -0.36870636506826   -1.17176700096872    3.30482809944046
C         0.98249890747102   -0.72161067268380    3.27484823284159
C         0.98104949865714    0.71985523781190    3.26926974303913
C        -0.37145926110435    1.17890133381252    3.30060991746384