63
 energy: -142.081502668737 gnorm: 0.136836796470 xtb: 6.4.1 (a3dbbd7)
C        -1.29585809770389    0.00401118895665    3.54517689253707
C        -0.36796043462932   -1.17243305037605    3.30515820978008
C         0.98298838983527   -0.72191219207564    3.27512267938171
C         0.98156472667820    0.71960753568128    3.26971969810914
C        -0.37066843460465    1.17924059903467    3.30150764336582
C         2.33648296603916   -2.58548060331365    0.57950289353032
C         3.18657767574002   -1.41946403927647    0.57781419519059
C         2.94957050639235   -0.69854930596759    1.80123308070154
C         1.95308396824160   -1.41752165468763    2.55613481575760
C         1.57961582989334   -2.57968580837377    1.80518673242103
C         3.18767024140451    1.40991878522763    0.57593180000620
C         2.33807592116844    2.57402574447607    0.57591940981122
C         1.57683795432701    2.56605672107525    1.79975339071644
C         1.95304946465436    1.40835201077487    2.55205927518980
C         2.95072023087345    0.68875745016373    1.80098024572921
C        -0.36516779407368    3.42666371337356    0.57921714423118
C        -1.72924376763824    3.01648005769000    0.58287705261872
C        -2.09463355992581    2.46231283092052    1.94730853815858
C        -0.73027134402217    2.28553619303067    2.58224921102021
C         0.24829448349984    2.97593693112150    1.80334175266563
C        -3.37466967425340    0.70300551354290    0.57574930054980
C        -3.39003092747716   -0.73268815647906    0.56838248265369
C        -2.76818811332164   -1.16356142379097    1.78871572221350
C        -2.38904763706855    0.02437925876362    2.53264263719760
C        -2.74834472563595    1.12995086275151    1.81420011519069
C        -1.73481952350512   -3.00995345714269    0.57938225060336
C        -0.36149853481650   -3.44686666227317    0.58178847315895
C         0.25217194581416   -2.99475012292755    1.80551621994623
C        -0.72930832442940   -2.27346636839910    2.56467955448571
C        -1.97147545426586   -2.28746259170963    1.79868366133100
C        -0.24419850626392   -3.01431906333444   -1.82647673840836
C         0.74940205407495   -2.29291975825760   -2.58286291053874
C         1.97453700933417   -2.29239152843074   -1.82543977586922
C         1.74139873400736   -3.01127177410490   -0.59946235558356
C         0.36858334367966   -3.45436466613801   -0.59762914044760
C         2.79442417392884   -1.17031401259636   -1.82833550603033
C         2.41574661888024   -0.00512369156855   -2.58546959716668
C         2.79806943075341    1.16104826420258   -1.83045397172065
C         3.41356646771945    0.71553904943849   -0.60565027142670
C         3.41126633561149   -0.72579612454708   -0.60436594395851
C         1.98256115248497    2.28538932455247   -1.82964816243281
C         0.75350030257848    2.28551308199782   -2.58573232036207
C        -0.23508280213456    3.00436687409655   -1.82344140492918
C         0.37359850932028    3.44286488622179   -0.60220138863872
C         1.74684322376492    3.00246743943424   -0.60372642363492
C        -1.55566653231806    2.56818250386052   -1.80941223575869
C        -1.93859434646944    1.40592010794080   -2.57168095880615
C        -2.93551210457882    0.68461262535792   -1.82146846772098
C        -3.16898901542976    1.39767486975662   -0.59605965548237
C        -2.30435127723071    2.57332623923171   -0.58497549467516
C        -2.94114405309208   -0.70773319324488   -1.83440725641731
C        -1.94505174577217   -1.42387954875747   -2.59102123506710
C        -1.56548890447542   -2.59170746585215   -1.83211639425372
C        -2.32839595515909   -2.59312664323360   -0.60918315818311
C        -3.17773883494341   -1.43218193772331   -0.61434027474195
C        -0.98775846759569   -0.72638522820754   -3.31322849837523
C        -0.98659864719709    0.71557045430270   -3.30737103326374
C         0.38544609985482    1.16109326139683   -3.31071431261235
C         1.23106807703669   -0.00470839638716   -3.31198800126459
C         0.38446650889097   -1.17000629330740   -3.31255499443923
Cl       -1.95494402230001   -0.00808767739961    5.23350834621500
Cl       -3.13453400437008    3.62205440029917    2.87428256883422
Cl        2.61803197010527   -4.56195791470314   -0.92037770692257
63
 energy: -142.105645672783 gnorm: 0.058417173518 xtb: 6.4.1 (a3dbbd7)
C        -1.29710815152895    0.00592309537454    3.54692012201483
C        -0.36782518252568   -1.16896917706035    3.30938975655090
C         0.98240437951614   -0.71634165201928    3.28319155934607
C         0.98026186060918    0.72433891358545    3.27424501975501
C        -0.37251602530154    1.18176127735813    3.30351356307414
C         2.35257014669504   -2.58369250443373    0.60021923405395
C         3.17668537652027   -1.41227348514503    0.58593632209919
C         2.94964847065374   -0.69043208404638    1.81237458051192
C         1.95534682157398   -1.40820764090004    2.56713961211322
C         1.57991044105324   -2.56480483445430    1.80665541882215
C         3.18794540581446    1.41361694231746    0.57910355850403
C         2.33811500217503    2.57463338323332    0.57716512329706
C         1.57580146382476    2.56841996352897    1.80125442769494
C         1.95179090218147    1.41310104641451    2.55622637241723
C         2.95105359374653    0.69508078076617    1.80661679955188
C        -0.36581758688081    3.42725965012891    0.57929902433903
C        -1.72925233580163    3.01717096371803    0.58289227046293
C        -2.09538645888847    2.46335878453646    1.94731262135641
C        -0.73144673862430    2.28703244232755    2.58289210379805
C         0.24741833418690    2.97708702928913    1.80385101445952
C        -3.37549665214208    0.70409748398347    0.57597486070779
C        -3.39112713339709   -0.73100825238554    0.56819793062821
C        -2.76828738895163   -1.16204707772100    1.78867550244465
C        -2.38942589143427    0.02551637897624    2.53312363812662
C        -2.74867499798428    1.13078563079076    1.81430108680302
C        -1.74082043824152   -3.00881006114242    0.57882158928618
C        -0.36710987571722   -3.43431623250277    0.57849477974292
C         0.25171560013801   -2.98835492279073    1.80714971188776
C        -0.72846441027617   -2.27065787396933    2.56403333593874
C        -1.97161707823544   -2.28525984250790    1.79814354324758
C        -0.24867085315524   -3.00413811225022   -1.82183247860956
C         0.74598387241020   -2.28194041917804   -2.57955153763039
C         1.96779354602506   -2.27857771394587   -1.83305298367684
C         1.79362345880875   -3.10494857759182   -0.62059401513479
C         0.35455699971277   -3.44609928707567   -0.59853674746723
C         2.78279577789174   -1.16105443841294   -1.82823039440737
C         2.41345225353222    0.00002175417137   -2.59087067521793
C         2.79548138244166    1.16190068455297   -1.83075905821188
C         3.41181767251820    0.71535912458778   -0.60477601481481
C         3.40867412935736   -0.72059129289509   -0.60222382085063
C         1.98089902615124    2.28606529453277   -1.82968307526925
C         0.75199407748454    2.28704287573536   -2.58656234749013
C        -0.23562247577722    3.00513759670484   -1.82376182356315
C         0.37376920744949    3.44303117850785   -0.60202741405383
C         1.74618354105832    3.00350072596938   -0.60364810348720
C        -1.55666927416207    2.56957615517580   -1.80965304535820
C        -1.94033093093198    1.40825553561799   -2.57224361292455
C        -2.93720230168840    0.68685500526558   -1.82167722804793
C        -3.16962040127295    1.39934349456962   -0.59626855458419
C        -2.30519666573102    2.57451704023940   -0.58534519323584
C        -2.94471718179921   -0.70533210668810   -1.83572913234682
C        -1.94940680616956   -1.42079219478360   -2.59281064491920
C        -1.57359855717870   -2.58863794365928   -1.83275497824725
C        -2.33490273651807   -2.59193640094326   -0.61121575284344
C        -3.18115110027461   -1.42995051327899   -0.61531249563090
C        -0.99137954855988   -0.72287867224287   -3.31562012815322
C        -0.98949572445301    0.71881833962286   -3.30970523982851
C         0.38268284265669    1.16426666971195   -3.31371778517141
C         1.22802848163221   -0.00033341153685   -3.31884625405658
C         0.38126366563779   -1.16298709169558   -3.31812690951147
Cl       -1.95736541599008   -0.00731761153476    5.23474465459835
Cl       -3.13552519860458    3.62270930005560    2.87422050545812
Cl        2.68554253462671   -4.69310468847076   -0.95501179417833
63
 energy: -142.111579454558 gnorm: 0.013358966736 xtb: 6.4.1 (a3dbbd7)
C        -1.29867315441517    0.00909087013734    3.54859112699626
C        -0.36863270392211   -1.16511551467458    3.31137003172409
C         0.98052450733414   -0.71212536119423    3.28446042854460
C         0.97868277575060    0.72877278715746    3.27791679413165
C        -0.37457958658259    1.18584785134641    3.30606051384790
C         2.35299293434360   -2.57960640191979    0.60252165743803
C         3.16571832013368   -1.41395251149238    0.58472323988511
C         2.94437595151803   -0.68701087128751    1.81236102995402
C         1.95272279864366   -1.40349566489986    2.56627808670220
C         1.57961382554948   -2.55878396869448    1.79831220287879
C         3.18597480007399    1.41724128472406    0.58100939899020
C         2.33647799499583    2.57611716697975    0.57822909519319
C         1.57385220601513    2.57199937528245    1.80304064814948
C         1.95028442790617    1.41763318305440    2.55932543751451
C         2.94786323950750    0.69838886630295    1.80786205595591
C        -0.36786423433369    3.42990366854323    0.58018407728502
C        -1.73066955537476    3.01994377096690    0.58363840201107
C        -2.09707137149521    2.46667191536448    1.94820514159091
C        -0.73336712857713    2.29050162358865    2.58443448550551
C         0.24563551033998    2.98013729427130    1.80498251897477
C        -3.37624631613209    0.70677164871458    0.57647268659480
C        -3.39251170397569   -0.72788112638422    0.56830977981136
C        -2.76796859892475   -1.15897255781825    1.78858088073375
C        -2.39020690129653    0.02871286560417    2.53386414074779
C        -2.74943714066824    1.13370124377847    1.81491734955100
C        -1.73621302486006   -3.00175343011322    0.57645227620657
C        -0.36367696612363   -3.43109098616495    0.57322045195197
C         0.25257393779709   -2.98791692531525    1.80822355810168
C        -0.72564778453830   -2.26705978405124    2.56082936054417
C        -1.96950719802869   -2.28060967216177    1.79647087879573
C        -0.24564401608836   -2.99767204854066   -1.81220848638287
C         0.74911070306328   -2.27541926865481   -2.57012847106375
C         1.97007585087315   -2.28088183965946   -1.83729289825768
C         1.83783435400549   -3.18734668702636   -0.64148346582611
C         0.35415978720605   -3.45058927935986   -0.60008553805568
C         2.77666923057146   -1.16370482030612   -1.82699440816898
C         2.40680577874057   -0.00009156141670   -2.58586199090336
C         2.79096841219740    1.16233688775370   -1.82861430105031
C         3.40763368702528    0.71323431753056   -0.60297818169004
C         3.40974605563267   -0.71935374353904   -0.60212923940167
C         1.97839226097025    2.28769210645710   -1.82881155186877
C         0.74958683457229    2.28992737806165   -2.58670069031128
C        -0.23741655816724    3.00730309509735   -1.82320880371801
C         0.37234030155674    3.44489149658914   -0.60103475082168
C         1.74393053005776    3.00608915023108   -0.60298864659559
C        -1.55905844053345    2.57286576578125   -1.80920856465065
C        -1.94313228472427    1.41219555382515   -2.57225399062436
C        -2.93984459857212    0.69070478115892   -1.82141441532837
C        -3.17116406911316    1.40273956252297   -0.59598370996334
C        -2.30735597263284    2.57790209652786   -0.58492214192951
C        -2.94734875540989   -0.70177171834314   -1.83604429745109
C        -1.95113773799338   -1.41736389773850   -2.59173341920468
C        -1.57405711944724   -2.58415112457249   -1.83014368470402
C        -2.33506917661771   -2.58668569051431   -0.61209793281175
C        -3.18426829092423   -1.42683040486431   -0.61567149137364
C        -0.99299816190896   -0.71943151780189   -3.31447716166105
C        -0.99256164608490    0.72256427862244   -3.31024524046167
C         0.37981052622142    1.16814233681912   -3.31559850582883
C         1.22362341666383    0.00237326142613   -3.31796738800954
C         0.37999877022271   -1.15876845686379   -3.31544894433439
Cl       -1.96145790007963   -0.00418166057504    5.23573776322427
Cl       -3.13827321973290    3.62554900655423    2.87424465405083
Cl        2.73906033767570   -4.78853957073933   -0.97516743696487
63
 energy: -142.111889240698 gnorm: 0.007962031242 xtb: 6.4.1 (a3dbbd7)
C        -1.29948226511562    0.01032229695374    3.54902693549855
C        -0.36929398769728   -1.16406276412509    3.31184015132101
C         0.97958966356340   -0.71113474044315    3.28318120087095
C         0.97796801881115    0.72992185282669    3.27858032236428
C        -0.37540104463261    1.18748674846919    3.30716132347025
C         2.35032123530395   -2.57970340438520    0.59832149047681
C         3.16342434958354   -1.41704044313783    0.58184268844534
C         2.94109696968406   -0.68693114156485    1.80938358254809
C         1.95049144904143   -1.40298874573137    2.56297881925495
C         1.57988183606090   -2.56037545669347    1.79423494497061
C         3.18465875181178    1.41820849500223    0.58100126074493
C         2.33542869080419    2.57674648946398    0.57838332657975
C         1.57305924160631    2.57341284949894    1.80364740017967
C         1.94954929953275    1.41873289342506    2.55976897133448
C         2.94579563081819    0.69857239023669    1.80710617046056
C        -0.36889828591724    3.43151188329483    0.58080853652904
C        -1.73161634474393    3.02167076652042    0.58420609114278
C        -2.09805915853082    2.46861050664605    1.94893250037636
C        -0.73425940032483    2.29225747622261    2.58546366931556
C         0.24487978761014    2.98173891939245    1.80569946237211
C        -3.37699464160915    0.70853567605745    0.57681435525189
C        -3.39257786053792   -0.72600678960153    0.56845884855783
C        -2.76721043246279   -1.15735940107980    1.78823828823478
C        -2.39068152680020    0.03041094281576    2.53409136712400
C        -2.75014902064870    1.13548224394867    1.81536664356148
C        -1.73160122903394   -2.99818929566839    0.57490362710640
C        -0.36033290492949   -3.43422543061095    0.57165285478762
C         0.25282559699560   -2.98986530081168    1.80931555539702
C        -0.72435615671047   -2.26611868686447    2.56005486542091
C        -1.96717789484200   -2.27795442104021    1.79496557631383
C        -0.24294511671258   -2.99791786860893   -1.80922546799724
C         0.75176885926601   -2.27562500794095   -2.56720624756792
C         1.97554151527873   -2.28902123360021   -1.83975297422135
C         1.84803284844355   -3.20799801680211   -0.64806198557120
C         0.35871210164427   -3.45951421319359   -0.60159359318418
C         2.77786392626848   -1.16798336099437   -1.82744819956057
C         2.40354798531241   -0.00194315212199   -2.58207298392769
C         2.78817494711130    1.16161381984788   -1.82691648154142
C         3.40620800998279    0.71238390264875   -0.60238236443564
C         3.41195607136072   -0.71954679938742   -0.60315546202429
C         1.97687811122342    2.28798459386690   -1.82799538177588
C         0.74817985507061    2.29122006859461   -2.58617911626982
C        -0.23862238976322    3.00894164939673   -1.82285876719248
C         0.37133786141637    3.44623404576619   -0.60051121200515
C         1.74270591970487    3.00735847086884   -0.60266707414378
C        -1.56056157409882    2.57501909390739   -1.80901796870294
C        -1.94463428901242    1.41434154148411   -2.57224149015055
C        -2.94136116803667    0.69273002745931   -1.82119422518372
C        -3.17255250522918    1.40479875552623   -0.59575913580245
C        -2.30865474988521    2.57996031165423   -0.58452130571977
C        -2.94800386126665   -0.69998171851407   -1.83560907981798
C        -1.95066243503322   -1.41557441457171   -2.59001291305710
C        -1.57156153790214   -2.58187446313391   -1.82860065716916
C        -2.33307534557357   -2.58387120370041   -0.61199714857028
C        -3.18465203698721   -1.42515485460112   -0.61540150166574
C        -0.99297726367687   -0.71788279455315   -3.31241705591191
C        -0.99375273181609    0.72427968490237   -3.30979707371175
C         0.37863865583227    1.16965244716306   -3.31539307523205
C         1.22184627153050    0.00275442566175   -3.31569415568091
C         0.37967848849806   -1.15830134777358   -3.31194311651627
Cl       -1.96437154457605   -0.00213615724617    5.23556024248223
Cl       -3.13995133399836    3.62765220431308    2.87403381726077
Cl        2.75036883881953   -4.80447642124678   -0.97546727127409
63
 energy: -142.111982629426 gnorm: 0.004638003868 xtb: 6.4.1 (a3dbbd7)
C        -1.29987935803133    0.01053301679180    3.54923545074087
C        -0.36976895956148   -1.16400766303954    3.31243749817394
C         0.97919680949207   -0.71105994758873    3.28246841568797
C         0.97784131881051    0.72993760320261    3.27856951595941
C        -0.37556279998477    1.18775768941806    3.30757465662207
C         2.34727509635876   -2.57876789774964    0.59498951195345
C         3.16229714001716   -1.41870276550311    0.57973574299238
C         2.93909310558854   -0.68696236190686    1.80739830431096
C         1.94911888625464   -1.40281263056614    2.56079536610287
C         1.57968548492308   -2.56167245498603    1.79199871728943
C         3.18440076527075    1.41870099243912    0.58073153380763
C         2.33524884781755    2.57690847922053    0.57824377715311
C         1.57303739257783    2.57377219153171    1.80377491992171
C         1.94943856815276    1.41877941172263    2.55969210029702
C         2.94507638690686    0.69841592835468    1.80655851306031
C        -0.36910207223985    3.43181020208840    0.58097560157967
C        -1.73174364011112    3.02191042877958    0.58436371657810
C        -2.09830638397148    2.46904709609210    1.94920405758186
C        -0.73440512210595    2.29258972781205    2.58586273553507
C         0.24485042842894    2.98204351897842    1.80592767184678
C        -3.37743531300235    0.70913478944715    0.57697198836643
C        -3.39260989053315   -0.72528026343083    0.56853428506112
C        -2.76709608826433   -1.15697196807902    1.78815304127595
C        -2.39087360218325    0.03080655739301    2.53414787887764
C        -2.75048947542916    1.13595201918654    1.81559549066823
C        -1.72923617456033   -2.99634349528577    0.57397254085311
C        -0.35879961536154   -3.43564012146564    0.57113799490386
C         0.25236135941473   -2.99121121684672    1.81062952918828
C        -0.72409570288074   -2.26612603547579    2.56029516235904
C        -1.96595305406593   -2.27668790396104    1.79414938249233
C        -0.24172963799481   -2.99758929652884   -1.80742606119318
C         0.75299637417180   -2.27526197041756   -2.56541778390028
C         1.97862066908598   -2.29338594896011   -1.84055057872365
C         1.85190971524265   -3.21622510377140   -0.65089290751372
C         0.36148426172355   -3.46411788559658   -0.60206227282645
C         2.77864934949895   -1.16984821610558   -1.82761016806125
C         2.40189380285420   -0.00299818243120   -2.58022801814090
C         2.78685309668623    1.16114861431497   -1.82610559427260
C         3.40620093951014    0.71230970826274   -0.60234890917499
C         3.41384440454430   -0.71906101067265   -0.60397768893473
C         1.97644260971063    2.28810481807845   -1.82781078821100
C         0.74762369385580    2.29175300607821   -2.58596558733742
C        -0.23907318421899    3.00965453810858   -1.82283808101842
C         0.37107771091964    3.44668999374966   -0.60042151745613
C         1.74241752683062    3.00788872165963   -0.60271235414632
C        -1.56118383900432    2.57583915008632   -1.80908652455829
C        -1.94534789917929    1.41522626465544   -2.57246650955291
C        -2.94222657581652    0.69348845720948   -1.82124730003603
C        -3.17327414386354    1.40549715244869   -0.59575998646420
C        -2.30908865804825    2.58054607971811   -0.58441554467066
C        -2.94854797788353   -0.69933504855405   -1.83538536258517
C        -1.95034897753466   -1.41463825293636   -2.58903853829296
C        -1.57008505865871   -2.58035784410507   -1.82773312275114
C        -2.33221678156368   -2.58259630067434   -0.61185351274026
C        -3.18508509413962   -1.42446763182431   -0.61527383343362
C        -0.99291060588069   -0.71708007899065   -3.31120449212669
C        -0.99418892173763    0.72512648336536   -3.30977151447588
C         0.37817431918828    1.17047518840373   -3.31542547243020
C         1.22116331096964    0.00300911664787   -3.31464918476357
C         0.37935728161552   -1.15797407961178   -3.30968439650580
Cl       -1.96593856909721   -0.00139578766390    5.23546390914321
Cl       -3.14030810425651    3.62848115449249    2.87369608856773
Cl        2.75325937462864   -4.80497031092116   -0.97199108848360
63
 energy: -142.112022001924 gnorm: 0.002491463130 xtb: 6.4.1 (a3dbbd7)
C        -1.29991031991612    0.01026318920634    3.54928857305351
C        -0.36997873242283   -1.16436164261127    3.31285135493010
C         0.97916360215954   -0.71138092785521    3.28233224581687
C         0.97796204272679    0.72951488755537    3.27835485144668
C        -0.37542586407149    1.18743328816667    3.30758795382972
C         2.34489576684224   -2.57731380125837    0.59318786154734
C         3.16155335414118   -1.41910799770565    0.57870807348248
C         2.93830438281035   -0.68699760868135    1.80668134172938
C         1.94866137930947   -1.40277112528386    2.55997084522516
C         1.57929963463169   -2.56202269648942    1.79102922421064
C         3.18465920037445    1.41884281179628    0.58047885035028
C         2.33546522912627    2.57675134810569    0.57808757585588
C         1.57325880465406    2.57355990167543    1.80370625101889
C         1.94957853175157    1.41840879078637    2.55949784326070
C         2.94517172813883    0.69820900405124    1.80635700748773
C        -0.36891377579477    3.43149860167430    0.58095528861138
C        -1.73149420260075    3.02154395696457    0.58434531920951
C        -2.09812513982246    2.46877039493000    1.94921514492613
C        -0.73421272110571    2.29227982959541    2.58590774613899
C         0.24508639607323    2.98172455931897    1.80591900247568
C        -3.37747182589320    0.70905077167105    0.57702936861877
C        -3.39259834348457   -0.72526418080929    0.56852652129458
C        -2.76728115934005   -1.15722845091848    1.78821215820801
C        -2.39083288461863    0.03057005618107    2.53413716172638
C        -2.75044889940465    1.13575503165743    1.81567455588263
C        -1.72864221089418   -2.99584106604903    0.57354971194460
C        -0.35856902558634   -3.43560683642459    0.57099006126841
C         0.25180864844453   -2.99176514804450    1.81143396339322
C        -0.72429029111056   -2.26654948931002    2.56070651371916
C        -1.96566756542360   -2.27649550177839    1.79390677390799
C        -0.24156393137159   -2.99697301634034   -1.80662355744521
C         0.75319818270889   -2.27462244835583   -2.56460497549978
C         1.97934860223591   -2.29432384468335   -1.84039214363752
C         1.85313509617789   -3.21873081119119   -0.65165413297693
C         0.36232636346811   -3.46494466960999   -0.60198037516711
C         2.77862989969386   -1.17002672460272   -1.82759272463411
C         2.40138106296891   -0.00334805502380   -2.57987041102230
C         2.78664222680260    1.16098488209096   -1.82604631200628
C         3.40672876297638    0.71246679924371   -0.60260841413945
C         3.41480057638369   -0.71848690913367   -0.60444092848993
C         1.97660789476166    2.28811813180979   -1.82796888657189
C         0.74757948032247    2.29176961562960   -2.58596178350996
C        -0.23904025677799    3.00967424571828   -1.82287903832664
C         0.37121620501610    3.44659083135853   -0.60046496901414
C         1.74258252636512    3.00789204491368   -0.60285331424204
C        -1.56120101591515    2.57580227887774   -1.80913737989239
C        -1.94546454884173    1.41530463910970   -2.57262553918418
C        -2.94245750256882    0.69350052708909   -1.82132273930389
C        -3.17334521972309    1.40540803497699   -0.59579764897234
C        -2.30901590308853    2.58039665403474   -0.58440586342581
C        -2.94886744158353   -0.69935635530371   -1.83535083389215
C        -1.95028525746297   -1.41441313049937   -2.58879598720554
C        -1.56968567206163   -2.57976961578935   -1.82754353712766
C        -2.33223131045157   -2.58241835897630   -0.61182317636963
C        -3.18546401995874   -1.42442928946326   -0.61530925930461
C        -0.99289137618365   -0.71687321418258   -3.31087062040777
C        -0.99420890367386    0.72534095600839   -3.30994101286882
C         0.37810022579495    1.17075862907106   -3.31565302054017
C         1.22108492650199    0.00315685793095   -3.31460585713175
C         0.37912389718346   -1.15780924257433   -3.30894572707340
Cl       -1.96643472828923   -0.00127843536855    5.23542953291563
Cl       -3.13995360356303    3.62851239051065    2.87347840808184
Cl        2.75259777234481   -4.79955492330456   -0.96753651201539
63
 energy: -142.112034328755 gnorm: 0.001379155359 xtb: 6.4.1 (a3dbbd7)
C        -1.29976238373668    0.00998462613340    3.54924070475145
C        -0.36995694053957   -1.16464129402489    3.31289871274208
C         0.97925975241369   -0.71166112644392    3.28250298617415
C         0.97809611562092    0.72921055862722    3.27824307376276
C        -0.37526680658988    1.18710672511944    3.30744844503481
C         2.34406951126077   -2.57638772403457    0.59300128283102
C         3.16129103368114   -1.41877278429200    0.57870508879888
C         2.93848574970325   -0.68703884856595    1.80692579032763
C         1.94887171905757   -1.40283302080703    2.56021616378817
C         1.57903702575945   -2.56171526916731    1.79105105670650
C         3.18495506707681    1.41875606314641    0.58038794155767
C         2.33569382204418    2.57654627160464    0.57804294545338
C         1.57341176276843    2.57326820030268    1.80363224209700
C         1.94972320323859    1.41813246050197    2.55941870400442
C         2.94551120450963    0.69811177004906    1.80639880709491
C        -0.36871067153765    3.43121142269038    0.58092223994141
C        -1.73128121542549    3.02125455057201    0.58431784095933
C        -2.09791054462383    2.46845669864678    1.94916738937240
C        -0.73402645408573    2.29196587806405    2.58582484359696
C         0.24526152251682    2.98140945590506    1.80586581559381
C        -3.37733327496084    0.70879935719034    0.57702758610101
C        -3.39259030387620   -0.72549548387836    0.56847533409052
C        -2.76746571293312   -1.15754618225203    1.78827606645643
C        -2.39075356812654    0.03027624968761    2.53413650087376
C        -2.75029385270858    1.13547334769553    1.81567744970995
C        -1.72907637365095   -2.99615965640027    0.57353773800739
C        -0.35897555424108   -3.43517899988443    0.57096107618609
C         0.25157235484876   -2.99172792553964    1.81147110767284
C        -0.72452794402231   -2.26689535665517    2.56084794477159
C        -1.96595601632568   -2.27685285538048    1.79402423498638
C        -0.24188416623313   -2.99673005129167   -1.80675692280108
C         0.75292629721026   -2.27436119725491   -2.56474057999390
C         1.97876066591920   -2.29348094842172   -1.84014115080587
C         1.85319526794787   -3.21859930642995   -0.65140016590063
C         0.36186058791833   -3.46397390022700   -0.60185046826240
C         2.77832297619995   -1.16957839252131   -1.82762702954734
C         2.40158255654575   -0.00324204453565   -2.58030027260267
C         2.78699827817153    1.16104209164439   -1.82635372675190
C         3.40712284964837    0.71254293414845   -0.60285641830708
C         3.41481933236955   -0.71830626004158   -0.60454066313833
C         1.97687193359566    2.28807762989492   -1.82814443326959
C         0.74772933519326    2.29159857519066   -2.58604234744176
C        -0.23885327763350    3.00944050940669   -1.82288698440869
C         0.37141684901793    3.44636264316557   -0.60049052422056
C         1.74280749591921    3.00771081384355   -0.60292164362456
C        -1.56099771106038    2.57552087805651   -1.80911690714491
C        -1.94529940240182    1.41508770386303   -2.57262786245708
C        -2.94230371255126    0.69328899537882   -1.82133364265704
C        -3.17313238555277    1.40513822343891   -0.59580586921419
C        -2.30882469950462    2.58013870589103   -0.58440578032035
C        -2.94890159305975   -0.69956223784834   -1.83542562677750
C        -1.95038350460961   -1.41458573763970   -2.58901800047442
C        -1.56997881568548   -2.57994630942683   -1.82778396062612
C        -2.33257917724114   -2.58274713966717   -0.61190013357163
C        -3.18559982171122   -1.42463211254573   -0.61542051338707
C        -0.99292607453039   -0.71700765489288   -3.31111751947225
C        -0.99409885224921    0.72521340826744   -3.31006947305104
C         0.37818278598041    1.17067363454299   -3.31583546311604
C         1.22123860565935    0.00317269041144   -3.31499168112053
C         0.37906859468501   -1.15782998260355   -3.30933326048073
Cl       -1.96605546284762   -0.00144984932129    5.23550177642582
Cl       -3.13959912603508    3.62823989947792    2.87352111053988