63
 energy: -142.062478529642 gnorm: 0.135793049536 xtb: 6.4.1 (a3dbbd7)
C        -1.32333194775417    0.00617886347970    3.59125188963251
C        -0.38909456310608   -1.27772716531095    3.58793274117145
C         0.98734837171535   -0.72675165446744    3.28582848483634
C         0.97037352147027    0.69420630050098    3.25749094477592
C        -0.37633960723915    1.14742685553706    3.29074190055216
C         2.33092254703306   -2.58746567485154    0.56610397604514
C         3.16875994483946   -1.41579758165486    0.56774606192583
C         2.91978889080344   -0.69314490348597    1.79074016083681
C         1.93018806170321   -1.40549148670748    2.54814074589443
C         1.57476788296703   -2.59634073810083    1.79100274817011
C         3.18328087896891    1.41909085132624    0.57258499213333
C         2.33432229320876    2.58580968143883    0.57559918777772
C         1.57332139543398    2.57095369604789    1.79851755002390
C         1.94352282881158    1.40414426944103    2.54285112768194
C         2.93804115459266    0.69543633516321    1.79366637265872
C        -0.36752716666001    3.44413435035873    0.58029879258012
C        -1.74013210357057    3.00741588983283    0.58054459941955
C        -1.97818665379860    2.28654468588757    1.80361199533287
C        -0.73393250395930    2.25581684802015    2.55761528373596
C         0.24647420110131    2.98080949443068    1.80023381740862
C        -3.39591089216029    0.72883802558845    0.57533866561121
C        -3.37932885665645   -0.70504006359254    0.57786353554246
C        -2.74934612856665   -1.12865052488571    1.82052481704193
C        -2.40026274086307   -0.01382700939334    2.55826017594831
C        -2.77435746218519    1.16021035149421    1.80187148511327
C        -1.70577977915925   -3.00504292266898    0.57191390059864
C        -0.34657433486683   -3.46193150719564    0.56452064530943
C         0.25810980605866   -3.00738238851431    1.79111395103090
C        -0.74203335365356   -2.29289841924391    2.55243835495534
C        -1.91196172287597   -2.27950749485726    1.81757326885181
C        -0.23558165862281   -3.01371296632646   -1.83961821271520
C         0.75175047781152   -2.28700579367404   -2.59867644532734
C         1.98089777627659   -2.28868303835222   -1.84308617931945
C         1.74918768154887   -3.01946296828987   -0.62050040464920
C         0.38088379041600   -3.46658963937948   -0.62079308111870
C         2.79204993046375   -1.16413556659148   -1.83875967224219
C         2.41002754086118    0.00666527739579   -2.59106683151125
C         2.78807241943814    1.16926264052202   -1.83130610074559
C         3.40298548527550    0.72369088805355   -0.60835037131266
C         3.40110069057525   -0.71955382898331   -0.60923004493565
C         1.96912615256614    2.29475463280888   -1.82840259178522
C         0.74474441569639    2.29528025280401   -2.58515694980539
C        -0.24988429155059    3.01642431380723   -1.82795956514323
C         0.36353023978106    3.45499162487799   -0.59844520421847
C         1.73735095077191    3.01278425815446   -0.60243935985793
C        -1.56944867307335    2.59059487249377   -1.83048045584010
C        -1.94787757007795    1.42311330884846   -2.58910001301826
C        -2.94122296022124    0.70465889669871   -1.83002690890673
C        -3.17947337159538    1.42642572884929   -0.60816005298080
C        -2.33307692209202    2.59081264516620   -0.60600270171083
C        -2.93172079240255   -0.68656028280689   -1.82266620418654
C        -1.94059925011627   -1.40887980593779   -2.58138532694875
C        -1.55636984787224   -2.57670213587000   -1.82754179967090
C        -2.29848528094837   -2.57416283302738   -0.59738768824741
C        -3.15456863482430   -1.39758782868201   -0.59434922362650
C        -0.98936986995949   -0.71482485845558   -3.31408037280858
C        -0.99159024528376    0.72723605185279   -3.31429029098428
C         0.38014149579772    1.17201579903766   -3.31523274930469
C         1.22728121177112    0.00778684511203   -3.31823795360647
C         0.38205649969615   -1.16057927312445   -3.31917058806611
Cl       -2.09995733548554    0.29360223981566    5.20530702406437
Cl       -0.35034641589922   -2.11046483688082    5.19906768498811
Cl       -4.44141727763150   -1.07419661893641   -2.74280455976108
63
 energy: -142.086465060953 gnorm: 0.058311022464 xtb: 6.4.1 (a3dbbd7)
C        -1.32182107287217    0.00598722870279    3.59184197742547
C        -0.38752201962647   -1.27813874990106    3.58932192457887
C         0.98856708043243   -0.72705225084167    3.28684742227845
C         0.97074137555153    0.69424870994428    3.25756480867217
C        -0.37545647701170    1.14738233091980    3.29130161903761
C         2.33366328750563   -2.58797245611697    0.56764768589841
C         3.17018220391334   -1.41608944730013    0.56886342783934
C         2.92118207725964   -0.69365896741450    1.79140348015713
C         1.93197488357200   -1.40575378005858    2.54927884927179
C         1.57720563239838   -2.59652058547693    1.79278448998099
C         3.18401749519233    1.41887001922351    0.57293480943786
C         2.33581475111772    2.58614318655177    0.57630169333809
C         1.57457513830089    2.57125470020954    1.79930071618234
C         1.94418201752834    1.40391100083365    2.54298127392875
C         2.93840295591439    0.69535442073064    1.79362661896298
C        -0.36357574324143    3.44897836415533    0.58267657618516
C        -1.73659131617068    3.01511679280380    0.58408027627847
C        -1.97578041324767    2.29069899104560    1.80538907241824
C        -0.73317946941396    2.25702963331461    2.55760811648227
C         0.24863024674592    2.98261475979921    1.80177941012987
C        -3.39074276907216    0.73149325969468    0.57746602815541
C        -3.36516277337695   -0.70688403190385    0.58147020072173
C        -2.74728564350399   -1.13244960590306    1.82644784696342
C        -2.39786628721996   -0.01478612097979    2.55853502711215
C        -2.77197828830425    1.15994256851463    1.80053754101879
C        -1.70180205785753   -3.00830401216392    0.57852767527830
C        -0.34302671554693   -3.46383264405545    0.56760894977497
C         0.26094280786544   -3.00929326067561    1.79421161706649
C        -0.73899967307341   -2.29523656353055    2.55574605240120
C        -1.90987031205777   -2.28406359234561    1.82255851193302
C        -0.22743876609461   -3.01635036146512   -1.83901060315462
C         0.75788988956889   -2.29202974720418   -2.59887758103156
C         1.98458370842742   -2.29090073564094   -1.84173323471944
C         1.75324238983925   -3.02170371959492   -0.61878028918016
C         0.38521279598716   -3.46852160185805   -0.61845781080500
C         2.79368224486196   -1.16454062923049   -1.83739095279262
C         2.41118642919635    0.00665209719922   -2.58961400037892
C         2.78979042430175    1.16975586530666   -1.83109532821055
C         3.40348903463531    0.72384422688363   -0.60829288100431
C         3.40239613351075   -0.71978184981630   -0.60890037639623
C         1.97057256885145    2.29626524872939   -1.82794422150696
C         0.74761488014420    2.29941879903770   -2.58378619920716
C        -0.24489552863286    3.02442007898827   -1.82643617320236
C         0.36758545180401    3.45980346708828   -0.59615209434496
C         1.74006438925199    3.01433107032176   -0.60124776498916
C        -1.56428770412811    2.60332773611778   -1.82625510707884
C        -1.94087373186401    1.42903344313332   -2.57674587294264
C        -2.94691486329276    0.72932324850332   -1.83383701907898
C        -3.16552756967325    1.43188754803394   -0.60789301773105
C        -2.32703706938089    2.60357246999977   -0.60341648810081
C        -3.02188139941117   -0.71092106233634   -1.87847565507308
C        -1.92475694588014   -1.41273133880651   -2.57874448063966
C        -1.54720061795609   -2.57117226889950   -1.82277334737294
C        -2.29057947568318   -2.56975173333320   -0.59160561159881
C        -3.14549354341412   -1.40289455514317   -0.58143931890244
C        -0.97905440461576   -0.71581017711133   -3.30361848165690
C        -0.98696747883377    0.73067296155864   -3.31047502773882
C         0.38061524588399    1.17284595042776   -3.31289337827644
C         1.22880048381677    0.00729650055924   -3.31627699895611
C         0.38858222690102   -1.16354241870157   -3.31969613220711
Cl       -2.10088604496125    0.29370037239193    5.20430146324362
Cl       -0.34910515467857   -2.11038260709652    5.20041535366857
Cl       -4.56651059745939   -1.11709121122147   -2.81590609024953
63
 energy: -142.092439522572 gnorm: 0.013347801338 xtb: 6.4.1 (a3dbbd7)
C        -1.31941759498947    0.00620654163362    3.59233461788989
C        -0.38439670158630   -1.27806668410049    3.59086182926895
C         0.99153630031602   -0.72693114089007    3.28884202541707
C         0.97294897955997    0.69465980858260    3.25871753870981
C        -0.37287634941047    1.14750656910145    3.29270463532283
C         2.33781546909345   -2.58811530034638    0.57006282986068
C         3.17324481353947   -1.41601605129492    0.57134560901650
C         2.92458332117058   -0.69367718755003    1.79357041909112
C         1.93544767040548   -1.40574246893818    2.55138715370384
C         1.58096498402350   -2.59644545525355    1.79517790092361
C         3.18692328863799    1.41935169997416    0.57505739959792
C         2.33909516178054    2.58707147328413    0.57831663309094
C         1.57742389937121    2.57191492081195    1.80131280671073
C         1.94678066367292    1.40416015423654    2.54449109266997
C         2.94070616490056    0.69569898480997    1.79509702525369
C        -0.35950561740835    3.45329331946829    0.58528147178938
C        -1.73223718677415    3.01715683453709    0.58574726542226
C        -1.97189490080268    2.29328502200374    1.80653650594329
C        -0.73100709299423    2.25768087932416    2.55787657848109
C         0.25213859814927    2.98457424360975    1.80398385273906
C        -3.39117525816597    0.73321818931367    0.57769814455692
C        -3.35953649869341   -0.70860865740804    0.57567441808004
C        -2.73849200135976   -1.13092379314056    1.82146986192667
C        -2.39186312633005   -0.01439878628132    2.55505413899262
C        -2.76769547950384    1.15918766732790    1.79511346336373
C        -1.69880434824039   -3.00647370653900    0.58046839086082
C        -0.34039777137677   -3.46316927981970    0.56950514026618
C         0.26456945928112   -3.01018053478526    1.79646713004538
C        -0.73508479530460   -2.29670774802082    2.55833282300357
C        -1.90530662550018   -2.28511058000358    1.82330258287476
C        -0.22429273976003   -3.01234207719422   -1.83631172772360
C         0.76038485062863   -2.29150163645069   -2.59399919251729
C         1.98877610682968   -2.29212352391626   -1.83988826473187
C         1.75710834608316   -3.02226590595162   -0.61630437674169
C         0.38816654252000   -3.46715963071658   -0.61646871892128
C         2.79659786764343   -1.16442374254976   -1.83493336511125
C         2.41297920534843    0.00743302713461   -2.58673300589259
C         2.79314179156854    1.17063229809026   -1.82906732768908
C         3.40579275068580    0.72460988366968   -0.60643789901478
C         3.40472385124042   -0.71943735229961   -0.60706516920147
C         1.97303782764999    2.29737996280857   -1.82601368774624
C         0.75128864720112    2.30193242547513   -2.58126855065175
C        -0.24088503204688    3.02610786194771   -1.82337481467505
C         0.37190491777036    3.46394857625909   -0.59377814203466
C         1.74400117725039    3.01626742981521   -0.59878777790511
C        -1.55964822442279    2.60265212276455   -1.82199230218177
C        -1.94019428901548    1.42376977877960   -2.56766148535481
C        -2.94513475516922    0.73334844991342   -1.83287774511900
C        -3.15731365114773    1.42667180834236   -0.61201240180977
C        -2.32102837872893    2.60307588743509   -0.60166698906100
C        -3.10157381828349   -0.73470809291635   -1.92748969254030
C        -1.92670946564438   -1.41500742641489   -2.58194467416179
C        -1.54448569772660   -2.55889087461061   -1.82047015097588
C        -2.28740076204161   -2.55822651578776   -0.58944432286410
C        -3.14897940439752   -1.40572268377732   -0.58086450941671
C        -0.98142311055459   -0.71717409594509   -3.29685253253442
C        -0.98635093307585    0.73249820332525   -3.31076274438193
C         0.37913992590636    1.17290095271729   -3.30791859961035
C         1.22930435438481    0.00803512992938   -3.31102404805441
C         0.38760918788543   -1.16101389179961   -3.31067832778782
Cl       -2.09975335023220    0.29182758579463    5.20443417442569
Cl       -0.34756538625592   -2.10751299072104    5.20326831064618
Cl       -4.66038745483151   -1.14296491220048   -2.87181224623968
63
 energy: -142.092749935692 gnorm: 0.007983950201 xtb: 6.4.1 (a3dbbd7)
C        -1.31836417234496    0.00611465796129    3.59201643713638
C        -0.38252598840543   -1.27826196562355    3.59198288062250
C         0.99326636374886   -0.72685821315445    3.28986713881941
C         0.97443675329951    0.69480641983074    3.25956081719018
C        -0.37140175035196    1.14736658881110    3.29333402352700
C         2.33991660314577   -2.58819966110588    0.57137114051294
C         3.17539261044515   -1.41607539028180    0.57275222501517
C         2.92667076896404   -0.69358137825821    1.79489044211723
C         1.93740957639746   -1.40577132221054    2.55257654597541
C         1.58287101442236   -2.59658658020109    1.79657829562348
C         3.18874574962661    1.41977965842364    0.57626468447265
C         2.34077505379375    2.58762687069640    0.57927422980804
C         1.57887925900254    2.57227486728757    1.80237456535152
C         1.94839422749770    1.40443636114632    2.54549008262879
C         2.94230787507663    0.69596444487394    1.79611267514630
C        -0.35827296907963    3.45389363032082    0.58614031262194
C        -1.73065104108632    3.01610042704990    0.58586449175086
C        -1.97040575448293    2.29324073188481    1.80698854349039
C        -0.72978594644159    2.25733792255660    2.55808863474765
C         0.25357114956035    2.98507010590964    1.80498760960505
C        -3.39371382103955    0.73368182367325    0.57834263242615
C        -3.36191298729184   -0.70929673999223    0.57189548423716
C        -2.73377218180083   -1.12926569189084    1.81670865281807
C        -2.38894052547560   -0.01427475504575    2.55267535308043
C        -2.76635165131707    1.15894215403780    1.79314733340121
C        -1.69794907558266   -3.00424232171382    0.57948210928703
C        -0.33961743548226   -3.46129844334701    0.56996419516537
C         0.26609510612735   -3.01000916095970    1.79744996383976
C        -0.73336404984084   -2.29690257386826    2.55940734662709
C        -1.90304974196361   -2.28429190318167    1.82235163076331
C        -0.22496352775695   -3.00892129230302   -1.83417053920789
C         0.76006024557770   -2.28979057794684   -2.59108425842445
C         1.99003365441225   -2.29178403112688   -1.83859045628795
C         1.75845648716063   -3.02182641350434   -0.61501593440609
C         0.38874343957470   -3.46492177012999   -0.61543057329844
C         2.79772803779778   -1.16404065362878   -1.83324437695227
C         2.41326238083736    0.00785559706948   -2.58481417607261
C         2.79480110122819    1.17095552424784   -1.82785058571679
C         3.40746294076549    0.72499016998401   -0.60527477170601
C         3.40644130372926   -0.71923973116406   -0.60581293906469
C         1.97421677571225    2.29753863389965   -1.82503651819718
C         0.75269283708333    2.30210895488358   -2.58015294313853
C        -0.23994881491510    3.02507941915290   -1.82192253776364
C         0.37322276331322    3.46455980658833   -0.59297038117254
C         1.74564857177702    3.01699134907185   -0.59779428343386
C        -1.55812509734233    2.59902024513738   -1.82045486615158
C        -1.94211519944847    1.41991997243329   -2.56700258161507
C        -2.94461538024736    0.72909115665375   -1.83252257048794
C        -3.15771214125401    1.42282876397604   -0.61417406307303
C        -2.31895224021980    2.59934243412274   -0.60110613229506
C        -3.12101922078903   -0.74190032498758   -1.93948955971825
C        -1.93483726730386   -1.41680544694080   -2.58741205488843
C        -1.54608672767793   -2.55479879249916   -1.82091932221164
C        -2.28867265171691   -2.55427171678327   -0.58992297209952
C        -3.15774907577021   -1.40766782867293   -0.58539869918476
C        -0.98572211993720   -0.71777331361650   -3.29747158082627
C        -0.98679391871868    0.73299816026646   -3.31284056856049
C         0.37848258063360    1.17304835560883   -3.30611053242191
C         1.22844009581832    0.00849490990758   -3.30742225868949
C         0.38501949073145   -1.15917286603306   -3.30542010712813
Cl       -2.10255037349304    0.29482007579500    5.20156659494747
Cl       -0.34160441111335   -2.10852175340705    5.20399083101591
Cl       -4.67657923484612   -1.14291261508641   -2.88307578228359
63
 energy: -142.092831714523 gnorm: 0.004773579138 xtb: 6.4.1 (a3dbbd7)
C        -1.31731626736173    0.00572619978515    3.59082950845925
C        -0.38177718995358   -1.27774769792150    3.59152195371382
C         0.99420505216513   -0.72666505977274    3.29000070115471
C         0.97531789186774    0.69497631768946    3.25943605930363
C        -0.37045772392453    1.14745285614026    3.29365782513678
C         2.34096878463306   -2.58843754158531    0.57188981067303
C         3.17646657670728   -1.41626495414527    0.57314762094255
C         2.92765202913404   -0.69361292005625    1.79520658705830
C         1.93844448635579   -1.40593882457732    2.55303455471197
C         1.58379878679324   -2.59694285123631    1.79735293705334
C         3.18947409561673    1.41996381589200    0.57629158094458
C         2.34133179265015    2.58787751760332    0.57915347182936
C         1.57937119005067    2.57247787860742    1.80241925443005
C         1.94922554715036    1.40468028978702    2.54543902277004
C         2.94295912663781    0.69604654524810    1.79603853343946
C        -0.35806530264879    3.45385019230663    0.58631148907691
C        -1.73013140230025    3.01528126052679    0.58595094240996
C        -1.96999234324927    2.29305426052124    1.80768550971246
C        -0.72931917185557    2.25724927175944    2.55840024505615
C         0.25399541755367    2.98530593258316    1.80533240871827
C        -3.39584800847912    0.73425946079304    0.57977048073412
C        -3.36299185435311   -0.70930473008891    0.56978824036373
C        -2.73076548363279   -1.12840076202552    1.81368903812207
C        -2.38776403489733   -0.01450699382729    2.55156127390494
C        -2.76642458367917    1.15906349294300    1.79295408148934
C        -1.69712967356248   -3.00275093371265    0.57866394360377
C        -0.33909373446668   -3.46014287147393    0.57016904356927
C         0.26674645640530   -3.01027382199115    1.79834771981080
C        -0.73268900068647   -2.29765265707661    2.56045346169900
C        -1.90181074033165   -2.28388494040737    1.82171724643591
C        -0.22529109842795   -3.00670639714374   -1.83267621739334
C         0.75995836349519   -2.28887840605634   -2.58980372545314
C         1.99083878750885   -2.29167795159809   -1.83811953843023
C         1.75927785762373   -3.02170628392832   -0.61460064160306
C         0.38908553286217   -3.46352900903198   -0.61485108476105
C         2.79823659902020   -1.16387263273730   -1.83262116028391
C         2.41335454246858    0.00800227770104   -2.58430213800786
C         2.79557372386521    1.17103486817206   -1.82777399631899
C         3.40828534989474    0.72511109772929   -0.60520728471738
C         3.40734980428033   -0.71923417691357   -0.60552959971435
C         1.97465545727486    2.29754557102161   -1.82510704440493
C         0.75340794975980    2.30213588998912   -2.58014121149714
C        -0.23975512572579    3.02441814322232   -1.82149851072182
C         0.37344941708343    3.46453474339748   -0.59291923287690
C         1.74618145537379    3.01731560370309   -0.59785778108439
C        -1.55724889340738    2.59644094825788   -1.81948135473806
C        -1.94317010645376    1.41726048708058   -2.56697047308989
C        -2.94296755534250    0.72537444041062   -1.83135263119884
C        -3.15820800188276    1.42016324733029   -0.61505864249802
C        -2.31763139692857    2.59661611129042   -0.60066965626831
C        -3.12962273003900   -0.74536537766808   -1.94496874010851
C        -1.93975378575432   -1.41742884531177   -2.59057119675222
C        -1.54657208487299   -2.55220060540487   -1.82097974752145
C        -2.28895879035701   -2.55168409609752   -0.59000780194409
C        -3.16300375708517   -1.40836309501931   -0.58844463625784
C        -0.98789296494994   -0.71789154645012   -3.29790191209005
C        -0.98664349884416    0.73349333202920   -3.31480780208480
C         0.37833754915431    1.17327875125082   -3.30593898276247
C         1.22775402301364    0.00869952952704   -3.30560092073010
C         0.38345154592680   -1.15829634867860   -3.30254585618206
Cl       -2.09875913200152    0.28363862705290    5.20307027922759
Cl       -0.34816701659824   -2.09779414549327    5.20877929615816
Cl       -4.67861441554978   -1.13815751932368   -2.88616562292443
63
 energy: -142.092853097905 gnorm: 0.003656767543 xtb: 6.4.1 (a3dbbd7)
C        -1.31828545231268    0.00573627076639    3.59247255071432
C        -0.38156212635980   -1.27898453284940    3.59362552411895
C         0.99381681354987   -0.72722244020878    3.29000235076639
C         0.97483204327771    0.69440161565800    3.25981037938898
C        -0.37088210232279    1.14695852409703    3.29409669665193
C         2.34154359139849   -2.58888589392997    0.57202034561638
C         3.17685569664402   -1.41657567952538    0.57330115756017
C         2.92761014154451   -0.69388740776745    1.79529682358186
C         1.93830494418877   -1.40628253334214    2.55295988745446
C         1.58425157137742   -2.59752939354047    1.79768101764846
C         3.18924643055325    1.41977365332554    0.57645057678727
C         2.34097671324063    2.58767392647151    0.57921990221663
C         1.57887692557250    2.57204778320458    1.80256813489337
C         1.94867151175527    1.40419294381835    2.54556233470629
C         2.94246008468490    0.69574413269590    1.79605554485644
C        -0.35843606097948    3.45349793175598    0.58636502926399
C        -1.73027053217361    3.01476683519366    0.58596094789503
C        -1.97026764520845    2.29289858682995    1.80830363920340
C        -0.72961743030532    2.25662620369202    2.55850129985674
C         0.25359643931524    2.98501801180100    1.80556985674297
C        -3.39760651399673    0.73479991902765    0.58145996770004
C        -3.36292646877965   -0.70908470942401    0.56876575617213
C        -2.72836499792279   -1.12781358227292    1.81212609907053
C        -2.38688674430092   -0.01454812858666    2.55122662734453
C        -2.76688421857705    1.15928696111874    1.79320511074864
C        -1.69630646118822   -3.00140759018476    0.57841366452362
C        -0.33873513896824   -3.45921945920632    0.57030754317025
C         0.26702824264190   -3.01040242845196    1.79898744663645
C        -0.73198009178988   -2.29823743619248    2.56176720685839
C        -1.90088773061138   -2.28356088068414    1.82194662136162
C        -0.22546457424191   -3.00518770208242   -1.83146707168724
C         0.75998281131253   -2.28843226538181   -2.58918537730010
C         1.99146872904256   -2.29178386287333   -1.83797922370162
C         1.75986633619982   -3.02189650980293   -0.61459680184917
C         0.38927679916085   -3.46264626925179   -0.61446862223433
C         2.79844490996707   -1.16383562189233   -1.83226111287327
C         2.41337572062718    0.00805311394145   -2.58413865639352
C         2.79586104935987    1.17097695335322   -1.82772988308590
C         3.40846090704947    0.72505583166421   -0.60507807907110
C         3.40774762881639   -0.71934681011285   -0.60539024742136
C         1.97468591567479    2.29745057663980   -1.82516920378611
C         0.75386462514934    2.30210641038931   -2.58032016691660
C        -0.23986876165074    3.02400106170527   -1.82134370289744
C         0.37314673223861    3.46424265508585   -0.59291911949421
C         1.74607808330491    3.01728633039748   -0.59782091336573
C        -1.55668478777510    2.59450753625782   -1.81871373396347
C        -1.94370863103369    1.41507239529878   -2.56686085610457
C        -2.94059465476746    0.72197579904160   -1.82961137871825
C        -3.15848777783562    1.41796602271713   -0.61542905584196
C        -2.31676562642985    2.59456861206358   -0.60037775237053
C        -3.13475449016702   -0.74751607122001   -1.94816702979958
C        -1.94287103948814   -1.41751184937131   -2.59222176176201
C        -1.54648838647690   -2.55018097028235   -1.82055119144594
C        -2.28866590015233   -2.54954284872838   -0.58951367963824
C        -3.16622210306603   -1.40845836420194   -0.59029374467232
C        -0.98900803680205   -0.71787941365630   -3.29784405565789
C        -0.98619441407702    0.73393586832178   -3.31647356783023
C         0.37842123049046    1.17351012958504   -3.30626545663316
C         1.22723562371321    0.00878218900806   -3.30444597076601
C         0.38240040517667   -1.15787383492045   -3.30060839710344
Cl       -2.10973727503952    0.30040753643064    5.19695269405872
Cl       -0.33274824384283   -2.10950445648314    5.20556937768542
Cl       -4.67490591566174   -1.13106841033201   -2.88571732357532
63
 energy: -142.092894006422 gnorm: 0.002021958514 xtb: 6.4.1 (a3dbbd7)
C        -1.31818498991882    0.00566019051471    3.59188805385021
C        -0.38202735539438   -1.27847395673654    3.59263732126783
C         0.99357746290769   -0.72699938229373    3.28970812871550
C         0.97462205785193    0.69458690563168    3.25939180836793
C        -0.37109152242144    1.14716996156424    3.29384167680451
C         2.34088426238766   -2.58872368297460    0.57169809758126
C         3.17617567300604   -1.41643729428926    0.57292927546064
C         2.92712563193315   -0.69376641282310    1.79493945360446
C         1.93792607383234   -1.40614421929311    2.55270199820003
C         1.58368848092451   -2.59732125711887    1.79729289931346
C         3.18881317253151    1.41976024048061    0.57605805051267
C         2.34060735392411    2.58762962760977    0.57890234539507
C         1.57860564526592    2.57211919693231    1.80219265307726
C         1.94843989376059    1.40433190577203    2.54519553715373
C         2.94218546587784    0.69582868981919    1.79573676945795
C        -0.35869758544984    3.45345944582829    0.58609741239162
C        -1.73068554834573    3.01520259542212    0.58592468415199
C        -1.97063754202122    2.29296410726388    1.80811146154730
C        -0.72991334352941    2.25691401768880    2.55840311361205
C         0.25330605469030    2.98499867249425    1.80521632458063
C        -3.39675169727187    0.73458894256883    0.58101436675213
C        -3.36208738081089   -0.70900659589712    0.56972023850555
C        -2.72989844438472   -1.12836118747787    1.81341406144982
C        -2.38788310425910   -0.01465037354069    2.55181266700799
C        -2.76734542987722    1.15932795706359    1.79363526971525
C        -1.69666915986247   -3.00235045222975    0.57870861981542
C        -0.33897804180668   -3.45994725491782    0.57021240147498
C         0.26659059053067   -3.01048377018300    1.79872797468771
C        -0.73257847056822   -2.29815817905439    2.56129517262417
C        -1.90161064657823   -2.28388461439458    1.82208530958223
C        -0.22521313240851   -3.00647121621406   -1.83223941974151
C         0.76012014349297   -2.28907469165019   -2.59003074709875
C         1.99109293434953   -2.29196735095444   -1.83833385857199
C         1.75945225389537   -3.02201829394873   -0.61489486037733
C         0.38912975040862   -3.46347835803267   -0.61478036976273
C         2.79808729979382   -1.16397616831055   -1.83275578982203
C         2.41329133572790    0.00791133342950   -2.58472396488815
C         2.79534204587358    1.17090403350858   -1.82809641792038
C         3.40794952503296    0.72501199060205   -0.60543809087692
C         3.40715428600398   -0.71933955718598   -0.60574945715194
C         1.97430668719975    2.29743285989634   -1.82546557411184
C         0.75343111483697    2.30206997837055   -2.58065087976450
C        -0.24009094013974    3.02439072311034   -1.82180137031127
C         0.37285097502698    3.46418198033108   -0.59316270111177
C         1.74564956643539    3.01712386847846   -0.59811263960032
C        -1.55717732248543    2.59583998148615   -1.81921313235139
C        -1.94298753095699    1.41623093402869   -2.56672200083108
C        -2.94063005626518    0.72353003738719   -1.82966988560129
C        -3.15799604548360    1.41915128294762   -0.61488470863752
C        -2.31740776520278    2.59596066505009   -0.60060860243247
C        -3.13077512020175   -0.74579749180710   -1.94576721272759
C        -1.93999420582694   -1.41706163343561   -2.59036119894029
C        -1.54597538868473   -2.55145853886498   -1.82045940242096
C        -2.28830160649319   -2.55079330935443   -0.58944776702192
C        -3.16322985913414   -1.40797906828546   -0.58874346037185
C        -0.98766038566711   -0.71786390977559   -3.29749517347498
C        -0.98615541979843    0.73366802733160   -3.31566031242146
C         0.37851388877395    1.17335111925164   -3.30676674738524
C         1.22756447239053    0.00858538097721   -3.30568470206909
C         0.38324006466629   -1.15849642979620   -3.30223902528554
Cl       -2.10466139185433    0.29236325104779    5.20004993242395
Cl       -0.33984412488007   -2.10390202471236    5.20722875143516