63
 energy: -142.087868368421 gnorm: 0.137608666745 xtb: 6.4.1 (a3dbbd7)
C        -1.30524132879597    0.00000000000538    3.57807329023422
C        -0.38198622120159   -1.16615737488772    3.28622995044209
C         0.97316446785684   -0.71953336628746    3.26852105894251
C         0.97316446785530    0.71953336630216    3.26852105894473
C        -0.38198622120459    1.16615737490379    3.28622995045274
C         2.33525790565848   -2.58178581715533    0.58265918378867
C         3.18402429064640   -1.41551052449968    0.58305164633927
C         2.94575551469093   -0.69331830539435    1.80727245276214
C         1.94633616722705   -1.41428833030776    2.55691587181014
C         1.57537284635923   -2.57710002453835    1.80571263196464
C         3.18402429064568    1.41551052450295    0.58305164633618
C         2.33525790565840    2.58178581715875    0.58265918378237
C         1.57537284635929    2.57710002454614    1.80571263195897
C         1.94633616722623    1.41428833031814    2.55691587180842
C         2.94575551468950    0.69331830540176    1.80727245276124
C        -0.36286725388684    3.43716117593932    0.57905462418204
C        -1.73307079475598    2.99275061625332    0.57524951534827
C        -1.97752320629156    2.27496221823572    1.79457083857807
C        -0.73661625909686    2.27496497778529    2.56523814188962
C         0.24797249911112    2.99276091828423    1.80557303834060
C        -3.36590164017822    0.71953732333088    0.57375248902312
C        -3.36590164017888   -0.71953732332215    0.57375248902510
C        -2.78105190250946   -1.16617827543313    1.79633080427055
C        -2.63331800734743    0.00000000000824    2.75326019131418
C        -2.78105190250706    1.16617827544612    1.79633080426590
C        -1.73307079475815   -2.99275061624643    0.57524951535621
C        -0.36286725388906   -3.43716117593443    0.57905462419038
C         0.24797249911082   -2.99276091827599    1.80557303834608
C        -0.73661625909661   -2.27496497777287    2.56523814188986
C        -1.97752320629363   -2.27496221822376    1.79457083858313
C        -0.24045690066217   -3.00743782548085   -1.83034246730529
C         0.75231661586805   -2.28840993805800   -2.58424128273324
C         1.97824017738855   -2.28845527885670   -1.82288383798471
C         1.74258918722144   -3.00745695556584   -0.59875134393160
C         0.36899288245124   -3.44813425118672   -0.59934302533638
C         2.79566620008723   -1.16591822783908   -1.82325695863853
C         2.41697359109874   -0.00000000000271   -2.58108531976838
C         2.79566620008779    1.16591822783556   -1.82325695864148
C         3.40959680691412    0.72110795434846   -0.59778286565664
C         3.40959680691433   -0.72110795434857   -0.59778286565546
C         1.97824017738961    2.28845527885345   -1.82288383799084
C         0.75231661586926    2.28840993805322   -2.58424128273948
C        -0.24045690066036    3.00743782547884   -1.83034246731341
C         0.36899288245285    3.44813425118749   -0.59934302534530
C         1.74258918722258    3.00745695556589   -0.59875134393955
C        -1.56217286029713    2.58178679356912   -1.83784975797872
C        -1.93879975252934    1.41553008402889   -2.59849355392507
C        -2.93052386427469    0.69331652856981   -1.84222173469045
C        -3.15943698990261    1.41427069975303   -0.61403881020582
C        -2.32163160591617    2.57707956787764   -0.61452432163280
C        -2.93052386427455   -0.69331652856949   -1.84222173468868
C        -1.93879975252999   -1.41553008403179   -2.59849355392122
C        -1.56217286029877   -2.58178679357009   -1.83784975797151
C        -2.32163160591823   -2.57707956787401   -0.61452432162573
C        -3.15943698990344   -1.41427069974849   -0.61403881020168
C        -0.98033776527170   -0.72109715720207   -3.32415755726590
C        -0.98033776527144    0.72109715719620   -3.32415755726739
C         0.39032106020777    1.16579648770428   -3.31706046827290
C         1.23757908177170   -0.00000000000348   -3.31355725238661
C         0.39032106020722   -1.16579648771087   -3.31706046826971
Cl       -1.60949318930206   -0.00000000015797    5.36443419001363
Cl       -4.09957109178614    0.00000000004209    3.81802953081684
Cl        0.55942930894224   -5.22177299834066   -0.90600173148954
63
 energy: -142.111825080942 gnorm: 0.059363428266 xtb: 6.4.1 (a3dbbd7)
C        -1.30759833442499    0.00426467091200    3.58191147982324
C        -0.38482462946734   -1.16149923249429    3.29298582666885
C         0.97145770387515   -0.71665266602317    3.27198624941998
C         0.97239674933745    0.72021641256017    3.27027011733733
C        -0.38280272000075    1.16814733594338    3.28812224277097
C         2.33302727633168   -2.56755824346956    0.57888712403124
C         3.18879712852568   -1.41029621850685    0.58167564871529
C         2.94499692392919   -0.69118512675238    1.80550819738624
C         1.94461624515160   -1.41320801429689    2.55595537348381
C         1.57303947601933   -2.57126274005046    1.80721773324554
C         3.18452050266360    1.41766733594682    0.58227694446352
C         2.33548594201336    2.58256389581183    0.58241319083928
C         1.57505881488285    2.57677960218320    1.80589765064906
C         1.94656763026526    1.41553061610443    2.55752226592910
C         2.94529105525305    0.69479523103508    1.80650887091795
C        -0.36312350229349    3.43713204608508    0.57947575968548
C        -1.73277887593934    2.99289508671257    0.57551191387252
C        -1.97798647125937    2.27584640704293    1.79539635583186
C        -0.73714897076089    2.27585277551419    2.56602101410090
C         0.24761359129645    2.99290163923370    1.80543170695449
C        -3.36711981421122    0.72021796690370    0.57521657505297
C        -3.36824206620551   -0.71665375225188    0.57681908224120
C        -2.78582666245395   -1.16150374021069    1.80186565352038
C        -2.63572495269605    0.00426468177395    2.75709595250771
C        -2.78236298282108    1.16815219336053    1.79789725145218
C        -1.72997649012111   -2.98120944464075    0.58351454867496
C        -0.37619702622337   -3.44400925152310    0.60052566662866
C         0.23919741771081   -2.98121604511560    1.80646665309867
C        -0.74400552540644   -2.26891376581027    2.57538377900182
C        -1.98333968975454   -2.26890711384083    1.80569272294404
C        -0.24241481522007   -2.99190839575729   -1.83730251479886
C         0.74939167177463   -2.27716490492618   -2.58080888819065
C         1.97647411375655   -2.27717286472949   -1.81872681620724
C         1.74970314454462   -2.99191753680635   -0.60009125194509
C         0.38163156254908   -3.55407532508014   -0.61969331775816
C         2.80117974115996   -1.15812615331431   -1.82459949553230
C         2.41894165201803    0.00538120780620   -2.58339298973507
C         2.79760495776389    1.17035826631299   -1.82494467414656
C         3.41262416912095    0.72529421638901   -0.59963779363271
C         3.41463176964287   -0.71564516761633   -0.60093855600034
C         1.97872457204304    2.29146619364255   -1.82347244081293
C         0.75264715686572    2.29145946935865   -2.58493149889459
C        -0.24007194118963    3.00913638855328   -1.83037512436099
C         0.36926280722678    3.44933240573509   -0.59977617344689
C         1.74245328350192    3.00914367537828   -0.59911927949654
C        -1.56205922685482    2.58256589937594   -1.83816251296718
C        -1.93832022766899    1.41767944428104   -2.59927685194514
C        -2.92963229821355    0.69479454239264   -1.84213691154000
C        -3.16008134199892    1.41551977827935   -0.61397375253984
C        -2.32165844619687    2.57676846918104   -0.61416039592068
C        -2.92860520577842   -0.69118421720430   -1.84231679856986
C        -1.93967741588245   -1.41030842697905   -2.60337666904963
C        -1.55780978036033   -2.56756072122732   -1.83752171587891
C        -2.32194723363919   -2.57125147504864   -0.61176502323607
C        -3.15781237241937   -1.41319677668959   -0.61291920387704
C        -0.97972929492697   -0.71564302652705   -3.33006147375187
C        -0.98000530302416    0.72529221130354   -3.32768582315728
C         0.39096998543962    1.17031770639882   -3.31957274915443
C         1.23871182527662    0.00538152741941   -3.31636732144810
C         0.38907597463081   -1.15808484159040   -3.32262280668396
Cl       -1.61024106270667    0.00249895699082    5.36790486868796
Cl       -4.10240779705405    0.00249911268861    3.82020455334499
Cl        0.57825520700266   -5.36657517846825   -0.93631072561542
63
 energy: -142.117769044363 gnorm: 0.013730426090 xtb: 6.4.1 (a3dbbd7)
C        -1.30906239076971    0.00818278227851    3.58491951920392
C        -0.38590227562264   -1.15713968181847    3.29362265992357
C         0.97035957261007   -0.71296181509067    3.27387776543202
C         0.97124072625697    0.72211827267796    3.27076098943389
C        -0.38404446942412    1.17176254504604    3.29033091546626
C         2.32914511223709   -2.56595703232601    0.57312089451937
C         3.18232554883304   -1.40679772559425    0.57875834697983
C         2.94196561114832   -0.68847451979085    1.80327091035444
C         1.94126000386484   -1.41259550926859    2.55282050970591
C         1.57333035676627   -2.57077384521196    1.80826323453346
C         3.18374050360842    1.42109084274597    0.58181064433723
C         2.33462904882246    2.58498311092306    0.58251580083298
C         1.57386995433205    2.57865906129277    1.80654081880234
C         1.94579417029487    1.41857304222712    2.55775305438426
C         2.94362602012118    0.69719644634954    1.80569847868575
C        -0.36385662222457    3.43928630923749    0.58066577476345
C        -1.73298532987507    2.99555198034968    0.57675448306989
C        -1.97899249637185    2.27886417173712    1.79701422522279
C        -0.73815133703431    2.27886674958321    2.56763986983348
C         0.24659617437356    2.99555478904268    1.80617566996243
C        -3.36703714597917    0.72211921841008    0.57646965297218
C        -3.36944072779790   -0.71296185542094    0.57864102521929
C        -2.78590334306102   -1.15714030849942    1.80310865405454
C        -2.63776357029865    0.00818282040423    2.75973946771136
C        -2.78377556007799    1.17176353528630    1.79998429195218
C        -1.72059381805094   -2.97564783176052    0.58219030194251
C        -0.37803616018801   -3.43948240505173    0.60349608204584
C         0.23622919075685   -2.97565076733959    1.79747680899140
C        -0.74473396326843   -2.26299394600800    2.57395014012342
C        -1.98173157213076   -2.26299103852952    1.80571142390935
C        -0.24246265350601   -2.99462070878102   -1.84140352890278
C         0.74360946336495   -2.27313858751730   -2.57134589000692
C         1.97056668068119   -2.27313406332682   -1.80934226386098
C         1.75340186749571   -2.99462272314695   -0.60187008823994
C         0.39438618136042   -3.64678557488694   -0.64023130237201
C         2.79953175440464   -1.15358324526484   -1.82223690386509
C         2.41857625124901    0.00960856850214   -2.58288347131167
C         2.79796526728816    1.17541969509354   -1.82595373772296
C         3.41316277770423    0.72975966505913   -0.60069047831702
C         3.41383991529834   -0.71101764449493   -0.60285192517102
C         1.97891089774355    2.29661894317768   -1.82377580072654
C         0.75284802528288    2.29662429998223   -2.58522438580931
C        -0.23990682329622    3.01299248292534   -1.82966698629122
C         0.36892725001044    3.45285933990471   -0.59923687816408
C         1.74174743106815    3.01299221472481   -0.59895693362520
C        -1.56177280948667    2.58498415419234   -1.83735205191555
C        -1.93755604133407    1.42109345693906   -2.59878289991940
C        -2.92816814035555    0.69719642737144   -1.84099471244685
C        -3.15994196988335    1.41857017188543   -0.61317475706673
C        -2.32170253150065    2.57865601551507   -0.61281128100280
C        -2.92525643140916   -0.68847357528641   -1.84058265458893
C        -1.93419355652149   -1.40679993251345   -2.59886824946488
C        -1.55092198405343   -2.56595807760721   -1.83660167417504
C        -2.32300825450648   -2.57077008662578   -0.61156429560281
C        -3.15351156410934   -1.41259165110168   -0.61129734596744
C        -0.97766363912621   -0.71101850040790   -3.33020385715430
C        -0.97930052328276    0.72976071311654   -3.32863828703549
C         0.39170835304117    1.17542228345494   -3.32036118521758
C         1.23838026416431    0.00960872926932   -3.31583904176745
C         0.38768202784682   -1.15358529005683   -3.32011776601439
Cl       -1.61569010316510    0.00788207485650    5.37000562017793
Cl       -4.10189712044999    0.00788260102111    3.82597290947289
Cl        0.58842610053097   -5.47479257019514   -0.95267888730592
63
 energy: -142.118068869569 gnorm: 0.008319150050 xtb: 6.4.1 (a3dbbd7)
C        -1.30963909263826    0.00869084005587    3.58647483960262
C        -0.38595286385333   -1.15635778605816    3.29286611699672
C         0.97030350259342   -0.71206142555835    3.27376135072948
C         0.97104746753175    0.72256299890184    3.27043250245796
C        -0.38446206670519    1.17183704009467    3.29034704558525
C         2.32866855902450   -2.57002467884794    0.57131239942612
C         3.17695006885230   -1.40628742311865    0.57689949403429
C         2.93920746338102   -0.68748017875078    1.80145674304988
C         1.94004846142149   -1.41271011328122    2.55157327541684
C         1.57473363984277   -2.57232834336332    1.80915048078343
C         3.18311089898098    1.42337306720788    0.58163710424949
C         2.33462142044671    2.58784281188005    0.58268682556319
C         1.57339783972424    2.58016319118470    1.80682937510238
C         1.94530943985314    1.41997617808097    2.55761082420816
C         2.94229730056435    0.69825286932307    1.80482957916224
C        -0.36418859107185    3.44075510990596    0.58140171705159
C        -1.73324513328471    2.99718092686214    0.57747005633013
C        -1.97963573884827    2.28070180125425    1.79794727558213
C        -0.73848833147053    2.27957706177788    2.56827745080775
C         0.24610506122407    2.99703255419507    1.80684626677088
C        -3.36726148628313    0.72346401546841    0.57686221674754
C        -3.36945118207774   -0.71130284443334    0.57886625043192
C        -2.78520406496803   -1.15557346036656    1.80287690585329
C        -2.63937075842486    0.00981070363314    2.76072387986344
C        -2.78484004034947    1.17402350734559    1.80085217155396
C        -1.71720551067564   -2.97625052277675    0.57962608862845
C        -0.37569016070719   -3.43755166102452    0.59949438145396
C         0.23700983006862   -2.97650993104346    1.79310768572668
C        -0.74342281098527   -2.26109320732691    2.57078552630796
C        -1.97960356188743   -2.26061028480999    1.80309572100632
C        -0.24196970269702   -3.00413426773554   -1.84371158565842
C         0.74188461708805   -2.27471798945884   -2.56844750459592
C         1.96876842247133   -2.27451821662568   -1.80648039204585
C         1.75520626206167   -3.00413104526568   -0.60346889048877
C         0.39828483163971   -3.66903825461613   -0.64663261064651
C         2.79641827987520   -1.15274177392145   -1.82078497507650
C         2.41735666039815    0.01124977415436   -2.58123821576441
C         2.79777491316603    1.17795103225893   -1.82560733308181
C         3.41315495307914    0.73200472988146   -0.60066164114964
C         3.41103906378828   -0.70934439648117   -0.60303700551441
C         1.97935329781118    2.29998062268691   -1.82346784248564
C         0.75315670297229    2.29866264714920   -2.58501064462301
C        -0.23981736139726    3.01301098514223   -1.82851178146157
C         0.36871597036738    3.45503322112268   -0.59868417422251
C         1.74243265820557    3.01787362774426   -0.59886089850664
C        -1.56168756169961    2.58559998231980   -1.83655639878891
C        -1.93736119908671    1.42228791244309   -2.59832147028445
C        -2.92731659215572    0.69790757309238   -1.84009052497995
C        -3.16015933783362    1.42009207759090   -0.61276259487604
C        -2.32192920738469    2.57986920192883   -0.61208097416744
C        -2.92277478371380   -0.68770437034626   -1.83884542684143
C        -1.93033368848914   -1.40647523528234   -2.59481333633914
C        -1.54928155525432   -2.57005423721250   -1.83682108244755
C        -2.32464359313033   -2.57206694811370   -0.61225119521123
C        -3.15203283775849   -1.41237764299238   -0.61043246202709
C        -0.97621717633673   -0.70988365768771   -3.32783800493802
C        -0.97915696261480    0.73131045761352   -3.32853495792666
C         0.39186405247024    1.17715419311917   -3.31993155771981
C         1.23781187773289    0.01081571612577   -3.31406438472539
C         0.38791355390007   -1.15309880300818   -3.31675461811153
Cl       -1.60888949510593    0.01070210356121    5.37284000201682
Cl       -4.10765402538420    0.01128799069379    3.82128068978791
Cl        0.58775697813607   -5.49338282463310   -0.95199633459464
63
 energy: -142.118146558807 gnorm: 0.005162872250 xtb: 6.4.1 (a3dbbd7)
C        -1.30914756379493    0.00948946767248    3.58505349384424
C        -0.38574297234290   -1.15630187709876    3.29287222848265
C         0.97055282714801   -0.71126402384274    3.27439648630961
C         0.97119411772723    0.72330036083124    3.27085216996296
C        -0.38428037910541    1.17349348828948    3.29110986289011
C         2.32843554251503   -2.57252146063962    0.57062567418276
C         3.17353240801814   -1.40617038514463    0.57580619908836
C         2.93744289087385   -0.68709597035557    1.80058104806565
C         1.93963726416650   -1.41267929081872    2.55169945061022
C         1.57636116242500   -2.57322534172720    1.81064569462288
C         3.18299831499802    1.42388146296719    0.58163371475268
C         2.33441535181844    2.58791485839883    0.58267427749705
C         1.57344056353872    2.58078160437267    1.80699014445034
C         1.94539613717806    1.42076882721622    2.55785171632986
C         2.94182106918067    0.69850496320213    1.80467476600829
C        -0.36422565308402    3.44133510407046    0.58133160662336
C        -1.73327250089494    2.99788054910697    0.57746623072552
C        -1.97948198972494    2.28069089301077    1.79769444719526
C        -0.73845026213472    2.28068606747581    2.56853043725474
C         0.24615338107878    2.99791314802745    1.80681008211236
C        -3.36743463065122    0.72336580995806    0.57669160280179
C        -3.37004586538551   -0.71121486813280    0.57863766508308
C        -2.78529271849137   -1.15622120775416    1.80247660816078
C        -2.63790666074466    0.00935326779937    2.75992451913340
C        -2.78460608265343    1.17381012666373    1.80065549645064
C        -1.71487449160884   -2.97707448007617    0.57708975127441
C        -0.37320054388761   -3.43485768073899    0.59566317296470
C         0.23821939966345   -2.97716953606484    1.79007669903318
C        -0.74205106918119   -2.25963692523865    2.56811242909795
C        -1.97773825743051   -2.25957882447211    1.80065189533087
C        -0.24165540772566   -3.01055682934019   -1.84490799250396
C         0.74060326939936   -2.27519185950207   -2.56647397394794
C         1.96745520893304   -2.27512810147806   -1.80449854562894
C         1.75613439777195   -3.01056566871556   -0.60419017199357
C         0.40062583428235   -3.68054043639856   -0.65035362016794
C         2.79397073937729   -1.15229319402730   -1.81984630943954
C         2.41633793460689    0.01197501688234   -2.58032687911373
C         2.79785637178702    1.17889570501338   -1.82565210241244
C         3.41336050255920    0.73286051935996   -0.60070434928584
C         3.40943333641590   -0.70878488815278   -0.60302164105732
C         1.97962731781676    2.30114168791664   -1.82390868271224
C         0.75305288883352    2.30048100867587   -2.58535549031073
C        -0.23994499163057    3.01567811324278   -1.82915723859949
C         0.36873603567198    3.45609282314101   -0.59878840605339
C         1.74216136172861    3.01779881846350   -0.59888027782822
C        -1.56185950713998    2.58747257119562   -1.83684040348208
C        -1.93712198881548    1.42358762132511   -2.59799240794466
C        -2.92673451561966    0.69843203845622   -1.83979535652756
C        -3.16019937188633    1.42074783469682   -0.61269158619097
C        -2.32199236787051    2.58060061241536   -0.61202657728385
C        -2.92097447200465   -0.68714850524647   -1.83781344106993
C        -1.92771798612324   -1.40617120890501   -2.59241931854363
C        -1.54840429161525   -2.57247085979747   -1.83712271848807
C        -2.32650476121073   -2.57313293511059   -0.61325032327462
C        -3.15184865497310   -1.41266051311616   -0.61039228608389
C        -0.97555263188123   -0.70886103167774   -3.32646405409131
C        -0.97930178856007    0.73275842738329   -3.32867239148286
C         0.39158933994514    1.17860095705046   -3.31998667236189
C         1.23712961569551    0.01177767385157   -3.31287848642979
C         0.38800587283254   -1.15247117876148   -3.31428899173506
Cl       -1.62449713411268    0.01248914834951    5.36813945206749
Cl       -4.09639647214467    0.01199733004166    3.83307933146608
Cl        0.58559510084236   -5.49734182253019   -0.94827623483993
63
 energy: -142.118204036293 gnorm: 0.003201721953 xtb: 6.4.1 (a3dbbd7)
C        -1.30922979360743    0.00949799894596    3.58703979852458
C        -0.38560942329420   -1.15601656029207    3.29312411568489
C         0.97098668715465   -0.71105115133368    3.27479287128767
C         0.97143628224714    0.72326705441919    3.27100955904232
C        -0.38419057549589    1.17342656843689    3.29132864203087
C         2.32827839930856   -2.57291986566888    0.57072800442332
C         3.17262952991299   -1.40623957971909    0.57545722540639
C         2.93713535891453   -0.68714377549220    1.80044918965009
C         1.94001142600595   -1.41269199866842    2.55228695513309
C         1.57733012217087   -2.57331474091872    1.81184277857415
C         3.18303988365533    1.42360137266060    0.58172570190001
C         2.33418850396111    2.58712789784292    0.58276999772343
C         1.57342540777961    2.58048460594702    1.80714096135345
C         1.94564303845073    1.42068167680687    2.55804668956008
C         2.94209798252163    0.69831201864007    1.80488537416527
C        -0.36435111745948    3.44083011890724    0.58138102550491
C        -1.73335503844734    2.99733690923912    0.57756639313605
C        -1.97942540076998    2.27950182926158    1.79760077737666
C        -0.73858059102322    2.28034695886246    2.56871038005987
C         0.24605255980455    2.99748347717773    1.80685056262829
C        -3.36729134919261    0.72269680975439    0.57626583282015
C        -3.37046377123150   -0.71153273222723    0.57825567091847
C        -2.78550685075837   -1.15647081226472    1.80239481944492
C        -2.63930797050890    0.00852762185490    2.76104959924528
C        -2.78401944130615    1.17219443999138    1.80030795489418
C        -1.71407287058734   -2.97691129622212    0.57607545165155
C        -0.37192258089365   -3.43210143706523    0.59380295629476
C         0.23881965953490   -2.97684316165531    1.78907310527640
C        -0.74154517515703   -2.25848276916472    2.56714637411466
C        -1.97695858841073   -2.25876383536648    1.79981813078052
C        -0.24169245800268   -3.01239347076927   -1.84469295676437
C         0.73992889283202   -2.27478324274080   -2.56543685382123
C         1.96678264671275   -2.27486122520154   -1.80346676253982
C         1.75599370963422   -3.01240351361815   -0.60397212578254
C         0.40110307342313   -3.68294074431850   -0.65103151357386
C         2.79293946739232   -1.15211547268497   -1.81946807844557
C         2.41591407111478    0.01205965076753   -2.58001439403070
C         2.79798567536845    1.17888015929233   -1.82567954948617
C         3.41358757813414    0.73292456072797   -0.60070136243430
C         3.40923801045786   -0.70880921982980   -0.60291534355475
C         1.97956776607011    2.30095561815541   -1.82417854389678
C         0.75279838093689    2.30118779110826   -2.58565862310268
C        -0.24014099203912    3.01744565204847   -1.82979936367317
C         0.36862037078370    3.45594965333506   -0.59873775388126
C         1.74162019617194    3.01621352194228   -0.59875136871344
C        -1.56206607415669    2.58843868464426   -1.83716276844880
C        -1.93704468368928    1.42411283806433   -2.59794410874378
C        -2.92669767965566    0.69851548521420   -1.84003754313894
C        -3.16012919869006    1.42060843206776   -0.61287423058061
C        -2.32201189420639    2.58052575758782   -0.61207259394065
C        -2.92044749133908   -0.68701426979823   -1.83765408404611
C        -1.92686990992171   -1.40608566362391   -2.59181586772288
C        -1.54827853716555   -2.57282611804884   -1.83704267083042
C        -2.32781607280326   -2.57337777785495   -0.61369207159853
C        -3.15239061813623   -1.41289691365735   -0.61070550923345
C        -0.97559213274709   -0.70847374576626   -3.32620528545539
C        -0.97951742292128    0.73336145603009   -3.32891281477073
C         0.39126784116217    1.17915501702748   -3.32018977532531
C         1.23675632594908    0.01214962808986   -3.31238159739289
C         0.38800000911116   -1.15206613896658   -3.31320088885632
Cl       -1.60953464416306    0.01263675841764    5.37274373717459
Cl       -4.10700729729337    0.01146019123696    3.82159931139913
Cl        0.58270636279641   -5.49213997990868   -0.94335212040665
63
 energy: -142.118227219594 gnorm: 0.001886883561 xtb: 6.4.1 (a3dbbd7)
C        -1.30929405241983    0.00861450119424    3.58645874395971
C        -0.38543161897077   -1.15668042755183    3.29334423828788
C         0.97124645965937   -0.71173765663225    3.27484153075570
C         0.97152524174199    0.72257379570968    3.27097267503047
C        -0.38416260548197    1.17238632464133    3.29078678127788
C         2.32843251503982   -2.57159661765716    0.57087545560890
C         3.17414987172759   -1.40625673605645    0.57573639461270
C         2.93805439767773   -0.68737649992560    1.80080038163295
C         1.94066339431117   -1.41295051082528    2.55250828305794
C         1.57717777346563   -2.57299079307011    1.81148456285340
C         3.18302809311267    1.42333067821227    0.58172455396159
C         2.33437008745948    2.58711707505733    0.58278058572423
C         1.57344395214120    2.57999231854327    1.80706493881207
C         1.94570492923520    1.42013502393219    2.55804182944205
C         2.94251792628915    0.69810210149168    1.80504524992500
C        -0.36425006616649    3.44036930684551    0.58128024188447
C        -1.73327701325626    2.99689732723987    0.57737829191426
C        -1.97951827870863    2.27952082972224    1.79756842241762
C        -0.73848216647632    2.27949228773532    2.56829721520525
C         0.24610942137729    2.99688499954346    1.80671562064060
C        -3.36734452809929    0.72265667641079    0.57627015820760
C        -3.37063364011631   -0.71165631632500    0.57830741884523
C        -2.78573755925168   -1.15658639483046    1.80256672914218
C        -2.63905576082533    0.00871383611860    2.76061124626217
C        -2.78427680734910    1.17251364806744    1.80028786083616
C        -1.71467120835244   -2.97633682926030    0.57664214006760
C        -0.37242888923057   -3.43169470098273    0.59452644440434
C         0.23864731534816   -2.97636236422505    1.78973964693550
C        -0.74185356397426   -2.25906619529792    2.56780117547390
C        -1.97741251716905   -2.25903330796772    1.80045430534973
C        -0.24182269318842   -3.00959088116937   -1.84403560878067
C         0.74033245834288   -2.27421245259811   -2.56600390690061
C         1.96723781545651   -2.27421785987590   -1.80404598584002
C         1.75549541075120   -3.00958120986550   -0.60361494988478
C         0.40031766763827   -3.67932330957119   -0.64976352755010
C         2.79397893323153   -1.15219795721321   -1.81991075954377
C         2.41643096564580    0.01176690648906   -2.58040769768810
C         2.79808421855291    1.17847163086087   -1.82566438606325
C         3.41364953063803    0.73266862249583   -0.60071922640457
C         3.41019336108471   -0.70896615378100   -0.60296335635129
C         1.97938836263299    2.30033199093091   -1.82404378033320
C         0.75285148864629    2.30037842836900   -2.58577881149396
C        -0.24005351063900    3.01618427824289   -1.82966746874210
C         0.36865658369916    3.45535020661291   -0.59880784375409
C         1.74174384977039    3.01604833642479   -0.59879085727386
C        -1.56195525595294    2.58733261727008   -1.83713362935535
C        -1.93715646257768    1.42338561424361   -2.59822117231320
C        -2.92706095752919    0.69814674537516   -1.84031808232580
C        -3.16015408548363    1.42020882474490   -0.61301908544019
C        -2.32200321166672    2.58005573787824   -0.61224786078420
C        -2.92127090513269   -0.68734066976130   -1.83814232677926
C        -1.92785306124522   -1.40623994665025   -2.59283960071545
C        -1.54857882487639   -2.57158320315499   -1.83691935688443
C        -2.32755380814264   -2.57294654162220   -0.61352314222267
C        -3.15291540287307   -1.41289890594472   -0.61084979944437
C        -0.97595082540649   -0.70894579507763   -3.32695095823924
C        -0.97949300562167    0.73271429368733   -3.32910160974939
C         0.39136319914383    1.17850947832427   -3.32039503358564
C         1.23709922056458    0.01176029814351   -3.31285294576038
C         0.38804925781355   -1.15221207287387   -3.31412779248801
Cl       -1.61233603779128    0.01147961169062    5.37161847497399
Cl       -4.10482015639460    0.01123116629099    3.82365825603228