62
 energy: -137.473296102432 gnorm: 0.179718498255 xtb: 6.4.1 (a3dbbd7)
C        -1.23626340000000    0.00000000000000    3.32997640000000
C        -0.38202640000000   -1.17575640000000    3.32997640000000
C         1.00015810000000   -0.72665740000000    3.32997640000000
C         1.00015810000000    0.72665740000000    3.32997640000000
C        -0.38202640000000    1.17575640000000    3.32997640000000
C         2.34433560000000   -2.60145750000000    0.59464210000000
C         3.19857260000000   -1.42570110000000    0.59464210000000
C         2.96246730000000   -0.69904370000000    1.83090550000000
C         1.96230920000000   -1.42570110000000    2.59495830000000
C         1.58028280000000   -2.60145750000000    1.83090550000000
C         3.19857260000000    1.42570110000000    0.59464210000000
C         2.34433560000000    2.60145750000000    0.59464210000000
C         1.58028280000000    2.60145750000000    1.83090550000000
C         1.96230920000000    1.42570110000000    2.59495830000000
C         2.96246730000000    0.69904370000000    1.83090550000000
C        -0.36750900000000    3.48258920000000    0.59464210000000
C        -1.74969350000000    3.03349030000000    0.59464210000000
C        -1.98579880000000    2.30683290000000    1.83090550000000
C        -0.74953540000000    2.30683290000000    2.59495830000000
C         0.25062270000000    3.03349030000000    1.83090550000000
C        -3.42570570000000    0.72665740000000    0.59464210000000
C        -3.42570570000000   -0.72665740000000    0.59464210000000
C        -2.80757400000000   -1.17575640000000    1.83090550000000
C        -2.42554760000000    0.00000000000000    2.59495830000000
C        -2.80757400000000    1.17575640000000    1.83090550000000
C        -1.74969350000000   -3.03349030000000    0.59464210000000
C        -0.36750900000000   -3.48258920000000    0.59464210000000
C         0.25062270000000   -3.03349030000000    1.83090550000000
C        -0.74953540000000   -2.30683290000000    2.59495830000000
C        -1.98579880000000   -2.30683290000000    1.83090550000000
C        -0.25062270000000   -3.03349030000000   -1.83090550000000
C         0.74953540000000   -2.30683290000000   -2.59495830000000
C         1.98579880000000   -2.30683290000000   -1.83090550000000
C         1.74969350000000   -3.03349030000000   -0.59464210000000
C         0.36750900000000   -3.48258920000000   -0.59464210000000
C         2.80757400000000   -1.17575640000000   -1.83090550000000
C         2.42554760000000    0.00000000000000   -2.59495830000000
C         2.80757400000000    1.17575640000000   -1.83090550000000
C         3.42570570000000    0.72665740000000   -0.59464210000000
C         3.42570570000000   -0.72665740000000   -0.59464210000000
C         1.98579880000000    2.30683290000000   -1.83090550000000
C         0.74953540000000    2.30683290000000   -2.59495830000000
C        -0.25062270000000    3.03349030000000   -1.83090550000000
C         0.36750900000000    3.48258920000000   -0.59464210000000
C         1.74969350000000    3.03349030000000   -0.59464210000000
C        -1.58028280000000    2.60145750000000   -1.83090550000000
C        -1.96230920000000    1.42570110000000   -2.59495830000000
C        -2.96246730000000    0.69904370000000   -1.83090550000000
C        -3.19857260000000    1.42570110000000   -0.59464210000000
C        -2.34433560000000    2.60145750000000   -0.59464210000000
C        -2.96246730000000   -0.69904370000000   -1.83090550000000
C        -1.96230920000000   -1.42570110000000   -2.59495830000000
C        -1.58028280000000   -2.60145750000000   -1.83090550000000
C        -2.34433560000000   -2.60145750000000   -0.59464210000000
C        -3.19857260000000   -1.42570110000000   -0.59464210000000
C        -1.00015810000000   -0.72665740000000   -3.32997640000000
C        -1.00015810000000    0.72665740000000   -3.32997640000000
C         0.38202640000000    1.17575640000000   -3.32997640000000
C         1.23626340000000    0.00000000000000   -3.32997640000000
C         0.38202640000000   -1.17575640000000   -3.32997640000000
Cl       -1.84886636902500    0.00000000000000    5.03315507598844
Cl        0.56429162305796   -5.25346396123993   -0.91304307246373
62
 energy: -137.514534713401 gnorm: 0.106800725042 xtb: 6.4.1 (a3dbbd7)
C        -1.25221618960816    0.00275406644579    3.35802075868061
C        -0.36767795795229   -1.18009412858182    3.33191479722598
C         0.99611908967984   -0.72379456152976    3.31417241465500
C         0.99946061891675    0.72493328730416    3.31441049772047
C        -0.36480597261601    1.18390667999084    3.32802089037535
C         2.33606921840713   -2.57565065719361    0.58843787561243
C         3.19278137929278   -1.41382954777007    0.58997273040991
C         2.95179246089732   -0.69459506964948    1.81859813859259
C         1.95726341219106   -1.42439377439486    2.57918776894748
C         1.57692413269663   -2.58505441692696    1.82219635859197
C         3.18651758657687    1.41963806707630    0.58872713195328
C         2.33647313124689    2.58857553946018    0.58925787348854
C         1.57973779155056    2.58897477293756    1.82214865507112
C         1.96079035547780    1.42378127848147    2.58281135913484
C         2.95141575964573    0.69635445766337    1.81926434427609
C        -0.36165460912864    3.46349963784129    0.59257884729817
C        -1.73774014950542    3.01792106114803    0.59149162385996
C        -1.97243773583989    2.29604639741137    1.81735673393257
C        -0.73477918398239    2.29477037392224    2.58117828995388
C         0.25597229691034    3.02264942740474    1.82315749762708
C        -3.42016967182112    0.72568841187276    0.57880798373841
C        -3.42220594463458   -0.72013581215972    0.58281096312862
C        -2.80002400508190   -1.16459591450949    1.81068797941424
C        -2.43496245968666    0.00281825021002    2.54772083734235
C        -2.79625667644554    1.17080418537548    1.80416122008140
C        -1.73664818691314   -3.01628936664589    0.60695964345414
C        -0.37875119847604   -3.51056737266117    0.62676328874821
C         0.24444824957843   -3.02196124905325    1.82484433514641
C        -0.74437099887888   -2.29348735036678    2.59065579282164
C        -1.97990808503587   -2.29379709784189    1.83181188636023
C        -0.25355033255310   -2.99139163307932   -1.82338479399719
C         0.74019497570855   -2.28278365410630   -2.57907064367778
C         1.97385003956783   -2.28167387601917   -1.82051656862052
C         1.74872407254207   -2.99068130840536   -0.59449856308761
C         0.37599621316122   -3.54001133885194   -0.60117431560960
C         2.80086673871057   -1.16135851612602   -1.82417222386996
C         2.41481733606061    0.00360638276595   -2.58527643043332
C         2.79601070340868    1.17253922659454   -1.82531466998810
C         3.41351160269094    0.72607365262801   -0.59598399657663
C         3.41575862880368   -0.71838474214464   -0.59631561616758
C         1.97674204097999    2.29657968814406   -1.82386215815474
C         0.74453092469162    2.29653281864858   -2.58290027982093
C        -0.24805775712339    3.01993053896463   -1.82251184948553
C         0.36781541768001    3.46472955968271   -0.59334667350008
C         1.74314497040694    3.01849874292832   -0.59406233900392
C        -1.57420782380955    2.58945124563872   -1.82251082360736
C        -1.95411683255784    1.41997705200500   -2.58400578925894
C        -2.95087135083493    0.69624260123100   -1.82628859006683
C        -3.18850576682800    1.42183983927269   -0.59963145426620
C        -2.33283526869294    2.59072334031668   -0.59514463072377
C        -2.95035633376713   -0.69498850488457   -1.82466446915981
C        -1.95762292695557   -1.41601790112110   -2.58714629174382
C        -1.57259514109634   -2.57482071063926   -1.81794775437477
C        -2.32952165743888   -2.58291195729602   -0.58345956891782
C        -3.18604309660739   -1.41916273104737   -0.59502393688084
C        -0.99876481302730   -0.71985746218069   -3.31915396646271
C        -0.99779810852314    0.72535705559557   -3.31693542403392
C         0.37854502805317    1.17186806247608   -3.31572157742789
C         1.22831755425066    0.00346206684140   -3.31704501005679
C         0.37562213909379   -1.16308308618879   -3.32075822339128
Cl       -1.88948143239544    0.00784360266674    5.10233097750258
Cl        0.58414905297190   -5.34646159081090   -0.95251885925465
62
 energy: -137.534500310733 gnorm: 0.058449384028 xtb: 6.4.1 (a3dbbd7)
C        -1.29034243233019    0.00649366679215    3.47698215363163
C        -0.35348016450455   -1.17224542176518    3.29403721891562
C         0.98478907137969   -0.71874351629581    3.27891968301289
C         0.99111074715468    0.72199526755803    3.27766903519030
C        -0.35012075265228    1.18406767202644    3.28658830179360
C         2.32783245422105   -2.55319419828691    0.58207625963661
C         3.18443975878275   -1.40119364335375    0.58488392288573
C         2.94420811032847   -0.68964705905907    1.80542545449412
C         1.95331440159772   -1.42738510730505    2.55791554469008
C         1.58032955347418   -2.57288609970217    1.81685194351126
C         3.17522394551230    1.41506407104188    0.58334874508554
C         2.32837689904994    2.57660794844111    0.58462687150120
C         1.57681381094766    2.57838399915646    1.81277574410023
C         1.95849534170401    1.42498475334059    2.56577464424766
C         2.94182137893132    0.69472323027648    1.80736944894406
C        -0.35986005538186    3.44784450840031    0.58806069632130
C        -1.72946415654795    3.00285259816218    0.58794947209795
C        -1.96772270539090    2.28985906707842    1.80493851535156
C        -0.72522767094916    2.28079947433514    2.55360379329893
C         0.25637965686938    3.01340954541759    1.81003114115125
C        -3.41273452062614    0.72531685654236    0.56983839566443
C        -3.41243904378151   -0.71095403964388    0.57626543698602
C        -2.78886581731664   -1.14497854039451    1.80286429963613
C        -2.44450864512541    0.00575896987927    2.52787036561907
C        -2.78087623869332    1.16059930400233    1.78971128994979
C        -1.72336408928556   -2.98262071832749    0.60957399909061
C        -0.38363854803406   -3.47372769487255    0.63984642597613
C         0.23777259695910   -2.99584994564039    1.80059943472688
C        -0.74188667415893   -2.26804156810088    2.56418981734397
C        -1.97989335940315   -2.27977242478855    1.83015899924289
C        -0.25315810132424   -2.96436709988191   -1.82621933644894
C         0.73243780403190   -2.26544491954304   -2.55931064665248
C         1.96172964739004   -2.26419582229157   -1.80047805173833
C         1.75262885559288   -2.96171711808167   -0.59271533050884
C         0.39503469281074   -3.64691731681390   -0.62997036705961
C         2.79540567280412   -1.14914298650275   -1.81628047977042
C         2.40668100070489    0.00645740102522   -2.57373193154026
C         2.78572896215495    1.17020610722843   -1.81884446248281
C         3.40283371929476    0.72605130436995   -0.59728049398885
C         3.40702781406194   -0.70965810547910   -0.59933569936813
C         1.96868723143046    2.28830541879492   -1.81508737000233
C         0.74109193013991    2.28872671629550   -2.57021008994875
C        -0.24403940932977    3.00841007137470   -1.81428771408699
C         0.36727461722337    3.45062000845991   -0.59357284642607
C         1.73618799124164    3.00592373251373   -0.59262943971783
C        -1.56882960892351    2.57823424259231   -1.81312438005121
C        -1.94437048969907    1.41507522043774   -2.57309756080574
C        -2.93825259227853    0.69457347941497   -1.82170330661867
C        -3.17719268510877    1.41595376068134   -0.60152490068167
C        -2.32279639040506    2.58112163477236   -0.59780430914074
C        -2.93697259660100   -0.69043135811855   -1.82062914313066
C        -1.94754759416983   -1.40593873206400   -2.57851571835870
C        -1.56023711746703   -2.55504210267665   -1.81278320911047
C        -2.31729972094033   -2.56347453311830   -0.57999290572085
C        -3.16987594536261   -1.40854568398937   -0.59514068740693
C        -0.99184859775255   -0.71211112786432   -3.30764545700801
C        -0.99195792218208    0.72511191378797   -3.30307911563163
C         0.37879820832113    1.16923536745780   -3.30198074328543
C         1.22268549795838    0.00723702784527   -3.30330264411841
C         0.37302596699704   -1.15151303301196   -3.30856376367669
Cl       -1.94664806169832    0.01403676265596    5.25892018771614
Cl        0.60270962238685   -5.48776514642549   -0.99071313380242
62
 energy: -137.538204694630 gnorm: 0.031356154486 xtb: 6.4.1 (a3dbbd7)
C        -1.29408732355852    0.01026825613050    3.49023385166214
C        -0.36783005635960   -1.16873469243110    3.31442292937760
C         0.97632186179929   -0.71652290987826    3.28228716457917
C         0.98366269014817    0.72483653589471    3.28310878105002
C        -0.36378709611188    1.18629598276080    3.31114114765018
C         2.32991234734377   -2.56607890221286    0.57823457366361
C         3.17940678482925   -1.40240752871296    0.57978036861517
C         2.94194460239458   -0.68863505647592    1.80230011323284
C         1.94568548233988   -1.42259351924725    2.55473380604351
C         1.58012955583502   -2.57403953356064    1.81291831808318
C         3.17926073328862    1.41826523392417    0.58080475763374
C         2.33138168585808    2.58124041682149    0.58282755756592
C         1.57619678242298    2.57922163530740    1.81174776872742
C         1.95375383604638    1.42396063737516    2.56590657466235
C         2.94148568458837    0.69637090215550    1.80538181028683
C        -0.35933766348401    3.44938123202759    0.58751239978991
C        -1.72995858369394    3.00562640102884    0.58810407504382
C        -1.97055478612976    2.29468603995624    1.81018530686624
C        -0.73202229022394    2.28420154571348    2.56668592616859
C         0.25381371101726    3.00889277687911    1.81065373894061
C        -3.40967608381761    0.72956199408902    0.57392590309252
C        -3.40758964615145   -0.70843688241984    0.58040495482970
C        -2.78675943907678   -1.14291788245991    1.81165417868483
C        -2.44182935379610    0.00968099154802    2.54885225317699
C        -2.78308088645221    1.16523222474394    1.80063611777952
C        -1.71943779956388   -2.98979997109423    0.60572272893281
C        -0.37482489807208   -3.48485260155318    0.62610620099530
C         0.23739929089861   -2.99490387792243    1.79392516503821
C        -0.74553893081204   -2.26710175713303    2.57011408048402
C        -1.97840327167708   -2.28114463056660    1.83006298392604
C        -0.24818234502772   -2.99150712903234   -1.82973265550524
C         0.73340840490613   -2.27283154615167   -2.56092355978543
C         1.96252308930100   -2.27162605339717   -1.80229267781237
C         1.75496046256717   -2.99040891922545   -0.59856946906313
C         0.39868626657282   -3.65913945632465   -0.63538948618843
C         2.79312203161690   -1.15071144405189   -1.81950395793703
C         2.40833649111353    0.00811953456390   -2.57800924041795
C         2.79035475764167    1.17432649823999   -1.82458791532276
C         3.40899683422895    0.72930136622159   -0.60182610349858
C         3.40874354367619   -0.70916035063977   -0.60343139526291
C         1.97228629206560    2.29396734265768   -1.82044506772602
C         0.74299734651409    2.29445986302483   -2.57579699651376
C        -0.24313045399181    3.01458174943731   -1.81835603031169
C         0.36868313064154    3.45572573488015   -0.59569785149836
C         1.73968074972334    3.01201397361485   -0.59584016265613
C        -1.56910075075761    2.58404580464566   -1.81682875397805
C        -1.94613231817060    1.41982424527868   -2.57809819228527
C        -2.93994844499847    0.69793907148451   -1.82438844974717
C        -3.17728572075456    1.41980734356399   -0.60184573429088
C        -2.32334845371079    2.58667090591134   -0.59959199436608
C        -2.93565489010175   -0.68941541351543   -1.82023135237976
C        -1.94219389138334   -1.40770814589699   -2.57425665738491
C        -1.55607982155197   -2.56621053240606   -1.81345334907907
C        -2.31331723770420   -2.56642843747751   -0.57987136612521
C        -3.16545777517640   -1.40662187226056   -0.59256296514958
C        -0.99073670022570   -0.71159710448062   -3.30796552461313
C        -0.99268273264228    0.72838748277526   -3.30828136284868
C         0.37947435539829    1.17319654271976   -3.30750849295977
C         1.22333197117598    0.00893124579004   -3.30676415086714
C         0.37462900717329   -1.15289496397483   -3.30681836522245
Cl       -1.95455306749966    0.02047655786167    5.25751669549715
Cl        0.60737818358395   -5.48853091576396   -0.99891094775832
62
 energy: -137.539627137782 gnorm: 0.018632859506 xtb: 6.4.1 (a3dbbd7)
C        -1.30010444343153    0.01187973545389    3.51413324727815
C        -0.37751640459640   -1.16499170584326    3.32086366001186
C         0.96856857758352   -0.71545812708663    3.27809441281091
C         0.97735292347548    0.72590145555054    3.28052042833568
C        -0.37330687527220    1.18501181747407    3.31970733698674
C         2.33120318608109   -2.57302380263237    0.57534800916612
C         3.17672879794457   -1.40321263189153    0.57618929300188
C         2.93988030816410   -0.68801044156495    1.79874007584500
C         1.94099271389186   -1.42038939098080    2.55093491319637
C         1.58255412367911   -2.57462236702006    1.81092377856891
C         3.18176547495128    1.42072314702100    0.57942302095865
C         2.33321465860346    2.58421155244548    0.58132493805861
C         1.57522222453242    2.57954096219581    1.81040324481167
C         1.94996218942159    1.42284238197856    2.56405448955601
C         2.94064358588236    0.69694823356147    1.80314334300346
C        -0.35989480814128    3.44833942496227    0.58668855485631
C        -1.73145320901244    3.00739741966306    0.58784320072049
C        -1.97423729707348    2.29844042124774    1.81297062604561
C        -0.73651685195891    2.28409745214589    2.57122945851479
C         0.25163713416773    3.00466939013346    1.80972986734357
C        -3.40624892382558    0.73211491752904    0.57738140750982
C        -3.40201211948877   -0.70583796839036    0.58381906024514
C        -2.78331775027893   -1.14011355209539    1.81901488099098
C        -2.43624590934684    0.01088282876988    2.56274250537163
C        -2.78312281852127    1.16672674241598    1.80905658182190
C        -1.71795485684925   -2.99306585327048    0.60101914083583
C        -0.36697132414018   -3.47777183987178    0.61390507061906
C         0.23794133047252   -2.99065430082287    1.78413688672257
C        -0.74784120805799   -2.26327030927884    2.56703161680112
C        -1.97769193166308   -2.28257125984754    1.82868780788324
C        -0.24468072297623   -3.00981551899097   -1.83120053219899
C         0.73354489754177   -2.27713581524145   -2.55910235515828
C         1.96238371841151   -2.27629394898090   -1.79991965411700
C         1.75629803585154   -3.01026408632445   -0.60119148827507
C         0.40281184999923   -3.67674820706678   -0.64183975306030
C         2.79120560643594   -1.15193921355856   -1.81975803814782
C         2.40889482359468    0.00839300590481   -2.57809750229999
C         2.79399645050346    1.17667698804411   -1.82721386336251
C         3.41390585878413    0.73160911668788   -0.60399279017116
C         3.41104779840070   -0.70876858966307   -0.60539425933685
C         1.97502228146516    2.29724278073146   -1.82350834019848
C         0.74442748145296    2.29795759920620   -2.57897500221413
C        -0.24231041508294    3.01841611289067   -1.82081630175859
C         0.36922446944576    3.45853920003074   -0.59739922203254
C         1.74175536641416    3.01569088483709   -0.59803852041881
C        -1.56979860396403    2.58810687989984   -1.81869025207712
C        -1.94727955562862    1.42303670479779   -2.58032489120538
C        -2.94068295684067    0.70023521314273   -1.82471808695560
C        -3.17738638334894    1.42170195717790   -0.60111238378399
C        -2.32413431927255    2.59063000511705   -0.60113623428886
C        -2.93331409276563   -0.68855052014912   -1.81802457634394
C        -1.93742566615766   -1.40844608386427   -2.57008184572953
C        -1.55198080423848   -2.57213702882952   -1.81334002126249
C        -2.31161993728636   -2.56771539817788   -0.58003556865780
C        -3.16267078845637   -1.40385559007900   -0.58994672018783
C        -0.98948165287032   -0.71099365031788   -3.30665055808966
C        -0.99307548763484    0.73080162081179   -3.31024440871186
C         0.37997815724536    1.17539747355086   -3.31022969557207
C         1.22322338402931    0.00949622515717   -3.30622827333644
C         0.37586946493598   -1.15366159216200   -3.30309670139195
Cl       -1.96430535528022    0.02612700462351    5.26473281339756
Cl        0.60875185413219   -5.49393182239699   -1.00337382739988
62
 energy: -137.540140099846 gnorm: 0.011368140892 xtb: 6.4.1 (a3dbbd7)
C        -1.30346027002742    0.01166820172790    3.52972359696813
C        -0.38058423589828   -1.16287668182381    3.31761874867573
C         0.96551669727086   -0.71568484263609    3.27330417971008
C         0.97498321129765    0.72572825526746    3.27623459822022
C        -0.37668373708788    1.18262691517589    3.31632457940604
C         2.33246470196576   -2.57468331184306    0.57471070387294
C         3.17719608395527   -1.40392688143471    0.57538230879664
C         2.94034375523810   -0.68811068277488    1.79776666013549
C         1.94100079741330   -1.42055089311918    2.54985685145560
C         1.58562361750544   -2.57505273633016    1.81114638564289
C         3.18260859027996    1.42149763442587    0.57951266326316
C         2.33383628995370    2.58511936370641    0.58116498243028
C         1.57465917647349    2.57986823915200    1.81008168241387
C         1.94883852005964    1.42223693507026    2.56293936726667
C         2.94099785540376    0.69673339367325    1.80268911525642
C        -0.36095450904095    3.44789357529951    0.58660758198341
C        -1.73313102687298    3.00871290639318    0.58789514789396
C        -1.97695325680935    2.30033949334051    1.81380765176787
C        -0.73824716120245    2.28355128675270    2.57076078288264
C         0.25061992220933    3.00317325262801    1.80904444696007
C        -3.40470633626305    0.73229069812444    0.57923274461047
C        -3.39952172165821   -0.70507830457235    0.58522412410973
C        -2.78189721908740   -1.13891284474567    1.82265201894422
C        -2.43182557702982    0.01007382433660    2.56708916131995
C        -2.78266671913965    1.16631205470412    1.81263370662507
C        -1.71902806323679   -2.99327791921716    0.59820539115169
C        -0.36269907295882   -3.46462452322376    0.60710141345368
C         0.23878568623801   -2.98685110918084    1.77813433602424
C        -0.74914472667876   -2.26111198406273    2.56270564472215
C        -1.97856304147381   -2.28441173204469    1.82843496346724
C        -0.24365139819207   -3.01531927809100   -1.83119780648229
C         0.73369083685398   -2.27845957361375   -2.55759281911149
C         1.96252482348704   -2.27800577862134   -1.79758237126301
C         1.75658251622818   -3.01672904583519   -0.60090243482750
C         0.40441481587779   -3.68678718361523   -0.64493412723237
C         2.79082510475276   -1.15281779186477   -1.81917814587348
C         2.40908353528657    0.00777639192094   -2.57697076227849
C         2.79526737587983    1.17697311000282   -1.82713272815220
C         3.41584459855498    0.73215308399886   -0.60397800346989
C         3.41274620158500   -0.70892895220726   -0.60538230502609
C         1.97590261616164    2.29786899010692   -1.82379594410265
C         0.74489707960676    2.29879385468708   -2.57947185281896
C        -0.24211995030613    3.01948870845574   -1.82115876075521
C         0.36894269990250    3.45966620678549   -0.59769797976892
C         1.74210278109868    3.01662758508026   -0.59822618193460
C        -1.57048345383491    2.58941485388643   -1.81884278325783
C        -1.94755962284606    1.42371977453013   -2.58031376982423
C        -2.94088310623333    0.70057927027980   -1.82391598969576
C        -3.17761656951439    1.42160215412028   -0.60013173612240
C        -2.32491269024141    2.59208445697213   -0.60154305859904
C        -2.93253877488791   -0.68865803527378   -1.81670193621753
C        -1.93581868418011   -1.40894496513112   -2.56890730101345
C        -1.55054242400028   -2.57360920713699   -1.81397447799831
C        -2.31222082669295   -2.56819751750280   -0.58090477848667
C        -3.16338360273860   -1.40280859097004   -0.58922415626241
C        -0.98897076554462   -0.71103221380140   -3.30591479955224
C        -0.99308137508780    0.73141556056833   -3.31008735239071
C         0.38022948944011    1.17568711801918   -3.31048375595525
C         1.22323217803891    0.00913971339497   -3.30501621762357
C         0.37660314799322   -1.15415376126691   -3.30106656368915
Cl       -1.96656378241197    0.02835519467001    5.26512400750392
Cl        0.60547424919886   -5.49302967655671   -1.00076664362409
62
 energy: -137.540321100203 gnorm: 0.006096022048 xtb: 6.4.1 (a3dbbd7)
C        -1.30448194486322    0.01091515024145    3.53579655017307
C        -0.37999157589773   -1.16234678037865    3.31270261525369
C         0.96555065317211   -0.71636744242966    3.27089500494854
C         0.97490441034069    0.72516227674352    3.27364371318519
C        -0.37664032047528    1.18097689723625    3.31074255656561
C         2.33350169921485   -2.57418965842046    0.57509433744363
C         3.17857722754907   -1.40430206993442    0.57584666816322
C         2.94181721357212   -0.68838147453547    1.79830137491003
C         1.94274983961977   -1.42143494829471    2.55029465072290
C         1.58761889054467   -2.57533369109046    1.81194066897391
C         3.18254031683634    1.42134898582305    0.58001749472289
C         2.33370073601140    2.58490131631218    0.58162962084832
C         1.57445349312914    2.58004683578871    1.81035698568977
C         1.94904815478790    1.42208449078005    2.56271041251757
C         2.94170386057155    0.69640836765258    1.80309848364030
C        -0.36169053642312    3.44810933022226    0.58696570125663
C        -1.73409302893088    3.00922684751924    0.58821507914352
C        -1.97812165544364    2.30063736991593    1.81376490885356
C        -0.73843576787064    2.28347397568664    2.56956583697505
C         0.25039125992838    3.00327335058667    1.80891718815094
C        -3.40458437780134    0.73145645870644    0.57965761288473
C        -3.39935726927473   -0.70547546477914    0.58520654779633
C        -2.78201366915106   -1.13885966987456    1.82326170399620
C        -2.43029342922634    0.00893665484294    2.56633927214047
C        -2.78233877819642    1.16539699406493    1.81286759819000
C        -1.72028856801781   -2.99189121311381    0.59751198677206
C        -0.36120383276804   -3.45491826665099    0.60473560679695
C         0.23930220510662   -2.98462732018859    1.77635495055276
C        -0.74970944919758   -2.26101345043022    2.56079528387306
C        -1.97977068619554   -2.28579956361459    1.82906818334566
C        -0.24388852057408   -3.01403041276543   -1.83104800061382
C         0.73391104968945   -2.27839657514691   -2.55721476760734
C         1.96287937343364   -2.27811832386528   -1.79658122745800
C         1.75676269876307   -3.01589497439893   -0.59993753488618
C         0.40421717357002   -3.69014800564374   -0.64526409976489
C         2.79119834938072   -1.15315321978400   -1.81874015018311
C         2.40914046531483    0.00726434486709   -2.57619057321534
C         2.79502742976390    1.17655203617016   -1.82624855952481
C         3.41572989951465    0.73186250730375   -0.60332843314826
C         3.41336156499796   -0.70914266298193   -0.60480180217775
C         1.97567794236554    2.29741914324112   -1.82297395210788
C         0.74480774775846    2.29843773041160   -2.57881482065500
C        -0.24225877606508    3.01921529300500   -1.82060841225502
C         0.36849474030127    3.45974692975941   -0.59727083997254
C         1.74168080846352    3.01627763406691   -0.59754161499686
C        -1.57078065577278    2.58914021879317   -1.81835269578079
C        -1.94731092206620    1.42320489813250   -2.57964369332515
C        -2.94075668439014    0.70004772733439   -1.82323827017321
C        -3.17770236409520    1.42085248783246   -0.59959071117115
C        -2.32528078008301    2.59190607025273   -0.60129263897357
C        -2.93295791634801   -0.68908733937012   -1.81665547293524
C        -1.93609243584064   -1.40921183557109   -2.56946794155144
C        -1.55075453593014   -2.57323473135334   -1.81494879722837
C        -2.31316563235324   -2.56819750863703   -0.58176227483423
C        -3.16510919446389   -1.40307988902113   -0.58975408765780
C        -0.98892421823572   -0.71128276047025   -3.30583565205128
C        -0.99285538853752    0.73111462861693   -3.30939972483015
C         0.38034801118702    1.17530546204136   -3.30982735088651
C         1.22338795728462    0.00874395776482   -3.30443623423595
C         0.37685312584489   -1.15435852623908   -3.30071530707237
Cl       -1.96320032736497    0.02760767559100    5.25958235709328
Cl        0.60014019786878   -5.48824022956315   -0.99428331078115
62
 energy: -137.540371455578 gnorm: 0.002793125850 xtb: 6.4.1 (a3dbbd7)
C        -1.30452827921558    0.01047020928357    3.53634585866428
C        -0.37869089824053   -1.16272222362664    3.31063313278368
C         0.96643597877901   -0.71679604040265    3.27082669839204
C         0.97540838975619    0.72477652504493    3.27327410962670
C        -0.37569674203289    1.18061063709366    3.30837263177226