63
 energy: -142.118679103904 gnorm: 0.045106338377 xtb: 6.4.1 (a3dbbd7)
C        -1.30907244509729    0.00118461438522    3.54493129534566
C        -0.38768965784233   -1.16801812828873    3.28589131134948
C         0.96886106029010   -0.71488682761458    3.24158366826854
C         0.97008247982207    0.71680454390415    3.24257681326433
C        -0.38649670053976    1.16963410225060    3.28591350990328
C         2.33524171086156   -2.55454247024407    0.55800027274866
C         3.19912827592087   -1.40714491117301    0.54967460071520
C         2.94453837646279   -0.68941608647390    1.76975336942411
C         1.93504338864046   -1.38728183910344    2.51520459301043
C         1.56353007244462   -2.54072907833311    1.76843382372878
C         3.20014436214649    1.40795454059588    0.55017680090540
C         2.33674426616123    2.55607757519080    0.55925166359608
C         1.56569328393227    2.54343207045081    1.77036685100458
C         1.93690575418824    1.38941652092296    2.51690689863934
C         2.94533581288538    0.69063731327970    1.77045673852555
C        -0.36383089610862    3.42094989526621    0.57796469731726
C        -1.73282340132390    3.02338456283051    0.59645314526689
C        -2.10167956127375    2.46995625593443    1.95290817617667
C        -0.74009766166038    2.27063964433933    2.57179890752109
C         0.24525145871479    2.95008133224185    1.79165348780893
C        -3.32779544840611    0.72339301226877    0.56639734720527
C        -3.32846060725546   -0.72309340829632    0.56669858004899
C        -2.73688278499881   -1.13844868645857    1.78578940861471
C        -2.37298077517626    0.00038016975372    2.50931649602032
C        -2.73657868000531    1.13877891951546    1.78555203384486
C        -1.73288467274009   -3.02262135503349    0.59517079267401
C        -0.36409907476776   -3.42011563549074    0.57692697910666
C         0.24353474161104   -2.94789227684739    1.79066245055066
C        -0.74192230739510   -2.26873825856747    2.57108972505764
C        -2.10292292385691   -2.46990916000140    1.95186153799718
C        -0.22309988738538   -2.98979725135302   -1.81946268645530
C         0.76710188818480   -2.27981249999125   -2.58258289762762
C         1.99631907072065   -2.27985353157772   -1.84174724180969
C         1.74655192427156   -2.99038399599277   -0.61328167822781
C         0.37925713513545   -3.42250946343168   -0.59876124482024
C         2.81410762423428   -1.16462727538628   -1.84796025262957
C         2.43159884285856   -0.00057990518812   -2.60207347385414
C         2.81343236787401    1.16341052049695   -1.84714992527444
C         3.43255303589555    0.71804231125285   -0.62618445427962
C         3.43251535226412   -0.71824929702169   -0.62677129787401
C         1.99551183205765    2.27836667871932   -1.84001859392887
C         0.76629034895863    2.27784450711370   -2.58064932174386
C        -0.22347916370557    2.98878900115560   -1.81806978514734
C         0.37921526907682    3.42257914883834   -0.59782015854846
C         1.74652549265471    2.99015551497715   -0.61208221019623
C        -1.53971701657745    2.56982819915099   -1.79374707631401
C        -1.92482528068599    1.41158777456311   -2.56183967662809
C        -2.92738559539039    0.69798483559953   -1.81642637027575
C        -3.15698142559664    1.41763891310283   -0.61043468697035
C        -2.30104683672858    2.59929606117988   -0.57922852107545
C        -2.92736987954064   -0.69807894037541   -1.81647021675364
C        -1.92476239478018   -1.41195578661372   -2.56232253835159
C        -1.53921800111571   -2.57002066879731   -1.79477876073101
C        -2.30129355528045   -2.59927450223927   -0.58058676742305
C        -3.15690256627553   -1.41724456697420   -0.61030889231173
C        -0.97236553477389   -0.72129734208167   -3.28634339327539
C        -0.97259795020043    0.72039137379979   -3.28575420930736
C         0.39544903742834    1.15928066858168   -3.30542747032125
C         1.24264676952112   -0.00069758159513   -3.31481033969563
C         0.39576473476090   -1.16070334561534   -3.30645493224372
Cl       -2.03581538333707    0.00461552720563    5.19549817856667
Cl       -3.14915362787720    3.58762515874123    2.93816732900089
Cl       -3.15384535865402   -3.59127705085091    2.93025198488865
63
 energy: -142.123041174173 gnorm: 0.018672331092 xtb: 6.4.1 (a3dbbd7)
C        -1.29708374139097    0.00051484761517    3.54839843141242
C        -0.37697370645086   -1.17649046652052    3.29548906487160
C         0.97747927644636   -0.71886546948263    3.25552222403224
C         0.97799559136976    0.71946334356590    3.25582590657905
C        -0.37642981655275    1.17702399214316    3.29515486307623
C         2.33977000614823   -2.57251897552031    0.56720604366892
C         3.19494660275731   -1.41364547512553    0.56507251576438
C         2.95304249032756   -0.69287551985995    1.78887975872538
C         1.94750064660048   -1.40218635011966    2.53512725078073
C         1.57318137779842   -2.56050917039388    1.78458207966761
C         3.19539724585655    1.41391410807269    0.56521769909151
C         2.34058279016848    2.57317332173607    0.56767978277724
C         1.57421203025834    2.56162001618162    1.78535564713512
C         1.94828744752275    1.40297418632831    2.53579774415193
C         2.95340313578106    0.69331743043017    1.78916409223656
C        -0.36477242045373    3.43149958083573    0.57486411985292
C        -1.73385229817224    3.03275355222268    0.58334894102291
C        -2.09305788233021    2.46996333023129    1.94279048269979
C        -0.73222282403090    2.28315254152378    2.57602379677712
C         0.24839584392833    2.97052948748158    1.79583715334594
C        -3.34403935620279    0.72314485462214    0.57258231765879
C        -3.34441294780915   -0.72259872556087    0.57275066360519
C        -2.74179137279249   -1.14159217313677    1.79152665552786
C        -2.36542888139897    0.00033826924000    2.51050859942926
C        -2.74152263627494    1.14209747400083    1.79139720910680
C        -1.73391975478083   -3.03191359929951    0.58285339798786
C        -0.36507584119988   -3.43093428670088    0.57455854666004
C         0.24752987909952   -2.96958284171401    1.79564921564271
C        -0.73315396806123   -2.28251165184500    2.57615009611420
C        -2.09364154775937   -2.46949909158746    1.94241701782943
C        -0.22940227661110   -3.00488766156783   -1.82894365986001
C         0.76189900276761   -2.28830581448233   -2.59013748826066
C         1.98897016047420   -2.28750368898967   -1.83828239013305
C         1.74787022101995   -3.00423251077526   -0.60990041039127
C         0.37702720916015   -3.43924246931105   -0.60443886777716
C         2.80768194671014   -1.16626114177216   -1.84068693757028
C         2.42687952343454   -0.00016459175873   -2.59662075258853
C         2.80752205228631    1.16587488297336   -1.84040060566903
C         3.42437707699644    0.71986705454748   -0.61583740947613
C         3.42444492412627   -0.72001669742344   -0.61606817238371
C         1.98886479360062    2.28704684745416   -1.83756561590603
C         0.76181998740666    2.28775489536476   -2.58937051516549
C        -0.22922684900869    3.00471299086938   -1.82841463156457
C         0.37730727836627    3.43947219870230   -0.60412898206517
C         1.74807196903642    3.00416451908692   -0.60942072632261
C        -1.54859244006682    2.57833308023749   -1.81155479489495
C        -1.93277121159386    1.41320894169838   -2.57428459296341
C        -2.93370850482287    0.69932171238712   -1.82537811784001
C        -3.16651921963352    1.41872257575327   -0.61063682370720
C        -2.30569032298097    2.59679150223638   -0.59154675304090
C        -2.93379144335115   -0.69885986598946   -1.82536488939301
C        -1.93289245939858   -1.41289866887906   -2.57445269031547
C        -1.54867913012268   -2.57804521499734   -1.81197550113900
C        -2.30598960340099   -2.59639080520390   -0.59207302869838
C        -3.16646760610449   -1.41806077206773   -0.61057638908456
C        -0.97858907030262   -0.72122839203877   -3.30389464999583
C        -0.97856661877982    0.72128548045824   -3.30363382602786
C         0.39191486595828    1.16364994397232   -3.31424181202403
C         1.23907560061839   -0.00016267556089   -3.31796315024261
C         0.39188715234214   -1.16386209229580   -3.31460783184062
Cl       -1.99728741534835    0.00266733778106    5.21146327794126
Cl       -3.14036632580820    3.60241565901273    2.90556090536944
Cl       -3.14261992174545   -3.60398295818879    2.90138090980069
63
 energy: -142.123583491598 gnorm: 0.006364069711 xtb: 6.4.1 (a3dbbd7)
C        -1.29481320807605    0.00023781780279    3.54680922011414
C        -0.37279981744251   -1.17742128815750    3.29433020829391
C         0.98025858821875   -0.72005906472535    3.25938334887826
C         0.98040574557875    0.72013009898307    3.25935216770216
C        -0.37257150038830    1.17766519967607    3.29415734643077
C         2.34111800284532   -2.57881711386410    0.57131994927001
C         3.19191690499032   -1.41529288868828    0.57112993962536
C         2.95498166124669   -0.69391816099628    1.79563687096707
C         1.95342800058944   -1.40946052490706    2.54454663489878
C         1.57820827441125   -2.56888729569623    1.79310657316166
C         3.19213571366124    1.41524711030392    0.57113223410859
C         2.34154268362352    2.57892792566950    0.57140030151200
C         1.57862586929576    2.56907990664413    1.79323229660585
C         1.95365855623445    1.40953448986513    2.54461876778809
C         2.95510526688638    0.69389086617774    1.79567758065125
C        -0.36328850693288    3.43447555942204    0.57442868093008
C        -1.73018651503437    3.03237585178600    0.57785489881537
C        -2.09084805772864    2.46851924499480    1.93874346104080
C        -0.72896518213735    2.28612490993861    2.57471511845029
C         0.25011993330404    2.97830825860763    1.79783985337004
C        -3.35369544139635    0.72252066468881    0.57588247736210
C        -3.35389259788749   -0.72185179507775    0.57592351754071
C        -2.74705825013691   -1.14334425490505    1.79507615980324
C        -2.36443627651421    0.00029413272538    2.50985011826503
C        -2.74684994424286    1.14393348353944    1.79505065475779
C        -1.73038479986321   -3.03161799823823    0.57769989376666
C        -0.36365645446487   -3.43404288576975    0.57438144557433
C         0.24968264395363   -2.97801345101068    1.79791128711165
C        -0.72941017754348   -2.28585320346474    2.57486584897011
C        -2.09117616893998   -2.46792964228221    1.93865516864778
C        -0.23162023147019   -3.01139643218325   -1.83103171449787
C         0.75902451549756   -2.29134586706096   -2.59203927880135
C         1.98491711528809   -2.28974317078994   -1.83586817552047
C         1.74838709615456   -3.00782527472006   -0.60794822780872
C         0.37706340486831   -3.44750106036960   -0.60634063761410
C         2.80290317243705   -1.16614058594608   -1.83689208387363
C         2.42228430046620    0.00002850825916   -2.59283463528115
C         2.80301747599596    1.16614029638686   -1.83684887761643
C         3.41854165533341    0.72023637694862   -0.61168115803420
C         3.41852574158637   -0.72035288545945   -0.61172430491866
C         1.98517064270489    2.28982467153137   -1.83570396589996
C         0.75929126206401    2.29156979794907   -2.59190147312181
C        -0.23122662309430    3.01173471527697   -1.83092862844688
C         0.37748540177777    3.44782566622127   -0.60627138687902
C         1.74872535275428    3.00789407287910   -0.60782605656876
C        -1.55137087385665    2.58134619559941   -1.81832712490817
C        -1.93560566065724    1.41384843331624   -2.57814585577335
C        -2.93406627725267    0.69966299147880   -1.82765921429752
C        -3.16804739309245    1.41854434272000   -0.60843069431763
C        -2.30482639227697    2.59189640437358   -0.59513476559120
C        -2.93417432341252   -0.69892160662667   -1.82766880986122
C        -1.93580203474290   -1.41320994642080   -2.57820390632384
C        -1.55170046413624   -2.58078792423607   -1.81845732977848
C        -2.30517237864770   -2.59129308667307   -0.59527996366352
C        -3.16811812204908   -1.41777537047686   -0.60845385348812
C        -0.98176500879221   -0.72098484642634   -3.31116251514973
C        -0.98163571148234    0.72151261827173   -3.31108113403060
C         0.38958714223371    1.16559239780070   -3.31621189006707
C         1.23590970847786    0.00009882724026   -3.31765496763332
C         0.38941408923107   -1.16523464104224   -3.31625323045663
Cl       -1.97420405117878    0.00084157598668    5.21966484615796
Cl       -3.13426643458055    3.62033493950825    2.88225085669920
Cl       -3.13500232863229   -3.62023594576130    2.88107252695396
63
 energy: -142.123626766982 gnorm: 0.002441914210 xtb: 6.4.1 (a3dbbd7)
C        -1.29507379080905    0.00019816052621    3.54523580967440
C        -0.37243585679754   -1.17713051037827    3.29303686464128
C         0.97998533632806   -0.72002628057037    3.25911831240532
C         0.98007354177570    0.72009237444367    3.25911333906472
C        -0.37227685919231    1.17739924028624    3.29302419395379
C         2.34063009753285   -2.57911898047198    0.57184343912132
C         3.19061039541716   -1.41498015046220    0.57169948393242
C         2.95429465397805   -0.69382344548609    1.79597429387680
C         1.95396597628563   -1.41076255471320    2.54599386870038
C         1.57861532080398   -2.56974806184863    1.79474118146132
C         3.19080914100250    1.41488521697688    0.57173253480799
C         2.34098090730227    2.57912844967981    0.57190299083536
C         1.57893502003745    2.56979661787414    1.79479689341530
C         1.95412733405624    1.41075056189647    2.54602061596180
C         2.95440387877270    0.69372844472645    1.79602097379887
C        -0.36266039868705    3.43428873703305    0.57462602130941
C        -1.72839373854078    3.03099751646770    0.57668949856340
C        -2.09067427309415    2.46761848564507    1.93801809059192
C        -0.72887660201069    2.28632762671692    2.57451814257210
C         0.24996484546119    2.97901125408998    1.79832513670234
C        -3.35586132406896    0.72225169379523    0.57671808057236
C        -3.35600311007798   -0.72152958030046    0.57672277470815
C        -2.74851505699325   -1.14386697587546    1.79625398148867
C        -2.36475107951417    0.00028733110201    2.50955326525833
C        -2.74834042920605    1.14449298030874    1.79626365792482
C        -1.72870926995502   -3.03035561319713    0.57658795406291
C        -0.36308264112001   -3.43389856618411    0.57456448945507
C         0.24959020273318   -2.97879419996417    1.79832692541454
C        -0.72919948709561   -2.28601943933596    2.57452537760194
C        -2.09098165927050   -2.46704188286324    1.93796487602078
C        -0.23184992661377   -3.01207521987428   -1.83058360481491
C         0.75841939980807   -2.29142568359929   -2.59183993647935
C         1.98407941552533   -2.28957606024753   -1.83517230839308
C         1.74827856393876   -3.00742110632752   -0.60763617796529
C         0.37716578744522   -3.44906264553574   -0.60660001114028
C         2.80174920880550   -1.16581703795004   -1.83616070102228
C         2.42108329469622    0.00005475633238   -2.59192918242777
C         2.80190816575241    1.16586109572245   -1.83613689797178
C         3.41694027503868    0.72014072084777   -0.61120045720827
C         3.41686884853148   -0.72023755359404   -0.61122533227575
C         1.98439060247591    2.28973137011487   -1.83510090671491
C         0.75873422826738    2.29176295465199   -2.59179335709136
C        -0.23143458054375    3.01250445304827   -1.83052390429019
C         0.37761776275942    3.44938499106547   -0.60652410632776
C         1.74866071952425    3.00753125923125   -0.60754972022497
C        -1.55141193212584    2.58135742232219   -1.81908604560146
C        -1.93570534362547    1.41380609143126   -2.57819007303125
C        -2.93313066035037    0.69956340050460   -1.82741737689693
C        -3.16664718247039    1.41822261298918   -0.60707352864202
C        -2.30418321226966    2.59027036345656   -0.59526718107776
C        -2.93324207852627   -0.69878961206786   -1.82745135460899
C        -1.93590473912778   -1.41313418639253   -2.57824355706726
C        -1.55176981106919   -2.58076192301598   -1.81916977111523
C        -2.30454661237200   -2.58962806666655   -0.59534912843771
C        -3.16679517760409   -1.41744252506800   -0.60711448056186
C        -0.98223656627029   -0.72082784482732   -3.31215605752227
C        -0.98211461760921    0.72140472648022   -3.31210710093656
C         0.38911187559639    1.16580212521034   -3.31581902207762
C         1.23515485377464    0.00013557260017   -3.31704231551730
C         0.38893816811490   -1.16539378457438   -3.31583696551875
Cl       -1.96836353476837    0.00026987664156    5.22070053912718
Cl       -3.13086018226874    3.62782962584025    2.87534663027825
Cl       -3.13125737386707   -3.62725847806976    2.87507471965925
63
 energy: -142.123633488191 gnorm: 0.000576279295 xtb: 6.4.1 (a3dbbd7)
C        -1.29537230515207    0.00019898591602    3.54448148131209
C        -0.37249504373934   -1.17685266792718    3.29239234805336
C         0.97967956848971   -0.71988209660508    3.25868183729114
C         0.97976927897901    0.71999872566295    3.25871564145702
C        -0.37234794630855    1.17715370581391    3.29244952815291
C         2.34022478743907   -2.57878130947517    0.57176992055560
C         3.19014151262742   -1.41465189440302    0.57145960360776
C         2.95384066821904   -0.69366405985397    1.79556643072217
C         1.95378308940584   -1.41089657102476    2.54597987525320
C         1.57838806615499   -2.56946458932062    1.79496316179236
C         3.19033907610222    1.41455834303753    0.57151362074453
C         2.34056251181661    2.57878692096390    0.57184465246668
C         1.57871281638999    2.56952702906008    1.79503398137401
C         1.95396077852507    1.41090584495028    2.54602823201094
C         2.95396480716615    0.69357675933592    1.79562993505945
C        -0.36240924765345    3.43389648141875    0.57486333493960
C        -1.72762892814086    3.03019386241320    0.57645500745781
C        -2.09076855385181    2.46709171126708    1.93797044415254
C        -0.72916859875881    2.28622357012520    2.57464430896551
C         0.24971523254915    2.97881842898865    1.79855912750930
C        -3.35653897241940    0.72216387960154    0.57693139296892
C        -3.35664211392339   -0.72141667987787    0.57690794504197
C        -2.74889739169620   -1.14408293189764    1.79668024686906
C        -2.36490109205682    0.00028440280028    2.50940603926000
C        -2.74874348984786    1.14472264957596    1.79671439776121
C        -1.72801286347749   -3.02963219016103    0.57634831616537
C        -0.36285885552790   -3.43352570669511    0.57476430778474
C         0.24933426458061   -2.97857743247248    1.79848301111126
C        -0.72946156157570   -2.28586433889377    2.57456881250509
C        -2.09108777465817   -2.46654129962955    1.93790082800381
C        -0.23183159551154   -3.01187719236410   -1.83009465520970
C         0.75832415698190   -2.29119120573811   -2.59156684572538
C         1.98401526847256   -2.28929426092535   -1.83500052039775
C         1.74822588734541   -3.00690724598089   -0.60766575006596
C         0.37718888563527   -3.44923915438006   -0.60660162395716
C         2.80167051453595   -1.16567528189045   -1.83616583337358
C         2.42096741977634    0.00005179771953   -2.59188548259925
C         2.80182610099885    1.16570869947850   -1.83613305485641
C         3.41670923901157    0.72008432155791   -0.61135871639521
C         3.41661739628732   -0.72017105179120   -0.61138314362877
C         1.98432255236069    2.28943939789831   -1.83493805892040
C         0.75863054625098    2.29151897370289   -2.59151084726555
C        -0.23142972919356    3.01230628546490   -1.83001371302226
C         0.37764210362208    3.44954713984996   -0.60649901163124
C         1.74861945447686    3.00703291193557   -0.60757630957751
C        -1.55125738230623    2.58113990884382   -1.81900930190912
C        -1.93553486927567    1.41372182022901   -2.57784479741196
C        -2.93259284421419    0.69945913862220   -1.82701058177429
C        -3.16565737320249    1.41806209884518   -0.60636828159680
C        -2.30411017446455    2.58985341473805   -0.59504503105980
C        -2.93271208153661   -0.69869688261616   -1.82707013995843
C        -1.93573019839619   -1.41306421358944   -2.57791094882673
C        -1.55160549751504   -2.58055193303745   -1.81909932549284
C        -2.30446744970774   -2.58920502867449   -0.59513286982602
C        -3.16584227731070   -1.41729176872277   -0.60642586183176
C        -0.98223143456310   -0.72074199708039   -3.31208727188113
C        -0.98212523330171    0.72130173424829   -3.31204025746183
C         0.38906424201667    1.16574857682583   -3.31543106030908
C         1.23508330763882    0.00013518521886   -3.31678697284766
C         0.38890625765333   -1.16536374335611   -3.31546880748842
Cl       -1.96751107170046    0.00015330418344    5.22040010330033
Cl       -3.12953241696861    3.63039599380129    2.87340850675829
Cl       -3.12992470992718   -3.62971713511334    2.87334308989557
63
 energy: -142.123633892947 gnorm: 0.000160132963 xtb: 6.4.1 (a3dbbd7)
C        -1.29536549158297    0.00020282668576    3.54437989486138
C        -0.37249195574452   -1.17680734847222    3.29234848457246
C         0.97966833551671   -0.71982929429465    3.25860354357465
C         0.97977331599573    0.71996482537347    3.25865839744157
C        -0.37233720865574    1.17710661091398    3.29240095561159
C         2.34013541874972   -2.57862101942135    0.57165416253207
C         3.19016240740548   -1.41456916742376    0.57125484362921
C         2.95381899048922   -0.69360925491522    1.79533919391519
C         1.95364452947749   -1.41077450859678    2.54574141539258
C         1.57823788341804   -2.56919377626213    1.79481835790946
C         3.19036085011383    1.41448390459937    0.57132138608607
C         2.34047730912893    2.57864091045223    0.57174767821029
C         1.57858225801313    2.56928440955061    1.79491541515004
C         1.95384893107308    1.41080500551802    2.54581976250053
C         2.95396391985134    0.69353667118858    1.79542195206010
C        -0.36236190203585    3.43378139917847    0.57497802940223
C        -1.72750849378961    3.03005575990922    0.57648158669623
C        -2.09080632580728    2.46695118825496    1.93804275111922
C        -0.72932156130544    2.28620441174623    2.57480598246977
C         0.24966135419476    2.97869969379656    1.79865915754428
C        -3.35669485829194    0.72217235161700    0.57689980222306
C        -3.35678173759373   -0.72142466363168    0.57687277792196
C        -2.74880379061146   -1.14413024633688    1.79668135632585
C        -2.36478589666805    0.00028333473849    2.50928820711516
C        -2.74865837813069    1.14476769197646    1.79671943181405
C        -1.72790827311767   -3.02952039975151    0.57638273036121
C        -0.36281401606061   -3.43341809610827    0.57486551342241
C         0.24926862953376   -2.97844120324488    1.79855505944450
C        -0.72961728718526   -2.28584020248692    2.57472545527670
C        -2.09113218974377   -2.46641118377795    1.93796943973657
C        -0.23182316172928   -3.01167907237104   -1.82991599647742
C         0.75836001536129   -2.29107346715803   -2.59148168646368
C         1.98413575247599   -2.28920655272563   -1.83504437457190
C         1.74825490500609   -3.00677890535091   -0.60774735877407
C         0.37717020708457   -3.44907576257164   -0.60657555208406
C         2.80187391842691   -1.16568326968784   -1.83632178874864
C         2.42115202035326    0.00005046339253   -2.59206477379223
C         2.80201998325950    1.16571059453099   -1.83627656462861
C         3.41694337070133    0.72009855796593   -0.61151833191224
C         3.41685357375250   -0.72017918620956   -0.61154954772592
C         1.98443215221519    2.28933996454629   -1.83496615581516
C         0.75865765953294    2.29138351008153   -2.59140283249149
C        -0.23142976275807    3.01209648470700   -1.82981626343849
C         0.37762081251576    3.44937876953969   -0.60646128080968
C         1.74864846649162    3.00690634572984   -0.60764452095885
C        -1.55122692890531    2.58108503862384   -1.81891831419818
C        -1.93547019552950    1.41370340719541   -2.57767283705661
C        -2.93252328240005    0.69941706623687   -1.82681738495019
C        -3.16543765744491    1.41805513897362   -0.60621111176136
C        -2.30430765150127    2.58999797068475   -0.59494583420381
C        -2.93265919868077   -0.69867235731173   -1.82688859624073
C        -1.93566770445044   -1.41305834219158   -2.57774250019080
C        -1.55156820722108   -2.58050400015422   -1.81901043321823
C        -2.30465066402028   -2.58935035445107   -0.59503302492497
C        -3.16563450322660   -1.41729878622380   -0.60626929175356
C        -0.98218685656673   -0.72071919315680   -3.31187634815884
C        -0.98208416338422    0.72126577586414   -3.31182854201868
C         0.38910280776477    1.16570125602608   -3.31532608133987
C         1.23517900156290    0.00013410398430   -3.31678966461659
C         0.38895040697143   -1.16532669243494   -3.31537616232496
Cl       -1.96833213459795    0.00021395663632    5.21996475424231
Cl       -3.12965578580808    3.63032122962597    2.87350480124646
Cl       -3.13011324826203   -3.62966418252428    2.87340526984220
