63
 energy: -142.123633893314 gnorm: 0.000160223802 xtb: 6.4.1 (a3dbbd7)
C        -1.29536549158297    0.00020282668576    3.54437989486138
C        -0.37249195574452   -1.17680734847222    3.29234848457246
C         0.97966833551671   -0.71982929429465    3.25860354357465
C         0.97977331599573    0.71996482537347    3.25865839744157
C        -0.37233720865574    1.17710661091398    3.29240095561159
C         2.34013541874972   -2.57862101942135    0.57165416253207
C         3.19016240740548   -1.41456916742376    0.57125484362921
C         2.95381899048922   -0.69360925491522    1.79533919391519
C         1.95364452947749   -1.41077450859678    2.54574141539258
C         1.57823788341804   -2.56919377626213    1.79481835790946
C         3.19036085011383    1.41448390459937    0.57132138608607
C         2.34047730912893    2.57864091045223    0.57174767821029
C         1.57858225801313    2.56928440955061    1.79491541515004
C         1.95384893107308    1.41080500551802    2.54581976250053
C         2.95396391985134    0.69353667118858    1.79542195206010
C        -0.36236190203585    3.43378139917847    0.57497802940223
C        -1.72750849378961    3.03005575990922    0.57648158669623
C        -2.09080632580728    2.46695118825496    1.93804275111922
C        -0.72932156130544    2.28620441174623    2.57480598246977
C         0.24966135419476    2.97869969379656    1.79865915754428
C        -3.35669485829194    0.72217235161700    0.57689980222306
C        -3.35678173759373   -0.72142466363168    0.57687277792196
C        -2.74880379061146   -1.14413024633688    1.79668135632585
C        -2.36478589666805    0.00028333473849    2.50928820711516
C        -2.74865837813069    1.14476769197646    1.79671943181405
C        -1.72790827311767   -3.02952039975151    0.57638273036121
C        -0.36281401606061   -3.43341809610827    0.57486551342241
C         0.24926862953376   -2.97844120324488    1.79855505944450
C        -0.72961728718526   -2.28584020248692    2.57472545527670
C        -2.09113218974377   -2.46641118377795    1.93796943973657
C        -0.23182316172928   -3.01167907237104   -1.82991599647742
C         0.75836001536129   -2.29107346715803   -2.59148168646368
C         1.98413575247599   -2.28920655272563   -1.83504437457190
C         1.74825490500609   -3.00677890535091   -0.60774735877407
C         0.37717020708457   -3.44907576257164   -0.60657555208406
C         2.80187391842691   -1.16568326968784   -1.83632178874864
C         2.42115202035326    0.00005046339253   -2.59206477379223
C         2.80201998325950    1.16571059453099   -1.83627656462861
C         3.41694337070133    0.72009855796593   -0.61151833191224
C         3.41685357375250   -0.72017918620956   -0.61154954772592
C         1.98443215221519    2.28933996454629   -1.83496615581516
C         0.75865765953294    2.29138351008153   -2.59140283249149
C        -0.23142976275807    3.01209648470700   -1.82981626343849
C         0.37762081251576    3.44937876953969   -0.60646128080968
C         1.74864846649162    3.00690634572984   -0.60764452095885
C        -1.55122692890531    2.58108503862384   -1.81891831419818
C        -1.93547019552950    1.41370340719541   -2.57767283705661
C        -2.93252328240005    0.69941706623687   -1.82681738495019
C        -3.16543765744491    1.41805513897362   -0.60621111176136
C        -2.30430765150127    2.58999797068475   -0.59494583420381
C        -2.93265919868077   -0.69867235731173   -1.82688859624073
C        -1.93566770445044   -1.41305834219158   -2.57774250019080
C        -1.55156820722108   -2.58050400015422   -1.81901043321823
C        -2.30465066402028   -2.58935035445107   -0.59503302492497
C        -3.16563450322660   -1.41729878622380   -0.60626929175356
C        -0.98218685656673   -0.72071919315680   -3.31187634815884
C        -0.98208416338422    0.72126577586414   -3.31182854201868
C         0.38910280776477    1.16570125602608   -3.31532608133987
C         1.23517900156290    0.00013410398430   -3.31678966461659
C         0.38895040697143   -1.16532669243494   -3.31537616232496
Cl       -1.96833213459795    0.00021395663632    5.21996475424231
Cl       -3.12965578580808    3.63032122962597    2.87350480124646
Cl       -3.13011324826203   -3.62966418252428    2.87340526984220
