180
 energy: -570.214193478520 gnorm: 11.385279642942 xtb: 6.4.1 (a3dbbd7)
C        -1.23626340000000    0.00000000000000    3.32997640000000
C        -0.38202640000000   -1.17575640000000    3.32997640000000
C         1.00015810000000   -0.72665740000000    3.32997640000000
C         1.00015810000000    0.72665740000000    3.32997640000000
C        -0.38202640000000    1.17575640000000    3.32997640000000
C         2.34433560000000   -2.60145750000000    0.59464210000000
C         3.19857260000000   -1.42570110000000    0.59464210000000
C         2.96246730000000   -0.69904370000000    1.83090550000000
C         1.96230920000000   -1.42570110000000    2.59495830000000
C         1.58028280000000   -2.60145750000000    1.83090550000000
C         3.19857260000000    1.42570110000000    0.59464210000000
C         2.34433560000000    2.60145750000000    0.59464210000000
C         1.58028280000000    2.60145750000000    1.83090550000000
C         1.96230920000000    1.42570110000000    2.59495830000000
C         2.96246730000000    0.69904370000000    1.83090550000000
C        -0.36750900000000    3.48258920000000    0.59464210000000
C        -1.74969350000000    3.03349030000000    0.59464210000000
C        -1.98579880000000    2.30683290000000    1.83090550000000
C        -0.74953540000000    2.30683290000000    2.59495830000000
C         0.25062270000000    3.03349030000000    1.83090550000000
C        -3.42570570000000    0.72665740000000    0.59464210000000
C        -3.42570570000000   -0.72665740000000    0.59464210000000
C        -2.80757400000000   -1.17575640000000    1.83090550000000
C        -2.42554760000000    0.00000000000000    2.59495830000000
C        -2.80757400000000    1.17575640000000    1.83090550000000
C        -1.74969350000000   -3.03349030000000    0.59464210000000
C        -0.36750900000000   -3.48258920000000    0.59464210000000
C         0.25062270000000   -3.03349030000000    1.83090550000000
C        -0.74953540000000   -2.30683290000000    2.59495830000000
C        -1.98579880000000   -2.30683290000000    1.83090550000000
C        -0.25062270000000   -3.03349030000000   -1.83090550000000
C         0.74953540000000   -2.30683290000000   -2.59495830000000
C         1.98579880000000   -2.30683290000000   -1.83090550000000
C         1.74969350000000   -3.03349030000000   -0.59464210000000
C         0.36750900000000   -3.48258920000000   -0.59464210000000
C         2.80757400000000   -1.17575640000000   -1.83090550000000
C         2.42554760000000    0.00000000000000   -2.59495830000000
C         2.80757400000000    1.17575640000000   -1.83090550000000
C         3.42570570000000    0.72665740000000   -0.59464210000000
C         3.42570570000000   -0.72665740000000   -0.59464210000000
C         1.98579880000000    2.30683290000000   -1.83090550000000
C         0.74953540000000    2.30683290000000   -2.59495830000000
C        -0.25062270000000    3.03349030000000   -1.83090550000000
C         0.36750900000000    3.48258920000000   -0.59464210000000
C         1.74969350000000    3.03349030000000   -0.59464210000000
C        -1.58028280000000    2.60145750000000   -1.83090550000000
C        -1.96230920000000    1.42570110000000   -2.59495830000000
C        -2.96246730000000    0.69904370000000   -1.83090550000000
C        -3.19857260000000    1.42570110000000   -0.59464210000000
C        -2.34433560000000    2.60145750000000   -0.59464210000000
C        -2.96246730000000   -0.69904370000000   -1.83090550000000
C        -1.96230920000000   -1.42570110000000   -2.59495830000000
C        -1.58028280000000   -2.60145750000000   -1.83090550000000
C        -2.34433560000000   -2.60145750000000   -0.59464210000000
C        -3.19857260000000   -1.42570110000000   -0.59464210000000
C        -1.00015810000000   -0.72665740000000   -3.32997640000000
C        -1.00015810000000    0.72665740000000   -3.32997640000000
C         0.38202640000000    1.17575640000000   -3.32997640000000
C         1.23626340000000    0.00000000000000   -3.32997640000000
C         0.38202640000000   -1.17575640000000   -3.32997640000000
C        -1.76086815247998    0.00000000000000    4.78849957557021
F        -0.76911826531252    0.00000000000000    5.67468926254662
F        -2.50968386795825   -1.06794314680471    5.04863888333743
F        -2.50968386795825    1.06794314680471    5.04863888333743
C        -0.54413818249354   -1.67468516033722    4.78849957845317
F        -0.23767107904745   -0.73147481112462    5.67468925997942
F        -1.79120914301982   -2.05683909935453    5.04863874564184
F         0.24013968171955   -2.71686350152345    5.04863903502921
C         1.42457227037960   -1.03501233722714    4.78849957248258
F         0.62223011468481   -0.45207589682711    5.67468926529602
F         1.40265511061956   -2.33913928186680    5.04863905501621
F         2.65809836182651   -0.61117154425495    5.04863869666890
C         1.42457227037960    1.03501233722714    4.78849957248258
F         0.62223011468481    0.45207589682711    5.67468926529602
F         2.65809836182651    0.61117154425495    5.04863869666891
F         1.40265511061956    2.33913928186680    5.04863905501621
C         4.58877084110522   -2.05459160147071    0.86730597290559
F         4.59709252483521   -2.78118520641283    1.98125951001435
F         4.97417519512416   -2.85850196315549   -0.11965482382298
F         5.53562669678859   -1.13053295630600    1.00324569798425
C         4.25247495652193   -1.01957928511255    2.62817407757680
F         4.45020405360863   -2.32910962270744    2.75037677428969
F         5.33704498641440   -0.51936149478958    2.04303305824604
F         4.21414295278388   -0.51936236815955    3.85992636334025
C         2.28376457660886   -3.72927671755932    2.62817408867206
F         3.59030321655004   -3.51265997057976    2.75037870097715
F         2.14318168460923   -4.91533956626619    2.04303190988612
F         1.79618325340524   -3.84739782561575    3.85992562899767
C         2.28376457660886    3.72927671755932    2.62817408867206
F         3.59030321655004    3.51265997057976    2.75037870097715
F         2.14318168460923    4.91533956626619    2.04303190988612
F         1.79618325340524    3.84739782561575    3.85992562899767
C         2.82790274436383    2.05459160758554    3.71645040671519
F         3.82797483682855    2.78118494419178    3.22571836876305
F         2.11749631416700    2.85850222732984    4.50254863174647
F         3.37293748548841    1.13053297859378    4.50255013394648
C         4.25247495652193    1.01957928511255    2.62817407757680
F         4.45020405360857    2.32910962270745    2.75037677428973
F         5.33704498641440    0.51936149478962    2.04303305824599
F         4.21414295278389    0.51936236815949    3.85992636334022
C        -0.53602450593361    4.99908416128281    0.86730591619822
F        -1.22448605650957    5.23152837615597    1.98125850960180
F        -1.18149064144157    5.61404773804446   -0.11965571789346
F         0.63540201352706    5.61404743764837    1.00324736766175
C        -1.08016271022039    3.32439912180418    3.71645041587937
F        -1.46215754230407    4.50005299330749    3.22571838851551
F        -2.06425285383526    2.89718320022386    4.50255037491024
F        -0.03290491502764    3.55721032900471    4.50254840735999
C         0.34440953624153    4.35941144868709    2.62817404748705
F        -0.83992598883967    4.95213069234126    2.75037577510431
F         1.15529636597892    5.23632261667420    2.04303359185445
F         0.80829780400759    4.16837989546168    3.85992670963205
C        -4.92005227074660    1.03501232949151    0.86730592957069
F        -5.35386609588658    0.45207588830481    1.98125865327758
F        -5.70437742108406    0.61117153086585   -0.11965558739362
F        -5.14292645153878    2.33913927311179    1.00324714649869
C        -4.03961820246674   -1.67468514775899    2.62817407948106
F        -4.96930660042402   -0.73147479244129    2.75037763231441
F        -4.62303373288711   -2.71686348978894    2.04303253910982
F        -3.71458666614022   -2.05683907990832    3.85992603200073
C        -2.50473491433418   -4.35941144902977    0.86730593917895
F        -2.08438487052912   -4.95213043104453    1.98125838386969
F        -2.34400857369757   -5.23632280881804   -0.11965581818547
F        -3.81390519137296   -4.16837996597314    1.00324768478856
C         0.34440953624153   -4.35941144868709    2.62817404748705
F        -0.83992598883967   -4.95213069234126    2.75037577510431
F         1.15529636597892   -5.23632261667420    2.04303359185445
F         0.80829780400759   -4.16837989546168    3.85992670963205
C        -1.08016271022039   -3.32439912180418    3.71645041587937
F        -1.46215754230407   -4.50005299330749    3.22571838851551
F        -0.03290491502764   -3.55721032900471    4.50254840735999
F        -2.06425285383526   -2.89718320022386    4.50255037491024
C        -0.34440953624153   -4.35941144868709   -2.62817404748705
F         0.83992598883967   -4.95213069234126   -2.75037577510431
F        -0.80829780400759   -4.16837989546168   -3.85992670963205
F        -1.15529636597892   -5.23632261667420   -2.04303359185445
C         4.03961820246674   -1.67468514775899   -2.62817407948106
F         4.96930660042401   -0.73147479244129   -2.75037763231445
F         3.71458666614023   -2.05683907990836   -3.85992603200072
F         4.62303373288714   -2.71686348978891   -2.04303253910981
C         4.03961820246674    1.67468514775899   -2.62817407948106
F         4.96930660042402    0.73147479244129   -2.75037763231441
F         3.71458666614022    2.05683907990832   -3.85992603200073
F         4.62303373288711    2.71686348978894   -2.04303253910982
C         4.92005227074660   -1.03501232949151   -0.86730592957069
F         5.35386609588658   -0.45207588830481   -1.98125865327758
F         5.14292645153878   -2.33913927311179   -1.00324714649869
F         5.70437742108406   -0.61117153086585    0.11965558739362
C         2.84103082519036    3.32439911178427   -2.62817407941587
F         2.23127406184888    4.50005340761388   -2.75037746012491
F         3.10404037880940    2.89718378306489   -3.85992609894427
F         4.01248672303644    3.55720929213525   -2.04303264409737
C         2.50473491433418    4.35941144902977   -0.86730593917895
F         2.08438487052912    4.95213043104453   -1.98125838386969
F         3.81390519137296    4.16837996597314   -1.00324768478856
F         2.34400857369757    5.23632280881804    0.11965581818547
C        -2.82790274436383    2.05459160758554   -3.71645040671519
F        -3.82797483682855    2.78118494419178   -3.22571836876305
F        -2.11749631416700    2.85850222732984   -4.50254863174647
F        -3.37293748548841    1.13053297859378   -4.50255013394648
C        -3.37204091334889    3.72927672645244   -0.86730596148276
F        -4.06564647311728    3.51265957144659   -1.98125763710228
F        -2.78580317558591    4.91533944031226   -1.00324916143779
F        -4.25569947457670    3.84739838595791    0.11965645964809
C        -2.82790274436383   -2.05459160758554   -3.71645040671519
F        -3.82797483682855   -2.78118494419178   -3.22571836876305
F        -3.37293748548841   -1.13053297859378   -4.50255013394648
F        -2.11749631416700   -2.85850222732984   -4.50254863174647
C        -2.28376457660886   -3.72927671755932   -2.62817408867206
F        -3.59030321655004   -3.51265997057978   -2.75037870097715
F        -1.79618325340527   -3.84739782561575   -3.85992562899768
F        -2.14318168460923   -4.91533956626621   -2.04303190988614
C         0.54413818249354    1.67468516033722   -4.78849957845317
F         0.23767107904745    0.73147481112462   -5.67468925997942
F        -0.24013968171955    2.71686350152345   -5.04863903502921
F         1.79120914301982    2.05683909935453   -5.04863874564184
C         1.76086815247998    0.00000000000000   -4.78849957557021
F         0.76911826531252    0.00000000000000   -5.67468926254662
F         2.50968386795825    1.06794314680471   -5.04863888333743
F         2.50968386795825   -1.06794314680471   -5.04863888333743
180
 energy: -579.241491958464 gnorm: 9.755797471648 xtb: 6.4.1 (a3dbbd7)
C        -1.23665171725362    0.00012207865062    3.32473852328408
C        -0.38042740318774   -1.16941325202873    3.31466611017381
C         0.99817535301918   -0.72586561551383    3.31981334430881
C         0.99444239685761    0.72445408819434    3.31914601607451
C        -0.38190677537565    1.17485636630744    3.33142498569570
C         2.34459892567537   -2.60268294726569    0.59446878131422
C         3.18781046813017   -1.42437934101494    0.59283765388209
C         2.95226667986107   -0.69900898619396    1.82637436780866
C         1.96353378621408   -1.42689005292598    2.59412992393313
C         1.58189925772124   -2.59620533543727    1.82752898389130
C         3.20115293609485    1.42714378927583    0.59646230294217
C         2.34560136751699    2.60177828011114    0.59544974622435
C         1.57584381587109    2.59246540757724    1.82264926413297
C         1.95372349763143    1.41987802132432    2.58224210788204
C         2.95325460298125    0.69846757791260    1.82261716528039
C        -0.36891783261206    3.47722884726611    0.59155166262833
C        -1.74907971930783    3.03488520460485    0.59746166758903
C        -1.98706617634405    2.30599324783139    1.83026166352974
C        -0.75041300138219    2.30199046455132    2.59138345472808
C         0.24902017786018    3.02283296774584    1.82351425957255
C        -3.42755153922716    0.72688752590378    0.59577908543579
C        -3.42653716468359   -0.72810619784123    0.59200378946089
C        -2.80980653569851   -1.17529376013646    1.83137514556628
C        -2.42691500200955    0.00218025842110    2.59303386217666
C        -2.80455731544044    1.17554793769731    1.83165110681251
C        -1.74915286523780   -3.03359437429586    0.59516672667951
C        -0.36719464893782   -3.48308943303184    0.59572835229204
C         0.24833132969334   -3.02801642011355    1.82392761927009
C        -0.74978255107470   -2.30044146113067    2.58541051682888
C        -1.98510710096215   -2.30813757076477    1.83136243994842
C        -0.24501083028800   -3.02908496301395   -1.82774084025351
C         0.75075594005663   -2.30758802724022   -2.59468539208726
C         1.98426462230885   -2.30901293041104   -1.83046895686016
C         1.74818882612871   -3.03348042472693   -0.59670337933989
C         0.37031252449335   -3.48326755816673   -0.59573581607551
C         2.80244818778255   -1.17563555863457   -1.82999480827324
C         2.42650483390862   -0.00032964767907   -2.59505993919566
C         2.80589805129459    1.16960357241310   -1.82840044481759
C         3.42692577640658    0.72557368949592   -0.59611921813156
C         3.41762862010628   -0.72279553059755   -0.59461665135202
C         1.98024711947298    2.30420953344278   -1.82874427162223
C         0.74951077540251    2.30975402433908   -2.59450920356312
C        -0.25208612200124    3.03156912134423   -1.83044856271327
C         0.36779365063423    3.48359360003413   -0.59753239641086
C         1.74615183403032    3.03036874418026   -0.59188009563160
C        -1.57680423105211    2.60331437042923   -1.82997569069644
C        -1.96452840050981    1.42743315715614   -2.59663629389251
C        -2.96267261356214    0.69880250394460   -1.82718288531780
C        -3.19668905521598    1.42389582763686   -0.59924824649667
C        -2.34641840977184    2.60170200297554   -0.59587607324459
C        -2.96354036090539   -0.69861142036068   -1.82946111739069
C        -1.96071904079973   -1.42159871042124   -2.59354409838258
C        -1.58051085195411   -2.59733835460729   -1.82631465859869
C        -2.34631369469387   -2.60083749084485   -0.59629602664094
C        -3.19716264781168   -1.42401114183533   -0.59394669460944
C        -0.99867320346722   -0.72619769075738   -3.33144342109676
C        -0.99821402118278    0.72549773684116   -3.33076595611330
C         0.37913588920271    1.17519357754493   -3.32700628257894
C         1.23526196658323   -0.00169500693158   -3.32642810814042
C         0.38106650703551   -1.17611780779188   -3.33158871963773
C        -1.77760127114120    0.00386440648071    4.76608429397139
F        -0.79845086573550    0.03827274531312    5.70157194057335
F        -2.55844085251005   -1.01578205825688    5.05213462550558
F        -2.51208787449699    1.06959521543572    5.05312798465622
C        -0.54629456264954   -1.67927127935995    4.74517511732304
F        -0.26183742437138   -0.76590370918913    5.71245283501130
F        -1.76859828681215   -2.09082225565407    5.07831571544396
F         0.20601115193767   -2.72281446176464    5.08824236802122
C         1.42353538504967   -1.04080336853467    4.76049586265618
F         0.66135452942556   -0.47075980271083    5.70801422524032
F         1.47539164975684   -2.33366272355516    5.05645251737754
F         2.67258101957167   -0.68099527347805    5.05852681427115
C         1.43505076698197    1.03466237373240    4.74898391434843
F         0.62007169316992    0.50366887389884    5.70555685636503
F         2.65148241280854    0.64690239874943    5.08578219050360
F         1.36480320412529    2.33607268310936    5.08530060876974
C         4.56566756820320   -2.03687193812059    0.85750926272115
F         4.61966523488496   -2.81679352624374    1.95495594894084
F         4.97411787315237   -2.89710059237787   -0.10145148628896
F         5.56712169721557   -1.17386028239244    0.99271710079728
C         4.23167115677763   -1.00783416058099    2.60926181781786
F         4.45773872162559   -2.31880315425767    2.79796356010168
F         5.35762671934006   -0.52436361405192    2.08843434298485
F         4.21988861962648   -0.56968834994166    3.88203641614134
C         2.27033500195065   -3.71560153445669    2.61849494795557
F         3.58172950869116   -3.53727042723763    2.76316002088734
F         2.18057483464972   -4.92599228733935    2.02882592335451
F         1.84982871557870   -3.83043585218837    3.88207546119823
C         2.25332687169565    3.71182157485679    2.61697118723803
F         3.61274080854333    3.56617128022244    2.72493877743705
F         2.18422444125648    4.92370017733212    2.03464342010953
F         1.82123807098362    3.89754767860440    3.85043388158672
C         2.80662032100372    2.03991065071594    3.69028299304739
F         3.83185321463860    2.78465912130988    3.27141608488378
F         2.15689547756586    2.85078173982448    4.54052261576245
F         3.37930339725719    1.17366432397681    4.53947510387831
C         4.22420453659310    0.99703407060905    2.61654927164518
F         4.50715811814908    2.33180514694939    2.72541068309640
F         5.35864504877240    0.56604237573369    2.03748213404386
F         4.26478808370553    0.52398582052626    3.85669576650699
C        -0.52561486620868    4.98853629647817    0.85277818262022
F        -1.26001875907124    5.25962262162813    1.94743424738464
F        -1.18199183041681    5.61879247976189   -0.12018875223966
F         0.61187147795452    5.64440349088658    0.94168356602011
C        -1.07089834189181    3.30377714067293    3.71444286615405
F        -1.51221330034886    4.49514780929807    3.25282731549828
F        -2.06794091159237    2.90077881687814    4.50544204378125
F        -0.07546442380527    3.52226898083784    4.55381219207350
C         0.35939162604694    4.32759891279182    2.60908249551021
F        -0.82366436261566    4.98705395888061    2.77333247761658
F         1.15814252028995    5.24996014862450    2.09138601392975
F         0.81210491234674    4.22302480425413    3.85460584991153
C        -4.91931114990747    1.03547653093728    0.86641274581513
F        -5.36237394922856    0.47232290237703    1.96959252559916
F        -5.70575458808379    0.61086221400597   -0.12056982784012
F        -5.14521189597827    2.33878791694152    1.00468515701523
C        -4.03969593055640   -1.67393479918431    2.62614627544344
F        -4.96447846818249   -0.75157328221283    2.76490942134499
F        -4.62535156200000   -2.71653413446539    2.04455638807099
F        -3.71826354510166   -2.05897218156513    3.86095017567447
C        -2.50645865911043   -4.35606331031235    0.86520747535183
F        -2.10531561170049   -4.96136466184915    1.96238390974223
F        -2.34450054519229   -5.23992570854630   -0.11885279430289
F        -3.81446414233679   -4.17144547996870    1.00168174608958
C         0.34865279261379   -4.32841489949048    2.62054143048047
F        -0.81598579539100   -4.99241592628298    2.73574660428122
F         1.13437004234891   -5.26907710719595    2.02954653958215
F         0.81384006211799   -4.22334162265680    3.84861605060686
C        -1.07140145236660   -3.30508839699058    3.69927931926469
F        -1.49761666778745   -4.49385762884528    3.25752520260541
F        -0.07589477996043   -3.57438431827859    4.53401795908597
F        -2.09423674996896   -2.92220884787828    4.49762868418798
C        -0.33561990740858   -4.34812704392683   -2.61912823397570
F         0.84139742777389   -4.95485105139392   -2.75166894278292
F        -0.77694768052442   -4.17867592202598   -3.88150333911757
F        -1.13019283679552   -5.26340941612959   -2.03338661764923
C         4.02875072803451   -1.68159764539096   -2.62334907707645
F         4.96293119204920   -0.75062436345156   -2.79358710307441
F         3.71688899723879   -2.05889255152881   -3.86264447473808
F         4.59520266272829   -2.74710497250006   -2.10371482330805
C         4.02001346184861    1.66833417702084   -2.62074370832198
F         4.97415686416784    0.75708022213483   -2.76337807786506
F         3.73509207442391    2.02749251743912   -3.88300070169776
F         4.66763512425056    2.69901725259749   -2.02859533575786
C         4.88936776855919   -1.04977645114709   -0.85748561843005
F         5.39382420809240   -0.43735412458966   -1.95454209941383
F         5.18439202491203   -2.31696523093581   -0.98239441292182
F         5.73491977135115   -0.56785305860263    0.08896649869964
C         2.84431420566049    3.29659248194087   -2.60086635705788
F         2.22496066555030    4.50514068324610   -2.80480459287537
F         3.08425966612724    2.92669826439766   -3.88752247084332
F         4.01273457575709    3.56221789394932   -2.09608384714444
C         2.50691799309533    4.34551923432491   -0.86052526274269
F         2.06891952302204    4.98956126699900   -1.95222129505109
F         3.81190423374495    4.20576999090017   -0.93943794430032
F         2.34630059910433    5.24256693100961    0.11900179391764
C        -2.82783551130255    2.05398186039017   -3.71560427686094
F        -3.82578501449446    2.76959312634836   -3.24796911719985
F        -2.11954264904753    2.85982777184202   -4.50361310102322
F        -3.37369432347082    1.12988032356175   -4.50461441834175
C        -3.37199173831202    3.72805349162503   -0.86698832690352
F        -4.07150512917778    3.52610653550265   -1.96091981427386
F        -2.78777603317836    4.91676478701264   -1.00454771472570
F        -4.25563067758662    3.85081328230945    0.11999673487981
C        -2.81621247563182   -2.04740008081301   -3.71635511906296
F        -3.85673094773221   -2.74756442382922   -3.24814443345762
F        -3.37576282296649   -1.12979533377063   -4.50493043022350
F        -2.13272685130606   -2.80341604422373   -4.54794755837704
C        -2.25059734223318   -3.70883373641241   -2.62700522204628
F        -3.61093393609725   -3.55632549340618   -2.72480218708348
F        -1.81000256096127   -3.89380959422109   -3.83969856062415
F        -2.18234532289811   -4.92990594582677   -2.03044045279870
C         0.54327315441522    1.68072832625518   -4.78046618345035
F         0.20394531026299    0.76613070414092   -5.68360862897544
F        -0.23861379577693    2.71848692087603   -5.05073627596080
F         1.75356749260276    2.11452381550015   -5.05349856391353
C         1.76628865096582   -0.00411487102991   -4.78043657153240
F         0.79112850096325   -0.04057882382428   -5.68393826893441
F         2.55249154601019    1.01358327061558   -5.05311555058487
F         2.50968624456655   -1.06908397244569   -5.05209551003438
180
 energy: -588.336139794905 gnorm: 9.111175649219 xtb: 6.4.1 (a3dbbd7)
C        -1.23766798835014    0.00220711697268    3.32093977478959
C        -0.38197818367892   -1.16541243189368    3.30807451535106
C         0.99840930218927   -0.72524470052154    3.31379606263391
C         0.99061021389472    0.72283601912956    3.31188912912569
C        -0.38101125033916    1.17313464020191    3.33343587362238
C         2.34543439746688   -2.60319958176879    0.59398941448518
C         3.18475002410535   -1.42779355247527    0.59355199285234
C         2.94918318481655   -0.70098798563427    1.82701245964940
C         1.96480282995810   -1.42752021201512    2.59294151205349
C         1.58554001227572   -2.59412184461199    1.82605739513225
C         3.20303391894831    1.42833213135074    0.59960877054232
C         2.34682957948612    2.60271012756462    0.59666875102862
C         1.57300044810581    2.58384222467484    1.81518095177047
C         1.94688123178052    1.41511866238217    2.56803065587009
C         2.94705574593718    0.69922918216355    1.81538888191163
C        -0.37099514319446    3.47468356587850    0.58893127362626
C        -1.74826325996810    3.03538686220267    0.60059155970321
C        -1.98852976844337    2.30396974055311    1.82856969950843
C        -0.75242700354953    2.30022064228510    2.59166274319740
C         0.24848179639261    3.01845415339528    1.81832995810207
C        -3.43281255007860    0.72735107515288    0.59729606562837
C        -3.42453063482932   -0.72971024611424    0.58871695238812
C        -2.81284077604282   -1.17501312472643    1.83273376745066
C        -2.42839319074212    0.00443963837867    2.59118924091393
C        -2.80098415407715    1.17561189812913    1.83247549406880
C        -1.74923654352377   -3.03496079620334    0.59611785427746
C        -0.36664602234409   -3.48442490054608    0.59661945385974
C         0.24651722830061   -3.02730310683821    1.81953207508427
C        -0.75224281736691   -2.29809853010410    2.57710012686356
C        -1.98364188051073   -2.30937250990783    1.83143903364207
C        -0.23930534003811   -3.02783566231866   -1.82578459165146
C         0.75222815410456   -2.30696195841452   -2.59413539727335
C         1.98233441882679   -2.31184076195711   -1.82994512210126
C         1.74529546042050   -3.03337592483157   -0.59899877892473
C         0.37412232145304   -3.48192503462944   -0.59639947986115
C         2.79868750533818   -1.17582516182429   -1.83142148355629
C         2.42685033359405   -0.00105673428132   -2.59495547076154
C         2.80734403764873    1.16463724463585   -1.82724026459534
C         3.42857457865807    0.72398169866391   -0.59771632938375
C         3.41543412316981   -0.71890971974756   -0.59623704939445
C         1.97773785505236    2.30541621462113   -1.83014458748467
C         0.74933967973740    2.31236654422849   -2.59396765267801
C        -0.25380234313297    3.02898501530194   -1.82893791782048
C         0.36805510510460    3.48398264497263   -0.60061317035406
C         1.74317565198623    3.02959843563171   -0.58927011837665
C        -1.57266147612754    2.60340184740113   -1.82972594401625
C        -1.96738657129262    1.42950916170479   -2.59890814841721
C        -2.96185989810125    0.69884026588976   -1.82196824916369
C        -3.19434131280180    1.42182178742298   -0.60400514041951
C        -2.34921501499844    2.60435662965831   -0.59780365155765
C        -2.96561410491614   -0.69814095646447   -1.82856497067501
C        -1.96130801945864   -1.41822722070718   -2.59320838147579
C        -1.58272049606136   -2.59609096128417   -1.82372061129547
C        -2.34854475827937   -2.59940073498606   -0.59845424769991
C        -3.19528319994710   -1.42212529322929   -0.59269284346375
C        -0.99603985613359   -0.72506531092585   -3.33263680561836
C        -0.99670783263174    0.72369063173693   -3.33235141705541
C         0.37624088563125    1.17500732581477   -3.32465055786621
C         1.23490602865212   -0.00424809760886   -3.32518554187748
C         0.37947137867846   -1.17710799085735   -3.33143183928033
C        -1.79399481261527   -0.00045421651467    4.74523889918269
F        -0.83067064011113    0.09616724506897    5.72289854997777
F        -2.58823312442931   -0.97821836786399    5.05470640169087
F        -2.51303988711923    1.06877580560726    5.05594875899662
C        -0.55176039713869   -1.68130337998939    4.69559931860167
F        -0.32189285865306   -0.82921825109816    5.75269689447211
F        -1.73682706056435   -2.10139250256869    5.11051687538039
F         0.18690300941872   -2.72480670272039    5.13177786038330
C         1.41584518060366   -1.04410304087470    4.73394716032909
F         0.75572425086178   -0.48283731755337    5.72976355034299
F         1.52967262581131   -2.33234513105780    5.06061848070228
F         2.68328369341764   -0.73005937255744    5.06464382866170
C         1.45422143367661    1.02937456501732    4.70921538824783
F         0.60665600663431    0.56284241489551    5.74021486640125
F         2.63107568112003    0.67094295588115    5.11570181801985
F         1.30791592215295    2.31955360959888    5.13142629115214
C         4.54754948282093   -1.99972796969202    0.84838920513018
F         4.64251012884487   -2.84558524726747    1.93439941928944
F         4.97175091949007   -2.95412572130372   -0.07154189733529
F         5.57608470653332   -1.24421010171650    1.00353020932388
C         4.21646813230422   -0.98483427186978    2.58347912915908
F         4.46884650328139   -2.31081035216498    2.83579935783982
F         5.36053546252580   -0.56513413831823    2.14482470078932
F         4.21822698327681   -0.64922217278860    3.90830232951269