180
 energy: -612.110364123199 gnorm: 1.027567004111 xtb: 6.4.1 (a3dbbd7)
C        -1.28304168942982    0.02088294456742    3.39997359388449
C        -0.40270101632657   -1.18966844742503    3.41267403003915
C         1.02299044856346   -0.75323412268182    3.38278212466863
C         0.97153993714864    0.73345160034983    3.37286073975875
C        -0.39017418192572    1.15218274473806    3.28860942751334
C         2.30786772783014   -2.60279377666672    0.54727688949539
C         3.25186229097489   -1.48867264302569    0.60561607400690
C         3.00775107997516   -0.73221875823978    1.86879519246053
C         1.94699758307589   -1.42424792630199    2.54283949167612
C         1.64564702851854   -2.65626426899242    1.84956898904430
C         3.12722461911471    1.42395509925119    0.54068073622032
C         2.35676395868020    2.54816571517990    0.57864685694108
C         1.62144859476732    2.65539065329776    1.80906797643949
C         1.98085948533336    1.45252953675711    2.59397017946059
C         3.04546041451794    0.74175854615250    1.83790796471621
C        -0.40495771143404    3.56352958511175    0.58731967997891
C        -1.74855120698834    2.95709190344831    0.63415010985328
C        -1.98467188851651    2.29492790711347    1.76558263147415
C        -0.79610618475277    2.36025082785475    2.64808325798475
C         0.23076057828531    3.12111552019750    1.86778580868541
C        -3.51930429978011    0.73353602220275    0.60882849942114
C        -3.40717033790216   -0.73053982540333    0.56155074619226
C        -2.88458790388591   -1.18504257557821    1.85716418833917
C        -2.42454250596161    0.05137204785287    2.51228433864052
C        -2.77526855927913    1.14181557028631    1.83166733994876
C        -1.78817478099469   -3.10483898976327    0.60159993352749
C        -0.35107853178606   -3.44051104046275    0.53519463674632
C         0.24201375925143   -3.13017835578054    1.84252039024691
C        -0.78828749034293   -2.36272377067339    2.60757147783188
C        -1.96664711098331   -2.28708026681858    1.79260641243690
C        -0.22158394718606   -3.12748912669215   -1.87565642516513
C         0.76684063855965   -2.26554405846590   -2.56555262266773
C         1.92783555210743   -2.33284764888135   -1.81858904054746
C         1.73909463836080   -3.01369789984485   -0.60143697891757
C         0.37489291099336   -3.44972662580971   -0.56385461178837
C         2.84579698589463   -1.20333927728728   -1.88281390029025
C         2.40154246752395   -0.00803167954047   -2.55267587394092
C         2.87900808649402    1.16848460110422   -1.86776824794755
C         3.39364824084530    0.73654370288975   -0.57077852710082
C         3.50853163496117   -0.71647523933291   -0.62805356267321
C         1.99973084213132    2.36987569965205   -1.88864369073531
C         0.70850539938828    2.31819592500518   -2.56034262296342
C        -0.24371193405464    2.99416966670182   -1.80512008055135
C         0.34974208907492    3.45045547362235   -0.63243870676993
C         1.76611709141367    3.11342575113421   -0.60318611604263
C        -1.55301692200524    2.59486675913650   -1.82356552005648
C        -2.01980483676165    1.46362492927866   -2.65166864394658
C        -2.93834220945122    0.68642280515156   -1.77297685821253
C        -3.16113053491149    1.39766326303460   -0.63164336682023
C        -2.40471185700196    2.65495549646959   -0.62804417713839
C        -2.97452006438279   -0.67871716289518   -1.80661584384676
C        -2.03062138869108   -1.43322969817731   -2.66196108648716
C        -1.63622517631978   -2.64916627688412   -1.85709749564052
C        -2.36392559861569   -2.54027304000529   -0.59875167797850
C        -3.16432405823734   -1.41085058901870   -0.59476565167085
C        -0.94712977018731   -0.67948542530098   -3.29513012062084
C        -0.98623511057939    0.66389149655089   -3.29279184822529
C         0.37072983381603    1.20891171820717   -3.40852542963458
C         1.26575017677382   -0.01707739970091   -3.41734755994440
C         0.35910274398781   -1.19539991810673   -3.29462820382787
C        -1.89930161060754    0.08843843427131    4.79817373650085
F        -1.15369459034028    0.48800639823046    5.74232031998991
F        -2.80095656875335   -0.78876345053885    5.05719856251016
F        -2.68565869406683    1.10573275626480    4.98793152929321
C        -0.56763090540505   -1.70339768912944    4.85467450548015
F        -0.50548572900803   -1.12922262192053    6.06331691792326
F        -1.65446153823033   -2.10532580807973    5.37937112916549
F         0.17478759870408   -2.58075577100451    5.50601306168438
C         1.54131630239555   -1.13861218676761    4.75820018109219
F         1.23579630489191   -0.72270006530285    5.88798636995514
F         1.80781622591460   -2.35891396632292    5.01552348456863
F         2.79981153206768   -0.90904040917531    5.05038466025219
C         1.30289234369222    1.12815459640748    4.81622968119068
F         0.57881909927316    0.89092158612752    5.95213174912602
F         2.41793153691803    0.77397838124418    5.42695646199459
F         1.01408719452992    2.29985887484385    5.26037354029751
C         4.59503770034056   -2.14983938939664    0.80229212702098
F         4.83525811096604   -3.10011918692907    1.72524862913527
F         4.82300612249487   -3.26778142482406    0.05571853199188
F         5.72544654272371   -1.66737914507928    1.01043413890131
C         4.24730805470106   -1.02871821975264    2.71103911211679
F         4.54357675996527   -2.24532066475638    3.14369267120788
F         5.45405457322577   -0.77966618970953    2.52450464581473
F         4.20794486210933   -0.88074540957209    4.00218898938507
C         2.35819404344447   -3.77188837221027    2.64011597226860
F         3.58066172832631   -3.73006875547731    2.85263010667694
F         2.57267677769959   -4.86842356250827    1.96415918999092
F         2.22211767259543   -3.74164386980580    3.93077783887359
C         2.38024086255676    3.79045612401738    2.53335854303180
F         3.79646803820688    3.88417098011616    2.42542615234602
F         2.59222594285333    4.91786320397184    1.90971897315403
F         2.28676224606140    4.17797098404393    3.70608884768181
C         2.70902617709210    2.16198623029740    3.62808649201662
F         3.82831594314743    2.67660985639403    3.72927864135236
F         2.54418308070720    2.83247282944398    4.76617392117060
F         3.64529856330524    1.31574904151528    5.00870901063243
C         4.37348369434687    1.10089260718599    2.48838258302356
F         4.88702794563386    2.34722410179681    2.37851459676262
F         5.45618607641994    0.87537071291893    1.77331307927567
F         4.70798923824271    0.84509745653836    3.66367718448882
C        -0.60009795826370    5.07624786939907    0.75922088771338
F        -1.61465703045898    5.34968439438535    1.55714333275616
F        -1.15939224175682    5.65257504883323   -0.25440245759436
F         0.49673799176310    5.76824320479640    0.65275453063447
C        -1.20636842213243    3.29522015391620    3.79193549645485
F        -1.97979183598488    4.29112867494223    3.38702602449177
F        -2.15572159058651    2.86569562034847    4.53695209605371
F        -0.35709523114925    3.36422439636587    4.75381020785469
C         0.35428019805959    4.42638527585255    2.66991616219472
F        -0.56773768266549    5.36406686641826    3.02472334977415
F         0.98079800129661    5.46808509107683    2.32915998032740
F         0.60619569717569    4.55382709500676    3.92892929971878
C        -4.97890173307188    1.07041459994594    0.83826554586411
F        -5.47536086718454    0.62970285317638    1.91818082409266
F        -5.71477705043418    0.60811749033388   -0.15280280488959
F        -5.17817586939368    2.34349906759004    1.01043026080288
C        -4.08226959537529   -1.71502201640261    2.64842350961014
F        -4.98958637341239   -0.86782611266419    2.90639693165110
F        -4.66887966321415   -2.70224191723413    2.05163733784788
F        -3.82121015123757   -2.07391928456375    3.84439835636138
C        -2.57136459067055   -4.39200390538812    0.80822859441824
F        -2.32544704275422   -5.09019837600378    1.81064316284498
F        -2.33394043827301   -5.28426715237723   -0.10177861720859
F        -3.84961447399391   -4.19805478128333    0.92422833725213
C         0.35066837141627   -4.47567909216963    2.53417676605078
F        -0.63497656305929   -5.30208578597850    2.58647187240913
F         0.86746552562274   -5.47763365755886    1.83526482508645
F         0.76067056146291   -4.74485490556111    3.69121741350656
C        -1.18356861797980   -3.34859456600950    3.70858304919218
F        -1.82297928773746   -4.49973845435625    3.49627225391563
F        -0.47781310203487   -3.87850337683361    4.57931764562495
F        -2.41213912046355   -3.21814988538426    4.32070152488834
C        -0.22080411905105   -4.42919346045384   -2.65572493308433
F         0.98832233532241   -4.95027534510108   -2.73016865773804
F        -0.34668521671460   -4.25448793117041   -3.96868929339098
F        -0.72538295470841   -5.44236152384903   -2.02263334711204
C         3.99338136775201   -1.78384109007683   -2.72498165018504
F         4.86892416016793   -0.99732688138977   -3.16561832811129
F         3.65348837817529   -2.17931952793845   -3.90577309755933
F         4.44090368313995   -2.93490715370952   -2.28790459260613
C         4.12172762617249    1.66528096114486   -2.64539657562090
F         5.06234161997037    0.88293817837865   -2.87608440898652
F         4.00032346307668    1.76749183137568   -3.93592440267586
F         4.93407990947860    2.42954221572102   -1.89995284448978
C         4.99593085639768   -0.94297924955636   -0.84326510097201
F         5.74115340761127   -0.34572941399414   -1.76969028695309
F         5.54537127678941   -2.04470624642716   -1.14377387817895
F         5.79320895651729   -0.19803489290096   -0.06941090604282
C         2.80357268743521    3.32478093318308   -2.73095192841210
F         2.09557501429101    4.52325865326661   -3.19198237442271
F         2.89469624379740    3.21183507365586   -3.98132220382577
F         3.87955115372436    3.89167526852040   -2.43419628369354
C         2.53297282789499    4.42540419633275   -0.77989994114693
F         1.99620236868437    5.24157023008722   -1.63517661937681
F         3.83940679139051    4.28604848396964   -0.66307458181397
F         2.37733228967927    5.30332160560280    0.11895900868486
C        -2.84232319269045    2.04730204546028   -3.78265327331290
F        -3.87653898165239    2.69572734574703   -3.42676164555361
F        -2.17061970379173    2.88305398249955   -4.50963399879541
F        -3.36180013481832    1.11094805611259   -4.54061605677267
C        -3.40234666925054    3.78712083153622   -0.84167508253310
F        -4.18052043583210    3.63270329511184   -1.83185222447218
F        -2.82954171491740    4.92649998860407   -1.04407883710739
F        -4.22782209013548    3.92412116392913    0.15384628356879
C        -2.84918120997752   -1.96309641466469   -3.81920996519570
F        -4.00788212766299   -2.41695062913755   -3.48330872546720
F        -3.37177915396866   -1.02503675310955   -4.55764197521746
F        -2.12244461531121   -2.57436754527048   -4.73817649280105
C        -2.33944305217449   -3.79518535454481   -2.55392375716629
F        -3.78328014660367   -3.81672601023429   -2.47026201817483
F        -2.22715733376016   -4.11042981770812   -3.76223208016772
F        -2.50791850033997   -4.91990582100195   -2.00776766813307
C         0.48340452608115    1.77275786912846   -4.82306641837360
F        -0.08945986350599    1.05975484632523   -5.75587213551499
F        -0.24005118002123    2.83355025516049   -5.02565538702905
F         1.61201197139031    2.28732170880896   -5.14256765400233
C         1.82305013150757   -0.08412383410007   -4.82768640338023
F         0.96207406256751   -0.39817397719195   -5.75922233098109
F         2.68454929057494    0.81751957690435   -5.13273482724083
F         2.53475075524785   -1.13797461239150   -5.06972951559913
