63
 energy: -142.063591522780 gnorm: 0.137428772620 xtb: 6.4.1 (a3dbbd7)
C        -1.32333194775417    0.00617886347970    3.59125188963251
C        -0.38909456310608   -1.27772716531095    3.58793274117145
C         0.98734837171535   -0.72675165446744    3.28582848483634
C         0.97037352147027    0.69420630050098    3.25749094477592
C        -0.37633960723915    1.14742685553706    3.29074190055216
C         2.33092254703306   -2.58746567485154    0.56610397604514
C         3.16875994483946   -1.41579758165486    0.56774606192583
C         2.91978889080344   -0.69314490348597    1.79074016083681
C         1.93018806170321   -1.40549148670748    2.54814074589443
C         1.57476788296703   -2.59634073810083    1.79100274817011
C         3.18328087896891    1.41909085132624    0.57258499213333
C         2.33432229320876    2.58580968143883    0.57559918777772
C         1.57332139543398    2.57095369604789    1.79851755002390
C         1.94352282881158    1.40414426944103    2.54285112768194
C         2.93804115459266    0.69543633516321    1.79366637265872
C        -0.36752716666001    3.44413435035873    0.58029879258012
C        -1.74013210357057    3.00741588983283    0.58054459941955
C        -1.97818665379860    2.28654468588757    1.80361199533287
C        -0.73393250395930    2.25581684802015    2.55761528373596
C         0.24647420110131    2.98080949443068    1.80023381740862
C        -3.39591089216029    0.72883802558845    0.57533866561121
C        -3.37932885665645   -0.70504006359254    0.57786353554246
C        -2.74934612856665   -1.12865052488571    1.82052481704193
C        -2.40026274086307   -0.01382700939334    2.55826017594831
C        -2.77435746218519    1.16021035149421    1.80187148511327
C        -1.70577977915925   -3.00504292266898    0.57191390059864
C        -0.34657433486683   -3.46193150719564    0.56452064530943
C         0.25810980605866   -3.00738238851431    1.79111395103090
C        -0.74203335365356   -2.29289841924391    2.55243835495534
C        -1.91196172287597   -2.27950749485726    1.81757326885181
C        -0.23558165862281   -3.01371296632646   -1.83961821271520
C         0.75175047781152   -2.28700579367404   -2.59867644532734
C         1.98089777627659   -2.28868303835222   -1.84308617931945
C         1.74918768154887   -3.01946296828987   -0.62050040464920
C         0.38088379041600   -3.46658963937948   -0.62079308111870
C         2.79204993046375   -1.16413556659148   -1.83875967224219
C         2.41002754086118    0.00666527739579   -2.59106683151125
C         2.78807241943814    1.16926264052202   -1.83130610074559
C         3.40298548527550    0.72369088805355   -0.60835037131266
C         3.40110069057525   -0.71955382898331   -0.60923004493565
C         1.96912615256614    2.29475463280888   -1.82840259178522
C         0.74474441569639    2.29528025280401   -2.58515694980539
C        -0.24988429155059    3.01642431380723   -1.82795956514323
C         0.36353023978106    3.45499162487799   -0.59844520421847
C         1.73735095077191    3.01278425815446   -0.60243935985793
C        -1.56944867307335    2.59059487249377   -1.83048045584010
C        -1.94787757007795    1.42311330884846   -2.58910001301826
C        -2.94122296022124    0.70465889669871   -1.83002690890673
C        -3.17947337159538    1.42642572884929   -0.60816005298080
C        -2.33307692209202    2.59081264516620   -0.60600270171083
C        -2.93172079240255   -0.68656028280689   -1.82266620418654
C        -1.94059925011627   -1.40887980593779   -2.58138532694875
C        -1.55636984787224   -2.57670213587000   -1.82754179967090
C        -2.29848528094837   -2.57416283302738   -0.59738768824741
C        -3.15456863482430   -1.39758782868201   -0.59434922362650
C        -0.98936986995949   -0.71482485845558   -3.31408037280858
C        -0.99159024528376    0.72723605185279   -3.31429029098428
C         0.38014149579772    1.17201579903766   -3.31523274930469
C         1.22728121177112    0.00778684511203   -3.31823795360647
C         0.38205649969615   -1.16057927312445   -3.31917058806611
Cl       -2.09995733548554    0.29360223981566    5.20530702406437
Cl       -0.35034641589922   -2.11046483688082    5.19906768498811
Cl       -2.95476760025856   -2.14346252997747   -3.88827123593702
63
 energy: -142.087716379721 gnorm: 0.059220318848 xtb: 6.4.1 (a3dbbd7)
C        -1.32240591519128    0.00673587306583    3.59491672440235
C        -0.38826678356761   -1.27703721922259    3.59160658791610
C         0.98778160040627   -0.72617152258656    3.28796947616502
C         0.97075751759723    0.69447136352305    3.25925919877666
C        -0.37565541094391    1.14763337729210    3.29286011346563
C         2.33104481384365   -2.58695422330359    0.56795277133578
C         3.16901474942752   -1.41578054382648    0.56893009740559
C         2.91986654208379   -0.69284309947549    1.79128265102919
C         1.93041427581999   -1.40496027554980    2.54957171927324
C         1.57493378437792   -2.59571057884741    1.79324856768491
C         3.18430900720897    1.41980806018427    0.57332888235285
C         2.33532646551174    2.58656494204595    0.57634312245943
C         1.57375051818935    2.57111455473082    1.79912308433281
C         1.94374597349578    1.40430069849783    2.54272339575170
C         2.93831938847101    0.69579209396016    1.79427432280021
C        -0.36743113558307    3.44437768926900    0.58148751724762
C        -1.73960454400147    3.00737067437110    0.58240060174750
C        -1.97753611795933    2.28649288610137    1.80586227202931
C        -0.73334256429538    2.25585299773743    2.55904372093194
C         0.24678700577521    2.98078618360114    1.80077933520484
C        -3.39872882863589    0.72953394673878    0.58238663111923
C        -3.38129188262382   -0.70162766140292    0.58622759379826
C        -2.74903450367089   -1.12792771841530    1.82558700332394
C        -2.39982628932710   -0.01336161460170    2.56339024393171
C        -2.77392836476215    1.16043778261141    1.80662806910415
C        -1.70310704588828   -3.00797744407153    0.58026575186568
C        -0.34674606910232   -3.46484677788223    0.57155500357262
C         0.25848695737089   -3.00705830075968    1.79586897693894
C        -0.74142669747735   -2.29259027525347    2.55753821038472
C        -1.91116428452753   -2.27943444405030    1.82262471081511
C        -0.23299712130662   -3.00663488745556   -1.82708243557928
C         0.75490800165680   -2.28314758099273   -2.59578290930712
C         1.97998073803290   -2.28646077858798   -1.84158403240373
C         1.74887774037391   -3.01915113943367   -0.61809036134394
C         0.38269082224007   -3.46900925302824   -0.61447381980016
C         2.79488700500591   -1.16173433036310   -1.83764493953888
C         2.41745864758081    0.01113850936358   -2.59141351380068
C         2.79301613826425    1.17280137919549   -1.83024607176605
C         3.40515602016677    0.72494116573507   -0.60709742354368
C         3.40212374217273   -0.71882902465049   -0.60889134439538
C         1.97401541431491    2.29836366517095   -1.82734051501407
C         0.75128507840923    2.30097404038733   -2.58549907435679
C        -0.24672722602064    3.01837821450902   -1.82684531366042
C         0.36453409723189    3.45574669642642   -0.59810539471670
C         1.73921108440546    3.01445921685403   -0.60118337936801
C        -1.56761682860612    2.58903018571254   -1.82898891830572
C        -1.94322390874520    1.42491284427369   -2.58620857748181
C        -2.93365932958416    0.70489897382968   -1.81750314959775
C        -3.18120296269132    1.42886802054549   -0.60182453437873
C        -2.33286471772779    2.59041093000559   -0.60359578028601
C        -2.93091476092990   -0.68010825153933   -1.80759109415619
C        -2.00239471881002   -1.45363952443115   -2.65954732417881
C        -1.54995231391778   -2.57796904568214   -1.81248943271774
C        -2.29043752973345   -2.56837170498979   -0.59139181875691
C        -3.14658281762929   -1.39174203172829   -0.58835432999265
C        -0.97427516396337   -0.70379038236854   -3.33403637104414
C        -0.97864813130190    0.72837945806006   -3.30879273809637
C         0.39200420627214    1.17986527457145   -3.31744030876282
C         1.23839650111552    0.01666403990675   -3.32044470481324
C         0.38714308018757   -1.14863738946717   -3.31364353114887
Cl       -2.09849493460862    0.29500753676281    5.20881062066366
Cl       -0.34859915322920   -2.10952940138046    5.20260327179828
Cl       -3.04017086055122   -2.20532779613644   -3.99519480619856
63
 energy: -142.093734026225 gnorm: 0.013574642301 xtb: 6.4.1 (a3dbbd7)
C        -1.32080480484619    0.00790074847057    3.59969020208910
C        -0.38665952238148   -1.27588821652907    3.59636839885515
C         0.98909502379480   -0.72490080169073    3.29159234524024
C         0.97204030170284    0.69538659179415    3.26250261937954
C        -0.37403787069315    1.14846116974598    3.29645801030312
C         2.33109004299341   -2.58465687647504    0.57001343934295
C         3.17012268352514   -1.41429094786688    0.57147330308883
C         2.92068833821006   -0.69144274497019    1.79301264066607
C         1.93108004832437   -1.40364839870518    2.55180042923055
C         1.57563358646131   -2.59448415242492    1.79634263320817
C         3.18682759122668    1.42162254253787    0.57568797660521
C         2.33783580918547    2.58839570633356    0.57870211170480
C         1.57561284303323    2.57203922741507    1.80143745468328
C         1.94506221761874    1.40524955186698    2.54421224841369
C         2.93977101363224    0.69727132253120    1.79659276017661
C        -0.36566963935732    3.44497055354336    0.58403052899775
C        -1.73740305256363    3.00669838038851    0.58446029200345
C        -1.97615681302832    2.28676820683882    1.80895935124430
C        -0.73187508124247    2.25606461995076    2.56126413177214
C         0.24837768437129    2.98112877952420    1.80250685497983
C        -3.39534065543828    0.72807570247239    0.58601578973897
C        -3.37753355845717   -0.69943673155567    0.58796080020401
C        -2.74678145022977   -1.12642097096627    1.82785296042377
C        -2.39799203580035   -0.01273901454967    2.56783234547189
C        -2.77318410574449    1.16101869714447    1.81127931303470
C        -1.69985588246570   -3.00507554649138    0.58200481491114
C        -0.34706958284087   -3.46118367060808    0.57519477270959
C         0.25929309132890   -3.00654265459617    1.80051803485418
C        -0.74024505189053   -2.29100488115766    2.56195112321990
C        -1.90903271063645   -2.27775674721347    1.82488565403133
C        -0.23774714398248   -3.00172364175969   -1.82502893800574
C         0.75616246234197   -2.28270149234323   -2.59643221279984
C         1.97689662749931   -2.28209209385685   -1.84050806354165
C         1.74731494291211   -3.01488223995241   -0.61583718197005
C         0.38064848255299   -3.46107737341410   -0.61250463800497
C         2.79742997397556   -1.15892511426984   -1.83507940519178
C         2.42027186920978    0.01429195340386   -2.58847985771636
C         2.79816728177342    1.17637704450376   -1.82844301477106
C         3.40840814533550    0.72740077095613   -0.60456501482993
C         3.40327688156827   -0.71705845749015   -0.60718254470108
C         1.97900453928732    2.30215813894023   -1.82553544945280
C         0.75515636265205    2.30266933738536   -2.58256767666250
C        -0.24326868275009    3.01992189512885   -1.82428212863323
C         0.36657535659475    3.45629569854744   -0.59639928104849
C         1.74255663126730    3.01678873477548   -0.59865014433645
C        -1.56440987767238    2.58474313339518   -1.82793471742512
C        -1.94241317337369    1.42596408482513   -2.58685420612192
C        -2.93043899074514    0.69885842103547   -1.81547134806555
C        -3.17427919406495    1.42447854206148   -0.59988411789743
C        -2.32927746709402    2.58759940595320   -0.60136205403894
C        -2.93504468982499   -0.68111439463622   -1.80876029985292
C        -2.05864544001914   -1.49439580941647   -2.72650151906907
C        -1.55218497002323   -2.58158645987525   -1.81366828692269
C        -2.28133748567498   -2.56098727937824   -0.59487533958067
C        -3.13677102265873   -1.38535403135366   -0.59184017049294
C        -0.96916491592432   -0.70007685939465   -3.33270795308635
C        -0.97537292540075    0.72159313148933   -3.30196389421210
C         0.39536383497763    1.18089371585750   -3.31252274317927
C         1.24042238127218    0.01952613113387   -3.31552398013920
C         0.38171380232724   -1.14345777988011   -3.30678225369108
Cl       -2.09465401865842    0.29688926270660    5.21444522370708
Cl       -0.34570477296421   -2.10651473638251    5.20822994893652
Cl       -3.09957526241194   -2.24833202989694   -4.07900777666891
63
 energy: -142.094047276476 gnorm: 0.008188682954 xtb: 6.4.1 (a3dbbd7)
C        -1.32029401181065    0.00854167478493    3.60240342906616
C        -0.38588214661529   -1.27562310625810    3.59911487793608
C         0.98983140758593   -0.72431089268239    3.29366822280467
C         0.97279237145899    0.69592378868621    3.26444296780598
C        -0.37323980458295    1.14896296509658    3.29851721533839
C         2.33054432607792   -2.58315070554581    0.57069958937927
C         3.17054935817790   -1.41349993699666    0.57290360775232
C         2.92126725139424   -0.69077327182602    1.79434729621764
C         1.93155432996374   -1.40298343393952    2.55326554053167
C         1.57583098939592   -2.59345049486810    1.79760543820625
C         3.18802984332344    1.42239707407250    0.57706618493864
C         2.33894728145929    2.58929593908887    0.58008280962016
C         1.57659435255442    2.57262965450689    1.80300136603025
C         1.94585294238143    1.40581810559122    2.54558177097264
C         2.94063876390073    0.69801692862631    1.79815501347371
C        -0.36478470276839    3.44512019083253    0.58546192899453
C        -1.73613522736542    3.00570504882564    0.58514395827070
C        -1.97510427008881    2.28661303092081    1.81021424022670
C        -0.73108859566956    2.25629366137414    2.56272281431290
C         0.24919624220957    2.98145784671627    1.80384045499808
C        -3.39240642763656    0.72692298894909    0.58600924048208
C        -3.37400766025590   -0.69955909536155    0.58642191559838
C        -2.74456202841761   -1.12532079968616    1.82760283176511
C        -2.39714779191011   -0.01230369464906    2.56962734122361
C        -2.77233420769105    1.16109172351267    1.81261490762326
C        -1.69889091855048   -3.00167753854821    0.58047173029572
C        -0.34726347859451   -3.45802872828590    0.57519243025450
C         0.25962984271429   -3.00574830528849    1.80184949022745
C        -0.73956717863466   -2.29035395280139    2.56377120152562
C        -1.90729046696531   -2.27596274324572    1.82462628610934
C        -0.24098782528347   -3.00247205169480   -1.82842922961847
C         0.75678256841410   -2.28421201427622   -2.59797348958453
C         1.97578197472684   -2.28053074136125   -1.84037354505545
C         1.74570252758368   -3.01183118546474   -0.61520408970144
C         0.37847104718060   -3.45598006052920   -0.61328313681111
C         2.79790771331917   -1.15812629513465   -1.83365562543735
C         2.41988967293343    0.01492712434284   -2.58663213815116
C         2.79942815713841    1.17723349524587   -1.82739211798616
C         3.40967641562010    0.72827277235028   -0.60328159423478
C         3.40352500531553   -0.71643574131656   -0.60601014320198
C         1.98020701638401    2.30309095359597   -1.82448122184081
C         0.75564452821148    2.30210653191645   -2.58071992631637
C        -0.24236060729314    3.02012779052478   -1.82285493437730
C         0.36724508608056    3.45633639315421   -0.59522315890449
C         1.74377816486388    3.01772201631337   -0.59736334105297
C        -1.56326883593031    2.58320396019815   -1.82780037702413
C        -1.94366164386019    1.42702072897049   -2.58837479067966
C        -2.93216312196272    0.69601686081407   -1.81887024075045
C        -3.17010412627543    1.42083829025460   -0.60067686340310
C        -2.32686385397973    2.58511899034521   -0.60073516943175
C        -2.94103274389599   -0.68462765973996   -1.81644416737967
C        -2.07306279969781   -1.50484440109996   -2.74207308531244
C        -1.55738694549475   -2.58617456086903   -1.82135838626154
C        -2.27960423005256   -2.55955873047204   -0.59875214014322
C        -3.13489735416253   -1.38413583652462   -0.59571546531698
C        -0.97133627921304   -0.70166382765715   -3.32926001587324
C        -0.97741045033903    0.71817493145812   -3.30100636496038
C         0.39433863113392    1.17955185903923   -3.30902038341872
C         1.23883552893806    0.01895581261217   -3.31202013154596
C         0.37783529800461   -1.14434486508699   -3.30582297509597
Cl       -2.09234947384091    0.30071324402085    5.21757065438773
Cl       -0.34138891805701   -2.10547321507381    5.21143373664251
Cl       -3.10646251145412   -2.25329543690116   -4.09649994302270
63
 energy: -142.094145351883 gnorm: 0.004726631500 xtb: 6.4.1 (a3dbbd7)
C        -1.32011603019700    0.00864764710647    3.60332246832213
C        -0.38573543787412   -1.27547313792682    3.60000134429614
C         0.99012603665733   -0.72411865000410    3.29433661717682
C         0.97299981446271    0.69607057280173    3.26483738540717
C        -0.37296304406003    1.14917945840187    3.29918056145086
C         2.33033379393206   -2.58271055498796    0.57090025704308
C         3.17079427936240   -1.41339027879872    0.57340142121733
C         2.92154949122343   -0.69066644971288    1.79476773432627
C         1.93186951865067   -1.40286500934015    2.55389678158317
C         1.57596564692781   -2.59309570771437    1.79818026299268
C         3.18836186937718    1.42254085170135    0.57721347947087
C         2.33918601186969    2.58956783972409    0.58022943698136
C         1.57684269208738    2.57280846414085    1.80331818298746
C         1.94605720599607    1.40596586733681    2.54571425500217
C         2.94088531251856    0.69819700436734    1.79847298995339
C        -0.36460431990437    3.44532188399124    0.58595838640543
C        -1.73578316306757    3.00537010894185    0.58534182080664
C        -1.97472714403418    2.28663560431371    1.81079016012132
C        -0.73087642925381    2.25655829926281    2.56335374579641
C         0.24938739242310    2.98169726849170    1.80425941422968
C        -3.39099093805109    0.72660047643953    0.58597799941703
C        -3.37143993888204   -0.69956063765241    0.58543869493884
C        -2.74293362697761   -1.12452651723615    1.82717792477631
C        -2.39743502704391   -0.01189001698138    2.57084844797196
C        -2.77225968754506    1.16139714150174    1.81350097513059
C        -1.69809997579865   -2.99922652379999    0.57949586032562
C        -0.34712962773931   -3.45658241208882    0.57516797427088
C         0.25994862048557   -3.00577644989627    1.80273361298429
C        -0.73925278986479   -2.29074223815517    2.56496726470905
C        -1.90603615080000   -2.27466341489789    1.82420480440062
C        -0.24238432536749   -3.00302328824126   -1.83021249690016
C         0.75788976007011   -2.28573324084758   -2.59886750195677
C         1.97573236834650   -2.28034103464056   -1.84053555365604
C         1.74484452314991   -3.01028884846224   -0.61494601799597
C         0.37723786272017   -3.45333352387617   -0.61369872849045
C         2.79830157839177   -1.15815686708941   -1.83314256988185
C         2.41950065874762    0.01491866752304   -2.58597366445456
C         2.79963786435495    1.17731564277969   -1.82723658748105
C         3.41014994788332    0.72841251561078   -0.60310808479964
C         3.40362656937164   -0.71647964365007   -0.60571541164678
C         1.98034977182397    2.30326566283505   -1.82432648012932
C         0.75551845271621    2.30173514509794   -2.58006348384101
C        -0.24226759478074    3.02050677536059   -1.82234241580326
C         0.36723478722391    3.45644548788796   -0.59493070151626
C         1.74405680442598    3.01813081533863   -0.59719059139670
C        -1.56310468332110    2.58309362416947   -1.82796585863716
C        -1.94477237087511    1.42854323247797   -2.58926802969052
C        -2.93311932587041    0.69486031261190   -1.82065713733000
C        -3.16796763440690    1.41885021829399   -0.60110757581098
C        -2.32566468147285    2.58382617962703   -0.60048795524739
C        -2.94419699809628   -0.68653300430203   -1.82119795978164
C        -2.07937918746127   -1.50942495520420   -2.74856969719145
C        -1.56018349495271   -2.58858520717367   -1.82611273222973
C        -2.27818261043317   -2.55851866372854   -0.60071946238895
C        -3.13347363110512   -1.38309780394844   -0.59768294012205
C        -0.97281830122043   -0.70275539219096   -3.32509335219209
C        -0.97918656479475    0.71626777820728   -3.30021361657715
C         0.39339950678488    1.17848806737725   -3.30674841572611
C         1.23754215472013    0.01838004238095   -3.30974695186197
C         0.37547836156788   -1.14545211432035   -3.30502438685322
Cl       -2.08838171967231    0.29713466118542    5.22084673488207
Cl       -0.34361684310882   -2.10066065818110    5.21466197530636
Cl       -3.10375736014374   -2.25131201868229   -4.10149031197603
63
 energy: -142.094162516754 gnorm: 0.003087517794 xtb: 6.4.1 (a3dbbd7)
C        -1.32116334917801    0.00886961798741    3.60514733536971
C        -0.38584848838897   -1.27653862558312    3.60179388388363
C         0.98965438571094   -0.72455002355031    3.29445935739988
C         0.97236956914884    0.69561437290735    3.26508491357035
C        -0.37352221267804    1.14886890304806    3.29930011516541
C         2.33029066301611   -2.58295716479212    0.57081677792505
C         3.17077942250358   -1.41364785510754    0.57348766827370
C         2.92130231825320   -0.69092502956771    1.79477994550400
C         1.93157986517126   -1.40306500172211    2.55389145015072
C         1.57595161568843   -2.59321089832726    1.79825410397653
C         3.18800890584532    1.42225349151083    0.57717653985432
C         2.33880095839037    2.58932266733011    0.58018928464378
C         1.57642403950825    2.57242602715733    1.80333528210599
C         1.94542005743713    1.40550726926167    2.54565017891363
C         2.94039131346121    0.69792129029816    1.79849597122989
C        -0.36485605326840    3.44539258529408    0.58603406222522
C        -1.73603673610492    3.00540972272656    0.58525264811823
C        -1.97485316513088    2.28667755213435    1.81086692570221
C        -0.73116061416684    2.25635497853921    2.56334557358813
C         0.24906227883559    2.98155135242606    1.80426284485218
C        -3.39054132371684    0.72661277150393    0.58606066251634
C        -3.36980474985788   -0.69954243330420    0.58523582409925
C        -2.74184119315934   -1.12400394844787    1.82718469243043
C        -2.39774783961677   -0.01141018327394    2.57171219593968
C        -2.77243192773340    1.16166038744695    1.81395407086038
C        -1.69758276683335   -2.99767445543525    0.57929771406126
C        -0.34697885273778   -3.45616103311981    0.57525218055097
C         0.26014560945480   -3.00602541764730    1.80318344319887
C        -0.73888604024699   -2.29116188304400    2.56579134667527
C        -1.90521773148564   -2.27379932536362    1.82421781393007
C        -0.24284183683209   -3.00318866150325   -1.83064976478949
C         0.75888779534405   -2.28688828574605   -2.59920337660655
C         1.97603859174011   -2.28082499182924   -1.84079122554647
C         1.74447611636087   -3.00990815735019   -0.61492398515702
C         0.37656377802742   -3.45232035261172   -0.61381221621205
C         2.79858712294823   -1.15853438804625   -1.83300903824095
C         2.41927444173278    0.01469714383810   -2.58581771329530
C         2.79938646854384    1.17708532386273   -1.82722744475820
C         3.41005645946195    0.72820605425467   -0.60311711850050
C         3.40356029883254   -0.71680991207016   -0.60573394894831
C         1.98005523368107    2.30309688358124   -1.82432120470552
C         0.75524079707918    2.30158322891235   -2.57991238615417
C        -0.24253805159876    3.02089029994696   -1.82221612767778
C         0.36689962511636    3.45648297774410   -0.59495934181061
C         1.74383104872864    3.01810740944543   -0.59720473440735
C        -1.56347169647303    2.58352928937029   -1.82822815012668
C        -1.94556697969878    1.42984809749427   -2.58961035626101
C        -2.93341199783776    0.69447386376526   -1.82109725147867
C        -3.16721051866721    1.41789971777734   -0.60123083310523
C        -2.32542494083331    2.58336148696169   -0.60047833223281
C        -2.94527903010322   -0.68728235676448   -1.82320794941316
C        -2.08224843378295   -1.51150721842654   -2.75149717861624
C        -1.56123408046225   -2.58938130796032   -1.82812171405128
C        -2.27701206484723   -2.55769689854663   -0.60123472099794
C        -3.13232292536535   -1.38223165514822   -0.59819686366514
C        -0.97343746372683   -0.70322086331097   -3.32095132893071
C        -0.98024516355462    0.71523596498799   -3.29922583546050
C         0.39286227158188    1.17783859243044   -3.30539335094419
C         1.23676737009481    0.01805846839065   -3.30838940620149
C         0.37417738042484   -1.14614998463738   -3.30403093326819
Cl       -2.09454132678617    0.31103223909628    5.21799961629651
Cl       -0.33233423512343   -2.11090368394434    5.21165262688883
Cl       -3.09728401203034   -2.24659898169390   -4.10125091721915
63
 energy: -142.094197037290 gnorm: 0.001884947144 xtb: 6.4.1 (a3dbbd7)
C        -1.32064593937423    0.00861527641367    3.60375462497686
C        -0.38592895178414   -1.27597335707112    3.60041999096854
C         0.98983865085907   -0.72437309478385    3.29400223721593
C         0.97255037305848    0.69575090792782    3.26441647842141
C        -0.37330108878243    1.14899359057521    3.29884001318112
C         2.33033674103860   -2.58326820626003    0.57067634245811
C         3.17069499883489   -1.41382410283477    0.57313027995452
C         2.92129911486542   -0.69100338140620    1.79439255200659
C         1.93169558799453   -1.40315597550149    2.55365622781263
C         1.57584528194743   -2.59335960104033    1.79808387989748
C         3.18786372350662    1.42216422376505    0.57663615039118
C         2.33866900109716    2.58921391223988    0.57964898933683
C         1.57636137036144    2.57243696066561    1.80279123985565
C         1.94555627952824    1.40560986916957    2.54509760029303
C         2.94038172099423    0.69786249098282    1.79795253037848
C        -0.36505217493085    3.44536592570529    0.58567553391202
C        -1.73631984945578    3.00554913199217    0.58511229099693
C        -1.97503177271200    2.28662437925463    1.81069537057240
C        -0.73121577136022    2.25649365498145    2.56310900997283
C         0.24898273785391    2.98157194621944    1.80387387981114
C        -3.39117199287425    0.72684345532618    0.58615983959302
C        -3.37037461634128   -0.69952151590003    0.58539417954809
C        -2.74214232346525   -1.12417481651888    1.82696878772947
C        -2.39812116145292   -0.01157143356138    2.57143329227718
C        -2.77283655253669    1.16169759980103    1.81395644713972
C        -1.69774411729192   -2.99822742120534    0.57945585192574
C        -0.34695778591863   -3.45683267020887    0.57534951204411
C         0.26005398114748   -3.00641772253127    1.80318510918757
C        -0.73915759315013   -2.29146428550397    2.56551514575586
C        -1.90547923206283   -2.27403050607665    1.82400195967565
C        -0.24239642594347   -3.00300400753339   -1.82994633874000
C         0.75893757325677   -2.28686433373911   -2.59897777422603
C         1.97624090490729   -2.28130573830554   -1.84092341894898
C         1.74469114152002   -3.01049070909828   -0.61502787156127
C         0.37678628126569   -3.45312504890164   -0.61365229061090
C         2.79854769166710   -1.15880040647279   -1.83334794292253
C         2.41933881089992    0.01450573184197   -2.58629234216047
C         2.79912403689823    1.17689577828714   -1.82761684572523
C         3.40984174645823    0.72803723113745   -0.60357556131530
C         3.40346851195682   -0.71698661787853   -0.60611692305341
C         1.97979369386346    2.30290621369769   -1.82471070257827
C         0.75507782170198    2.30170468924256   -2.58038664013947
C        -0.24280360419667    3.02093747415346   -1.82255570769398
C         0.36670178465420    3.45645061640453   -0.59534247274494
C         1.74360267153175    3.01795604410245   -0.59766322784368
C        -1.56386634195888    2.58387268697409   -1.82835920118047
C        -1.94552649806858    1.42988819054121   -2.58938325107259
C        -2.93309655168420    0.69483945912340   -1.82039307242529
C        -3.16790594247282    1.41836146123620   -0.60106847151593
C        -2.32591283364147    2.58374784893528   -0.60058089419809
C        -2.94426737799805   -0.68670678227770   -1.82202109880130
C        -2.08105466465557   -1.51064131037630   -2.75052883674944
C        -1.56037291563465   -2.58860040975193   -1.82693414162578
C        -2.27703928424685   -2.55778213698793   -0.60071516993798
C        -3.13240778024074   -1.38223144254287   -0.59767700356620
C        -0.97296680448153   -0.70288041423496   -3.32026969516526
C        -0.97997199446630    0.71555752218691   -3.29895953429956
C         0.39300555740963    1.17797788444681   -3.30590912690838
C         1.23694285806322    0.01815278317452   -3.30890469215459
C         0.37456806506352   -1.14599134012545   -3.30376658351497
Cl       -2.08907658590370    0.29992941059285    5.22059414275070
Cl       -0.34119823826727   -2.10231469319367    5.21431465121672