72
 energy: -177.369045741354 gnorm: 0.257544251694 xtb: 6.4.1 (a3dbbd7)
C        -1.23626340000000    0.00000000000000    3.32997640000000
C        -0.38202640000000   -1.17575640000000    3.32997640000000
C         1.00015810000000   -0.72665740000000    3.32997640000000
C         1.00015810000000    0.72665740000000    3.32997640000000
C        -0.38202640000000    1.17575640000000    3.32997640000000
C         2.34433560000000   -2.60145750000000    0.59464210000000
C         3.19857260000000   -1.42570110000000    0.59464210000000
C         2.96246730000000   -0.69904370000000    1.83090550000000
C         1.96230920000000   -1.42570110000000    2.59495830000000
C         1.58028280000000   -2.60145750000000    1.83090550000000
C         3.19857260000000    1.42570110000000    0.59464210000000
C         2.34433560000000    2.60145750000000    0.59464210000000
C         1.58028280000000    2.60145750000000    1.83090550000000
C         1.96230920000000    1.42570110000000    2.59495830000000
C         2.96246730000000    0.69904370000000    1.83090550000000
C        -0.36750900000000    3.48258920000000    0.59464210000000
C        -1.74969350000000    3.03349030000000    0.59464210000000
C        -1.98579880000000    2.30683290000000    1.83090550000000
C        -0.74953540000000    2.30683290000000    2.59495830000000
C         0.25062270000000    3.03349030000000    1.83090550000000
C        -3.42570570000000    0.72665740000000    0.59464210000000
C        -3.42570570000000   -0.72665740000000    0.59464210000000
C        -2.80757400000000   -1.17575640000000    1.83090550000000
C        -2.42554760000000    0.00000000000000    2.59495830000000
C        -2.80757400000000    1.17575640000000    1.83090550000000
C        -1.74969350000000   -3.03349030000000    0.59464210000000
C        -0.36750900000000   -3.48258920000000    0.59464210000000
C         0.25062270000000   -3.03349030000000    1.83090550000000
C        -0.74953540000000   -2.30683290000000    2.59495830000000
C        -1.98579880000000   -2.30683290000000    1.83090550000000
C        -0.25062270000000   -3.03349030000000   -1.83090550000000
C         0.74953540000000   -2.30683290000000   -2.59495830000000
C         1.98579880000000   -2.30683290000000   -1.83090550000000
C         1.74969350000000   -3.03349030000000   -0.59464210000000
C         0.36750900000000   -3.48258920000000   -0.59464210000000
C         2.80757400000000   -1.17575640000000   -1.83090550000000
C         2.42554760000000    0.00000000000000   -2.59495830000000
C         2.80757400000000    1.17575640000000   -1.83090550000000
C         3.42570570000000    0.72665740000000   -0.59464210000000
C         3.42570570000000   -0.72665740000000   -0.59464210000000
C         1.98579880000000    2.30683290000000   -1.83090550000000
C         0.74953540000000    2.30683290000000   -2.59495830000000
C        -0.25062270000000    3.03349030000000   -1.83090550000000
C         0.36750900000000    3.48258920000000   -0.59464210000000
C         1.74969350000000    3.03349030000000   -0.59464210000000
C        -1.58028280000000    2.60145750000000   -1.83090550000000
C        -1.96230920000000    1.42570110000000   -2.59495830000000
C        -2.96246730000000    0.69904370000000   -1.83090550000000
C        -3.19857260000000    1.42570110000000   -0.59464210000000
C        -2.34433560000000    2.60145750000000   -0.59464210000000
C        -2.96246730000000   -0.69904370000000   -1.83090550000000
C        -1.96230920000000   -1.42570110000000   -2.59495830000000
C        -1.58028280000000   -2.60145750000000   -1.83090550000000
C        -2.34433560000000   -2.60145750000000   -0.59464210000000
C        -3.19857260000000   -1.42570110000000   -0.59464210000000
C        -1.00015810000000   -0.72665740000000   -3.32997640000000
C        -1.00015810000000    0.72665740000000   -3.32997640000000
C         0.38202640000000    1.17575640000000   -3.32997640000000
C         1.23626340000000    0.00000000000000   -3.32997640000000
C         0.38202640000000   -1.17575640000000   -3.32997640000000
C        -1.76086815247998    0.00000000000000    4.78849957557021
F        -0.76911826531252    0.00000000000000    5.67468926254662
F        -2.50968386795825   -1.06794314680471    5.04863888333743
F        -2.50968386795825    1.06794314680471    5.04863888333743
C        -4.58877084110522    2.05459160147071   -0.86730597290559
F        -4.59709252483521    2.78118520641283   -1.98125951001435
F        -5.53562669678859    1.13053295630600   -1.00324569798425
F        -4.97417519512416    2.85850196315549    0.11965482382298
C         1.08016271022039   -3.32439912180418   -3.71645041587937
F         1.46215754230406   -4.50005299330749   -3.22571838851551
F         0.03290491502765   -3.55721032900471   -4.50254840736000
F         2.06425285383526   -2.89718320022386   -4.50255037491024
72
 energy: -177.428617753060 gnorm: 0.158941472801 xtb: 6.4.1 (a3dbbd7)
C        -1.24053272377718   -0.00405153966980    3.34320587329055
C        -0.35656795560268   -1.19272603246844    3.34244358120769
C         1.00455806418881   -0.72504189516894    3.32070477995275
C         1.00201908961867    0.72561761908309    3.31984150158988
C        -0.35801482288252    1.18709622944120    3.34047412804711
C         2.34351431154959   -2.59278201210221    0.60096155567557
C         3.18938444576677   -1.42158619649898    0.59647889737535
C         2.95335788199619   -0.69567237152429    1.82378217529627
C         1.96349704915920   -1.42279615409109    2.58762386017735
C         1.58208161212724   -2.59130142437330    1.82972066966148
C         3.18575725340808    1.42075006908391    0.58999974784881
C         2.33894437819161    2.59130609099967    0.59141969561468
C         1.58078284100009    2.59205694901392    1.82304858677388
C         1.96365854428698    1.42467629542484    2.58546404801878
C         2.95173070638646    0.69769912730676    1.82326111438229
C        -0.35744466431982    3.47179585523768    0.59375939722787
C        -1.72730073739049    3.01586094882802    0.59083594680405
C        -1.96731518312516    2.29186602257082    1.82084797639362
C        -0.73483383078478    2.29795743510430    2.58608193397841
C         0.25656811784640    3.02442251789769    1.82539285112398
C        -3.41469680669418    0.70157848338897    0.60737159848463
C        -3.41995099039720   -0.72793725817817    0.58883149042959
C        -2.79471421691199   -1.17536631807386    1.81648621031849
C        -2.43539574211579   -0.01097750449866    2.55002276694344
C        -2.78657403523023    1.15615037258943    1.80781377482240
C        -1.74284513357354   -3.02179407761045    0.60579532607647
C        -0.36934083004540   -3.46061098623244    0.60455110464642
C         0.25785203665243   -3.02513889003107    1.83285721115300
C        -0.73176466463009   -2.30087821891115    2.59331835271291
C        -1.97155683572238   -2.30318038227214    1.82821413397746
C        -0.26019261035023   -3.00944949427413   -1.79431026685142
C         0.76580753547511   -2.33402513640459   -2.63325883268585
C         1.99318279338175   -2.31127184275227   -1.80102803505699
C         1.74243050409495   -3.02236529217084   -0.58093305227091
C         0.36214829938399   -3.46500397907080   -0.58255448231833
C         2.79421523765354   -1.17378294153562   -1.81249176943091
C         2.41394483024342    0.00227640653611   -2.58473120148667
C         2.79470340355362    1.16926151205609   -1.82458617779882
C         3.41172904719534    0.72201323429063   -0.59349409413578
C         3.41453427494252   -0.72436080082639   -0.59042831864785
C         1.97963452355611    2.30177538007588   -1.82235093553967
C         0.74721064661642    2.30845303435342   -2.58436842231898
C        -0.24268484893979    3.03052074701716   -1.82396061101151
C         0.37126394219114    3.47165314042482   -0.59229839074024
C         1.74656092770201    3.02297209542649   -0.59460633719203
C        -1.56655569212736    2.59218153781063   -1.82500756749013
C        -1.94865710045312    1.42089023019908   -2.58577732725763
C        -2.92942775448263    0.68266976234646   -1.83866754246405
C        -3.25688642678669    1.45377386128624   -0.61413848462488
C        -2.30672855131376    2.59490932267989   -0.59896255945290
C        -2.93581096460888   -0.70320609176218   -1.83061870201336
C        -1.95701461444158   -1.42330689531283   -2.59609285916568
C        -1.57752856679886   -2.58380376903271   -1.81102874293118
C        -2.34335502066856   -2.58616369635236   -0.58689819562927
C        -3.19030629843566   -1.42836371521525   -0.59520907809818
C        -0.99527877115385   -0.71124077612108   -3.32641478186469
C        -0.99314273266760    0.73442622748666   -3.32362129789896
C         0.37883950270643    1.18686725628692   -3.31765103541593
C         1.22788366572987    0.01705575326671   -3.32288245606182
C         0.37025195429750   -1.12891537406223   -3.32136032862226
C        -1.76952514213890   -0.00025936551692    4.81845259593155
F        -0.77480922276742    0.00048370499877    5.70718972082673
F        -2.51781435521120   -1.07300281170340    5.07169495256755
F        -2.51908941972171    1.07197751069058    5.07012843930358
C        -4.64230445268907    2.07869901162635   -0.88313961970206
F        -4.64499370466685    2.80594827893590   -1.99862902369303
F        -5.57696550925637    1.13989099662003   -1.01238069138204
F        -5.01001712426264    2.87675956358884    0.11676227448001
C         1.09130529832730   -3.35739763453353   -3.75262325870968
F         1.47247709378599   -4.53252807486974   -3.25355785303337
F         0.03375854125036   -3.57979749458977   -4.53036717813817
F         2.07680831270546   -2.91824005315754   -4.53336610093403
72
 energy: -177.464373496404 gnorm: 0.085144037782 xtb: 6.4.1 (a3dbbd7)
C        -1.26609587095767   -0.00714745719192    3.45149546878753
C        -0.32784650849770   -1.19977545805261    3.29337612034071
C         1.00523703161106   -0.72335999348208    3.29106925692361
C         1.00010336573421    0.72131850263854    3.29044747104203
C        -0.32913333016853    1.18752823185298    3.29352335353976
C         2.34486067259251   -2.57929679801476    0.60646972153489
C         3.18300734417529   -1.41666002197411    0.59901656330947
C         2.94775954520599   -0.69455894798157    1.81764201879122
C         1.96682665014056   -1.42455106727356    2.57563921868762
C         1.58350687369570   -2.58505386307998    1.82569061922346
C         3.17395234486295    1.41779977463310    0.58747158052687
C         2.33608001734735    2.58206499256032    0.58807735307162
C         1.58182083907674    2.58164264323450    1.81282135661455
C         1.96862243507746    1.42392212801044    2.57207888139062
C         2.94240005330579    0.69529969872868    1.81656318173004
C        -0.34838083448364    3.46159319913845    0.58786932228936
C        -1.70754383247833    3.00068516982867    0.58717059345543
C        -1.95462084884055    2.28076267943367    1.81022548416187
C        -0.72266436983222    2.28679353654041    2.55479239024722
C         0.26275191051009    3.01717366784821    1.81332504271065
C        -3.39955608310577    0.67448741174831    0.62064109947181
C        -3.39247908290894   -0.71716940125564    0.58223668957311
C        -2.77002211611772   -1.16649537627648    1.81152011027443
C        -2.44265607105373   -0.02393328151552    2.52924146835636
C        -2.75832602723043    1.12948831131361    1.78423057479735
C        -1.73737034033364   -3.01570338489391    0.61681425175249
C        -0.37540514755506   -3.45183926751501    0.61096340708571
C         0.26316508743885   -3.02428579639827    1.82707294908334
C        -0.71617980768635   -2.29528443413933    2.56923481907794
C        -1.96359313098614   -2.30836554226675    1.82231416859324
C        -0.27428760782083   -2.99050352438746   -1.75648807050304
C         0.78748473560672   -2.40203225384827   -2.69972700389505
C         1.99022797962276   -2.27573718245327   -1.75930037327574
C         1.73279380177132   -2.99132860922935   -0.57155847444039
C         0.35562991795347   -3.43375899403499   -0.57462461456516
C         2.78398215310790   -1.15652831300027   -1.79005704240367
C         2.40664162558050    0.01144563346063   -2.57137237352776
C         2.78508525044390    1.16547900565992   -1.81655721087642
C         3.39860973522565    0.72049187004775   -0.59000510125769
C         3.41042768363149   -0.71691853427602   -0.58422069268374
C         1.97552011491845    2.29957824475409   -1.81428927953432
C         0.74638538144407    2.30851894263635   -2.57712141705014
C        -0.23167573877933    3.02706690049020   -1.81934692726145
C         0.37633770874344    3.46127474179060   -0.59380053677360
C         1.74533520797078    3.01286191258388   -0.59648869503546
C        -1.55186280978402    2.57868332271255   -1.80956024809050
C        -1.93208298084510    1.41397556223152   -2.57317915103031
C        -2.88904734115476    0.66480001561439   -1.84866627043343
C        -3.34168027641310    1.49582189556507   -0.64417291816535
C        -2.26416349024826    2.58740121464209   -0.59787533668855
C        -2.91205747157424   -0.70571443626134   -1.83511320440541
C        -1.95236138403783   -1.42034851050170   -2.59283382423221
C        -1.57375155993916   -2.56536780510121   -1.79234694634816
C        -2.34653843444971   -2.57222509119267   -0.58254988799092
C        -3.17656250473837   -1.43248037162633   -0.59657646005652
C        -0.97920986667580   -0.69845494779784   -3.30619993981122
C        -0.98257175908307    0.74087583272280   -3.32053018094773
C         0.37784181525318    1.19665209993855   -3.31231321906100
C         1.21494048947441    0.02579492250910   -3.29669238658451
C         0.35853141010070   -1.09000835736090   -3.31440715315849
C        -1.79251421706499   -0.00016190860625    4.90209251989011
F        -0.78351526975199    0.00016449283713    5.77609982995800
F        -2.53898861253761   -1.08219093575737    5.12586870543676
F        -2.53969054523116    1.08187271303550    5.12330265682689
C        -4.70252290332005    2.10907361160374   -0.90263837530487
F        -4.68963092887077    2.83555455891335   -2.02068114931493
F        -5.62069765488821    1.15157290242542   -1.02542017005759
F        -5.04626006689678    2.90086715225204    0.11332573283328
C         1.10644080779870   -3.40621533491515   -3.80195713612871
F         1.48609325986502   -4.57503865820335   -3.28345455730548
F         0.03491945581290   -3.61224965965134   -4.56741073105288
F         2.09468273106682   -2.94367789341517   -4.56914426109158
72
 energy: -177.476092911496 gnorm: 0.047926038344 xtb: 6.4.1 (a3dbbd7)
C        -1.26963302733078   -0.00767916892127    3.49509476685701
C        -0.33361578706668   -1.19609866407468    3.32436958617917
C         1.00629582023886   -0.72355486258936    3.30080882013159
C         1.00121607611150    0.72000140780683    3.29792310327081
C        -0.33488394952303    1.18137106449949    3.31862193493739
C         2.34911463426141   -2.57709512275356    0.60462625796403
C         3.18869231208167   -1.41531029012487    0.59834380986954
C         2.95608799361170   -0.69391332367375    1.81974406138088
C         1.97156223798198   -1.42150632784614    2.57985979380277
C         1.59132630858868   -2.58234629870148    1.82895002888215
C         3.18072729373356    1.41831068756071    0.58683780923028
C         2.34347437458860    2.58412477595928    0.58791855507771
C         1.58711521345751    2.57897502584265    1.81341022605863
C         1.97058948394988    1.42026133454293    2.57255429077789
C         2.94959463457986    0.69569715792153    1.81685664096208
C        -0.34668741618071    3.45080735373688    0.58590755391247
C        -1.71149597719033    2.99523651656358    0.58222857800338
C        -1.94727849366715    2.27149435204310    1.80721536581551
C        -0.71986216770278    2.27580114320529    2.56327353308361
C         0.26583212676436    3.00418223089537    1.81277639543138
C        -3.40782930229498    0.69044513114006    0.60429770237247
C        -3.38595849456993   -0.70748271157624    0.57836519899149
C        -2.75880044782776   -1.15887106364956    1.81545783121362
C        -2.42756081535653   -0.02157764822427    2.55209698935051
C        -2.74958038127139    1.12827824613768    1.78219721389211
C        -1.72932745292516   -3.00723440718361    0.61822126704319
C        -0.36568798046637   -3.44274210858448    0.61034419861350
C         0.26886228697165   -3.01408220356022    1.83053216980937
C        -0.71433863178453   -2.29167568721482    2.58609387254188
C        -1.95723698864961   -2.30519831981911    1.82900390437879
C        -0.25922638364482   -2.99882117085789   -1.77852284725271
C         0.80063145479798   -2.42241111439614   -2.72295318192647
C         1.99521622236799   -2.28818952095715   -1.78208811402668
C         1.73794180388120   -2.98844358887003   -0.57755096733509
C         0.36216246348369   -3.42724083163205   -0.57904073926792
C         2.78621811695901   -1.16215702294586   -1.79955766113216
C         2.41144892860858    0.01028864485542   -2.57470289707945
C         2.78829042619544    1.16611436486225   -1.81755749750403
C         3.40260803969922    0.72079692584843   -0.59163669333502
C         3.40837740435770   -0.71731463282047   -0.58705814615810
C         1.98167836466500    2.30253450468874   -1.81555398237248
C         0.75193786939691    2.31092791575777   -2.57746899719544
C        -0.23016648531093    3.02719386437100   -1.81871731635606
C         0.38086933601614    3.46192070748873   -0.59359289579022
C         1.75259974818064    3.01674995229517   -0.59630131313240
C        -1.55495144982207    2.58232066734773   -1.81023990689680
C        -1.93361722336609    1.41688795714229   -2.57293925353602
C        -2.91144493097779    0.68072937940796   -1.85349473217614
C        -3.36766110810109    1.51177175357567   -0.65580986884609
C        -2.28820047466897    2.59446203735436   -0.60382678673033
C        -2.91465994690815   -0.69604122304193   -1.83760854257405
C        -1.94379575546482   -1.41489596155642   -2.59363513122685
C        -1.56036647997737   -2.56287021805899   -1.80068235424139
C        -2.33263288786623   -2.56207140628079   -0.58369736784770
C        -3.17294267193858   -1.42689957474470   -0.60048124629755
C        -0.96891933835412   -0.70202096997729   -3.31002602170822
C        -0.97715438554717    0.74116501172422   -3.31791299804976
C         0.38470100461606    1.19529474999051   -3.31217819099585
C         1.22261633496194    0.01951403290194   -3.30066946587784
C         0.37367656536009   -1.11150379454239   -3.32605537439816
C        -1.80114665272690   -0.00088479725113    4.94773730251582
F        -0.80474337001522    0.00085134537534    5.83849725609497
F        -2.55190407140504   -1.07826392340110    5.18604664421575
F        -2.55125538067339    1.07834661763262    5.17958968889177
C        -4.74228966966960    2.12979899877437   -0.91654142964557
F        -4.75273570087446    2.86309106736357   -2.03322321327865
F        -5.67430439721373    1.18358065515678   -1.04186035774588
F        -5.10158997608014    2.92556036817890    0.09311382455568
C         1.11880848910393   -3.43367417880991   -3.83327615065453
F         1.49943266158163   -4.61107883206061   -3.33070522000701
F         0.05340950600725   -3.64969820324912   -4.60725243227868
F         2.10682912707802   -2.98807269299298   -4.61345422018660
72
 energy: -177.481809656442 gnorm: 0.019743375307 xtb: 6.4.1 (a3dbbd7)
C        -1.27933817310254   -0.00575879366891    3.55234181803921
C        -0.34120970071443   -1.19017653975818    3.34079864031261
C         1.00388250439805   -0.72424718530460    3.30384881806110
C         0.99910860270701    0.71814009113918    3.30027451716933
C        -0.34214621641291    1.17509249641997    3.33269758925002
C         2.35239530160368   -2.57407135238261    0.59981414623443
C         3.19311486634041   -1.41379066365839    0.59715389348843
C         2.96149424304716   -0.69330328847868    1.82132439083452
C         1.97396562833046   -1.41881006563445    2.58132125834461
C         1.59693639569229   -2.57812160080953    1.82757707675931
C         3.18691891059268    1.41917551282462    0.58693537705532
C         2.35014446851136    2.58568816116026    0.58770615269083
C         1.58951995931553    2.57553151788352    1.81284456090816
C         1.96968441783428    1.41580635158282    2.57152160672351
C         2.95363491238991    0.69584532949441    1.81720306025362
C        -0.34754237013232    3.43751881841683    0.58202804388711
C        -1.71647731474573    2.99137956045897    0.57651498505589
C        -1.94469872053096    2.26552627097622    1.80553803639844
C        -0.71821456526209    2.26532904443918    2.56802887827760
C         0.26620664583583    2.98933398522644    1.81033414437902
C        -3.40551037409065    0.70477053883086    0.59213077833983
C        -3.37015946677726   -0.69075961833558    0.57537475886585
C        -2.74317683451774   -1.14442870791889    1.82023589725644
C        -2.40946516596193   -0.01614770375000    2.56920894143905
C        -2.74401130742700    1.13211768976304    1.78494318883481
C        -1.72174389751148   -2.99654564729220    0.61892528770169
C        -0.35565299630541   -3.43226961836154    0.60586374148923
C         0.27297851358760   -3.00109862136853    1.82792945154596
C        -0.71334314864760   -2.28571142207256    2.59366899837312
C        -1.95356547673986   -2.30279763918106    1.83258861132580
C        -0.24556024322474   -3.00815585649029   -1.80270438799949
C         0.81565796116636   -2.45200309840558   -2.75294476255741
C         1.99932715503047   -2.29410456247113   -1.80420486791545
C         1.74288739523512   -2.98196866224308   -0.58593724886345
C         0.36860833379952   -3.41727954378038   -0.58507422913748
C         2.78860636591588   -1.16534064857859   -1.80713718540520
C         2.41903972617385    0.01000838719945   -2.57896532793038
C         2.79330725736868    1.16666473622655   -1.81931593560189
C         3.40570222774903    0.72094653347598   -0.59288592506484
C         3.40623289869150   -0.71748901530968   -0.58909184398804
C         1.98770565720672    2.30418528808753   -1.81670045237260
C         0.75576277227181    2.30793084931315   -2.57516154114085
C        -0.22931153972123    3.02222726195153   -1.81721423126717
C         0.38423141272742    3.45979101058928   -0.59368176251286
C         1.75932063529396    3.01889411793948   -0.59638718226881
C        -1.55773505022484    2.58204175750988   -1.80762483664312
C        -1.93380544139101    1.41517703316850   -2.56868029154766
C        -2.93191083945474    0.69479143474371   -1.85500515832906
C        -3.39642784775694    1.53051191605092   -0.66490646128455
C        -2.31155278442178    2.60227564945273   -0.60723249936231
C        -2.91483693612771   -0.68568317921596   -1.83785963461312
C        -1.93434240510875   -1.40693085968235   -2.59008249964028
C        -1.54433887922818   -2.55790746217429   -1.80665477463685
C        -2.31774259266993   -2.54972785420563   -0.58483431944983
C        -3.16458827693098   -1.42110294205483   -0.60364837198088
C        -0.95656108225029   -0.70700507265017   -3.30792742506167
C        -0.97111144746492    0.73767638805602   -3.31083216750925
C         0.38936395338109    1.18787331791008   -3.30708117560409
C         1.22919323238033    0.00901432293365   -3.30089410251242
C         0.38815077766026   -1.13346634802330   -3.33456738578816
C        -1.81431557214296   -0.00046404872393    4.99794646260403
F        -0.82575145218862    0.00156918842213    5.90002543216245
F        -2.56804571765609   -1.07483981584329    5.24709639624439
F        -2.56621353789053    1.07722796321463    5.24001133803662
C        -4.77887730706507    2.14884427362150   -0.92523785483092
F        -4.80527168179185    2.88542989172591   -2.04248447064407
F        -5.72094658075441    1.21069540395063   -1.05377416128923
F        -5.15265719082904    2.95005315068394    0.07743585927412
C         1.13275248240579   -3.46314262750341   -3.86775551244096
F         1.51441492191602   -4.64721173025255   -3.37694298907281
F         0.07158053677612   -3.68671738265916   -4.64821452123030
F         2.12078767166355   -3.03053998359536   -4.65850197907368
72
 energy: -177.482592087154 gnorm: 0.007678207287 xtb: 6.4.1 (a3dbbd7)
C        -1.28593405878082   -0.00357640774535    3.57877095511946
C        -0.34669352108163   -1.18681249799536    3.34191480265562
C         1.00041719421396   -0.72432972632072    3.30258157718715
C         0.99610328098404    0.71784919437032    3.29991688140828
C        -0.34750718421867    1.17327714859349    3.33458134748997
C         2.35207922968588   -2.57245640454929    0.59559943602509
C         3.19425055048566   -1.41301579476897    0.59574722460326
C         2.96190646805174   -0.69295900294197    1.82128333049286
C         1.97237383189275   -1.41704632830608    2.57984105813088
C         1.59739496960981   -2.57586203271883    1.82416169590563
C         3.18925027220502    1.41928425576550    0.58677715125610
C         2.35146361306603    2.58550083900934    0.58751384202430
C         1.58820138725484    2.57407278247761    1.81194791994039
C         1.96680653432973    1.41351995869406    2.57016985312262
C         2.95375429698479    0.69576627539727    1.81714493281556
C        -0.35013209952745    3.43230403370932    0.58051306015674
C        -1.71996417218991    2.99212625859171    0.57524719651437
C        -1.94879386053153    2.26789810837488    1.80798966472595
C        -0.71969254080810    2.26360654672295    2.57029613856387
C         0.26395743826232    2.98344315536274    1.80923072264498
C        -3.40179862654508    0.71039625106802    0.59014158379721
C        -3.36000285903548   -0.68163378953592    0.57519547022294
C        -2.73581358865648   -1.13555809686351    1.82341523533727
C        -2.40328655723932   -0.01223339394785    2.57698507484687
C        -2.74751360692591    1.13815040803414    1.79263052903166
C        -1.71947692228098   -2.99110014110156    0.61777334649063
C        -0.35143874899256   -3.42810834677902    0.60136915514554
C         0.27315219949067   -2.99483825490490    1.82387897435410
C        -0.71405122206834   -2.28267767001147    2.59299231895598
C        -1.95310087032186   -2.30147283718528    1.83169046668950
C        -0.24139504092218   -3.01344687217866   -1.81496976312779
C         0.82157193471221   -2.46610335410471   -2.76676011890855
C         2.00096282605403   -2.29429234792024   -1.81415333344442
C         1.74460123611068   -2.97922352645412   -0.59160210391488
C         0.37101699601287   -3.41443780774070   -0.58920257378413
C         2.79123991980185   -1.16627130694570   -1.81090521775289
C         2.42484680966885    0.00961391442375   -2.58266132227718
C         2.79704985853242    1.16655910052834   -1.82146390359167
C         3.40752011420383    0.72090408903940   -0.59396325986617
C         3.40625602101632   -0.71791664197881   -0.59044754048459
C         1.98959634850124    2.30324064174235   -1.81737204328925
C         0.75630973832572    2.30341808588794   -2.57355448179584
C        -0.22985327805848    3.01720606113556   -1.81636225513096
C         0.38405640527556    3.45709345620533   -0.59348190693297
C         1.76053330740129    3.01789214147176   -0.59653686175016
C        -1.55921296247809    2.58061153938568   -1.80577074008215
C        -1.93387369431212    1.41289725802063   -2.56574345748793
C        -2.93929142891485    0.69958843123161   -1.85379859549328
C        -3.40637350609855    1.53750191706217   -0.66518151683530
C        -2.31985519654644    2.60552458865849   -0.60679587901602
C        -2.91386166118483   -0.68152244894022   -1.83717963284611
C        -1.93128474272676   -1.40316407723279   -2.58876438899025
C        -1.53761594937900   -2.55609797055998   -1.80935866604271
C        -2.31130489481529   -2.54494755370452   -0.58635975398994
C        -3.15829711834453   -1.41798954527163   -0.60468902192581
C        -0.95203681082135   -0.71029642712830   -3.30667179070027
C        -0.96898048884015    0.73397463868658   -3.30602777369373
C         0.39033623725422    1.18132343599799   -3.30335645772139
C         1.23169809126713    0.00209270257055   -3.30072463642991
C         0.39376439994129   -1.14328106293363   -3.33851435010394
C        -1.81951961239878    0.00058664179369    5.02115570214085
F        -0.83154774957369    0.00216585551252    5.92510602071473
F        -2.57401248335551   -1.07267474937076    5.27502297584496
F        -2.57150377211007    1.07792740485525    5.26920650290031
C        -4.79005913042436    2.15593840997650   -0.92617262129365
F        -4.81640223830016    2.89166360603451   -2.04472902596248
F        -5.73522155749760    1.22069200458906   -1.05694614385573
F        -5.16927611758025    2.96066838603101    0.07253327413759
C         1.14141890641239   -3.47571907757249   -3.88261944452943
F         1.52407520055219   -4.66144789781100   -3.39480516095029
F         0.08253771756199   -3.70193583545999   -4.66628896655740
F         2.12993514858909   -3.04586421502286   -4.67534804978873
72
 energy: -177.482671215364 gnorm: 0.003731180407 xtb: 6.4.1 (a3dbbd7)
C        -1.28752632732729   -0.00324320212673    3.58284035124289
C        -0.34884590911699   -1.18637483251902    3.33959792982018
C         0.99874017980043   -0.72459519993891    3.30128960940329
C         0.99468952644524    0.71775306917890    3.29895577763509
C        -0.34957244788504    1.17269341740226    3.33246376115266
C         2.35084504015044   -2.57215373325834    0.59434806163225
C         3.19387338177183   -1.41291323766184    0.59518722139342
C         2.96104768250790   -0.69300967571322    1.82097477353098