63
 energy: -142.079168549278 gnorm: 0.141406634130 xtb: 6.4.1 (a3dbbd7)
C        -1.29585809763920    0.00401118881931    3.54517689231029
C        -0.36796043466059   -1.17243305044266    3.30515820987539
C         0.98298838984909   -0.72191219210780    3.27512267957929
C         0.98156472691728    0.71960753564614    3.26971969840148
C        -0.37066843430553    1.17924059866277    3.30150764324135
C         2.33648296598357   -2.58548060321166    0.57950289371033
C         3.18657767566203   -1.41946403917212    0.57781419536533
C         2.94957050634668   -0.69854930588343    1.80123308089156
C         1.95308396825138   -1.41752165469557    2.55613481597303
C         1.57961582984989   -2.57968580834158    1.80518673258983
C         3.18767024138397    1.40991878537575    0.57593180017933
C         2.33807592119235    2.57402574463448    0.57591940987423
C         1.57683795447400    2.56605672116665    1.79975339077111
C         1.95304946478205    1.40835201085528    2.55205927541471
C         2.95072023090319    0.68875745027160    1.80098024590342
C        -0.36516779392141    3.42666371311492    0.57921714402649
C        -1.72924376731069    3.01648005687427    0.58287705229366
C        -2.09463355901587    2.46231282969886    1.94730853737491
C        -0.73027134368917    2.28553619224850    2.58224921046650
C         0.24829448370074    2.97593693088527    1.80334175247540
C        -3.37466967439567    0.70300551329579    0.57574930039426
C        -3.39003092771629   -0.73268815670587    0.56838248256510
C        -2.76818811346571   -1.16356142396752    1.78871572205038
C        -2.38904763717889    0.02437925858140    2.53264263708558
C        -2.74834472581071    1.12995086235998    1.81420011509538
C        -1.73481952354600   -3.00995345707075    0.57938225067925
C        -0.36149853487188   -3.44686666226009    0.58178847329193
C         0.25217194576597   -2.99475012297255    1.80551622011247
C        -0.72930832450935   -2.27346636848304    2.56467955460776
C        -1.97147545437730   -2.28746259180062    1.79868366143107
C        -0.24419850633136   -3.01431906314620   -1.82647673825261
C         0.74940205395547   -2.29291975806330   -2.58286291039202
C         1.97453700920709   -2.29239152825096   -1.82543977569151
C         1.74139873391846   -3.01127177396538   -0.59946235539016
C         0.36858334361035   -3.45436466601281   -0.59762914030018
C         2.79442417375665   -1.17031401238235   -1.82833550582627
C         2.41574661868216   -0.00512369138436   -2.58546959698227
C         2.79806943058290    1.16104826437995   -1.83045397159780
C         3.41356646756867    0.71553904959985   -0.60565027126811
C         3.41126633543504   -0.72579612437446   -0.60436594375932
C         1.98256115237360    2.28538932475628   -1.82964816243890
C         0.75350030248264    2.28551308222168   -2.58573232043658
C        -0.23508280223273    3.00436687434747   -1.82344140510130
C         0.37359850933878    3.44286488634390   -0.60220138875814
C         1.74684322375821    3.00246743965493   -0.60372642363152
C        -1.55566653240424    2.56818250404503   -1.80941223602174
C        -1.93859434660526    1.40592010808590   -2.57168095899201
C        -2.93551210472019    0.68461262540438   -1.82146846795257
C        -3.16898901543324    1.39767486955451   -0.59605965569985
C        -2.30435127708354    2.57332623889815   -0.58497549494069
C        -2.94114405324375   -0.70773319319533   -1.83440725651199
C        -1.94505174587464   -1.42387954866205   -2.59102123509086
C        -1.56548890453788   -2.59170746569988   -1.83211639417485
C        -2.32839595521473   -2.59312664308342   -0.60918315809929
C        -3.17773883520354   -1.43218193780650   -0.61434027481289
C        -0.98775846768414   -0.72638522805960   -3.31322849835342
C        -0.98659864734294    0.71557045446948   -3.30737103344774
C         0.38544609972999    1.16109326157285   -3.31071431262535
C         1.23106807690940   -0.00470839623161   -3.31198800118088
C         0.38446650877846   -1.17000629315169   -3.31255499434049
Cl       -1.95494402211016   -0.00808767691631    5.23350834623694
Cl       -3.13453400293270    3.62205440046694    2.87428256889563
Cl       -1.11502996545312   -3.47359277681536    3.86353113186014
63
 energy: -142.103848315417 gnorm: 0.062272394109 xtb: 6.4.1 (a3dbbd7)
C        -1.29218371375520    0.01659155168245    3.54589546165710
C        -0.36154175945030   -1.15693128583192    3.32752463871744
C         0.97411385030877   -0.70990798041380    3.26363580064976
C         0.98153773481281    0.73373589700804    3.27085384139262
C        -0.36947747079423    1.19388271745754    3.30448039939382
C         2.33999172408855   -2.58774676310197    0.57023362122390
C         3.18565934990872   -1.41988416061206    0.57394896262152
C         2.94550148006303   -0.69874744800256    1.79894952715227
C         1.95329202342076   -1.41489009573017    2.55037165047785
C         1.57812624681810   -2.57573658351543    1.78960546924286
C         3.18719304974623    1.41075393271476    0.57660558882145
C         2.33764342127860    2.57608006594684    0.57503753689892
C         1.57675390072136    2.57198541617317    1.79860588050682
C         1.95320637735031    1.41603404386227    2.55173881616872
C         2.95059484702123    0.69251766421031    1.79995300777118
C        -0.36564753969223    3.43040725946074    0.57788337969680
C        -1.72962067981008    3.01946319337991    0.58172042898635
C        -2.09526256646374    2.46726278338815    1.94673150295030
C        -0.73075254626458    2.29662349595086    2.58292360115250
C         0.24807535732915    2.98346227740934    1.80239820264211
C        -3.37241199536712    0.70488714565426    0.57449512161728
C        -3.39169566363978   -0.73046955979030    0.56570644227884
C        -2.75705183951315   -1.15580326607256    1.77952228155219
C        -2.38182490184282    0.02955544558417    2.53005432879461
C        -2.74552039261767    1.13336274294097    1.81254950413758
C        -1.72932996323206   -3.00371679043797    0.57183277199811
C        -0.35538067386781   -3.44294881396903    0.57290936200354
C         0.26036246582730   -2.99928076116030    1.78718120114704
C        -0.75283585153059   -2.34969381181890    2.63852099868048
C        -1.96756374810419   -2.28009693263449    1.78379693710151
C        -0.24218568763563   -3.01531314741286   -1.83306220124962
C         0.75121276631789   -2.29288062734286   -2.58892716060452
C         1.97692876417951   -2.29288992120029   -1.83258135586755
C         1.74520802457652   -3.01530002048541   -0.60928132909692
C         0.37451217836700   -3.45781539823515   -0.60913708367817
C         2.79542846092142   -1.17025260662064   -1.83189854930881
C         2.41620813467913   -0.00459833165095   -2.58686345745010
C         2.79837759073316    1.16115146836567   -1.83041368732413
C         3.41365606426130    0.71594527176533   -0.60681099192216
C         3.41093726816468   -0.72558261906714   -0.60673223075124
C         1.98248498614331    2.28605076443865   -1.83048901395075
C         0.75433675070839    2.28590616520269   -2.58596542268172
C        -0.23487121842105    3.00514626762656   -1.82395745101197
C         0.37352342670506    3.44448588714866   -0.60326945401849
C         1.74651345685473    3.00344050292088   -0.60434407371538
C        -1.55526416596978    2.56920197392708   -1.81001667514719
C        -1.93843645088180    1.40656987923751   -2.57211967677382
C        -2.93494388563454    0.68570565146856   -1.82249348198635
C        -3.16828649985274    1.39908577630984   -0.59730674739879
C        -2.30407425445374    2.57499278235592   -0.58591743075559
C        -2.94088069102677   -0.70718526992391   -1.83605545956631
C        -1.94467276050000   -1.42350742201885   -2.59343200034382
C        -1.56451936732252   -2.59187601845955   -1.83712518354027
C        -2.32814775931870   -2.59119318004826   -0.61493927199126
C        -3.17873244228468   -1.43126727351995   -0.61746235462586
C        -0.98723945965997   -0.72541504205410   -3.31481154686762
C        -0.98580635573969    0.71604352081057   -3.30802746539811
C         0.38585195462430    1.16157006468480   -3.31162745919839
C         1.23164596501417   -0.00378848887688   -3.31363790038144
C         0.38524824473669   -1.16902323203310   -3.31548646304822
Cl       -1.95577666121077    0.00294280195578    5.23523106711299
Cl       -3.13619483948220    3.62505278858194    2.87379648753153
Cl       -1.15507524601437   -3.57800078560747    3.96533800052681
63
 energy: -142.110609884715 gnorm: 0.016128589110 xtb: 6.4.1 (a3dbbd7)
C        -1.28768950909175    0.01744604746703    3.54331715747492
C        -0.35844087224605   -1.15295523606728    3.32733869240273
C         0.95810584284606   -0.70953949444189    3.24715322651394
C         0.97657300032281    0.73776882381000    3.26253551898926
C        -0.37113775622861    1.19986857060353    3.30272447964153
C         2.33526881449321   -2.58526406477344    0.56505127490582
C         3.18232297506508   -1.41931063419932    0.56948077490032
C         2.93704755064430   -0.69948980934989    1.79592764487682
C         1.95367275046282   -1.41683390613409    2.54681018336859
C         1.57257645072427   -2.57813170002287    1.78450189855389
C         3.18495401647286    1.41174269180262    0.57556982608645
C         2.33685258655126    2.57945715902743    0.57301715499964
C         1.57639754151319    2.57807005914025    1.79698997069949
C         1.94969034158360    1.41971962025600    2.54753054071991
C         2.94815912100594    0.69541249977855    1.79639388782260
C        -0.36577458073557    3.43590154549015    0.57598518503236
C        -1.72981265130093    3.02477572634749    0.57980852292749
C        -2.09559636453218    2.47369448049402    1.94556538859930
C        -0.73163823904395    2.30508860860220    2.58272189496700
C         0.24741242321037    2.99129702237876    1.80158954237674
C        -3.36589842177362    0.70682888706997    0.57404877868916
C        -3.37945546451844   -0.72813863567664    0.56642811194468
C        -2.74317251897813   -1.15551631035967    1.77998060387892
C        -2.37506764697110    0.03287504937710    2.52996561509781
C        -2.73984803581883    1.13610357121620    1.81250488311485
C        -1.72209977761896   -2.99496108619548    0.57380390095726
C        -0.34937672271643   -3.43691195089030    0.57512742378988
C         0.26350915914857   -3.01099516278819    1.78744941522262
C        -0.77349890949948   -2.42244151774798    2.70597567521656
C        -1.96256791790813   -2.28095257008777    1.78545094600585
C        -0.23987486213047   -3.01414013096378   -1.83691447386192
C         0.75266580659519   -2.29177045721825   -2.59508760315563
C         1.97916611144743   -2.29314204863085   -1.83976704773472
C         1.74527729059228   -3.01541494856211   -0.61603846742546
C         0.37749272634675   -3.45641714641325   -0.61344705867729
C         2.79617819133666   -1.16946922476087   -1.83673148978804
C         2.41655584262022   -0.00291493308332   -2.58974607361362
C         2.79824361200401    1.16259305908609   -1.83184018134163
C         3.41288977862777    0.71740443585313   -0.60967427372898
C         3.40979085386258   -0.72463121767994   -0.60990969356917
C         1.98233006574868    2.28830235162274   -1.83269438470742
C         0.75527724506906    2.28798743594629   -2.58758405256558
C        -0.23430704808870    3.00780143186676   -1.82563452676023
C         0.37363180914115    3.44796188459027   -0.60532127035776
C         1.74636283520964    3.00615865293631   -0.60620191488546
C        -1.55440181968311    2.57186674924209   -1.81154445574731
C        -1.93737840431748    1.40859935519461   -2.57323063206421
C        -2.93308246303748    0.68790388309347   -1.82371787914960
C        -3.16609439637763    1.40137434378583   -0.59825080522680
C        -2.30343023396960    2.57869902086385   -0.58765185158413
C        -2.93874730038936   -0.70551577847466   -1.83752647986777
C        -1.94252568124396   -1.42185344080767   -2.59596261906994
C        -1.56186299547046   -2.58985628942476   -1.84017293675274
C        -2.32187829009296   -2.58614990282326   -0.61490721345470
C        -3.17146269386796   -1.42801385154192   -0.61797422426151
C        -0.98601388356082   -0.72289233854870   -3.31810735317429
C        -0.98446728913310    0.71813301041237   -3.30985285149439
C         0.38662858401151    1.16388679524515   -3.31412763952440
C         1.23244767407312   -0.00140548839192   -3.31719088838844
C         0.38642424726586   -1.16688077206533   -3.32010409138791
Cl       -1.96069217234536    0.01209316681073    5.23193360407162
Cl       -3.13976671127281    3.62870673612950    2.87117315443392
Cl       -1.18592679970521   -3.65545906543971    4.04889879799136
63
 energy: -142.111038992044 gnorm: 0.009414814497 xtb: 6.4.1 (a3dbbd7)
C        -1.28725466348309    0.01550154504044    3.54363586753221
C        -0.36002378190833   -1.15635915358012    3.32423805427388
C         0.95145426019438   -0.71312944069771    3.24188983810144
C         0.97351596830791    0.73625240170648    3.25639951233241
C        -0.37222042274706    1.19976951609490    3.30137249523550
C         2.33121458295154   -2.58397401197350    0.56435605765684
C         3.17902706493635   -1.41869563866473    0.56726081360198
C         2.93296355417139   -0.69980427073337    1.79410020147969
C         1.95458842386625   -1.41906696544599    2.54619432524001
C         1.57075584610290   -2.58236981488542    1.78682067819071
C         3.18335437665804    1.41199945915049    0.57397512018840
C         2.33642811367068    2.58104492307886    0.57172032655587
C         1.57601331795057    2.58012520226306    1.79601106144034
C         1.94720475980971    1.41969015397639    2.54429096270594
C         2.94613481361451    0.69579905437416    1.79353005581834
C        -0.36578418301349    3.43893468882278    0.57537842367270
C        -1.72976304682469    3.02751611447433    0.57920493132463
C        -2.09555008076841    2.47644692700354    1.94541802570887
C        -0.73184566857864    2.30797669208475    2.58313616306624
C         0.24695444937924    2.99419797690135    1.80153078431573
C        -3.36064793370175    0.70698056459829    0.57426575471833
C        -3.37009926917021   -0.72770399068483    0.56774434986388
C        -2.73801647520919   -1.15785304828728    1.78356106872787
C        -2.37403724271491    0.03383748058592    2.53140704683628
C        -2.73719396250347    1.13702857658575    1.81332106181530
C        -1.71906437495548   -2.99328633776217    0.57732747269110
C        -0.34719379960081   -3.43731747858802    0.57889312022121
C         0.26297094935667   -3.02161702859722    1.79622824248863
C        -0.77952839418483   -2.44380982265510    2.72392872231590
C        -1.96163304025722   -2.28672557635828    1.79357941374483
C        -0.23849516537061   -3.01251980750765   -1.83711479347641
C         0.75342601081956   -2.29099756577675   -2.59748547679935
C         1.98004320369779   -2.29291617536321   -1.84249407016467
C         1.74462506914932   -3.01469482974871   -0.61768453599834
C         0.37760141310470   -3.45483696404455   -0.61282379150108
C         2.79616064234856   -1.16863377259389   -1.83936375377019
C         2.41682366438342   -0.00172203000924   -2.59212672111979
C         2.79807219253337    1.16373573699535   -1.83349884316573
C         3.41225098255086    0.71824661581495   -0.61180541874341
C         3.40830615633151   -0.72393944024315   -0.61166289238252
C         1.98227892478552    2.28987328406773   -1.83422427007197
C         0.75548723148217    2.28955905941656   -2.58878476731940
C        -0.23405163471741    3.00982343920952   -1.82664059057959
C         0.37365520702404    3.45031585973990   -0.60626981911597
C         1.74635229378130    3.00791441838522   -0.60742710049305
C        -1.55405797886533    2.57380812717286   -1.81245436744562
C        -1.93668718473533    1.41020935793230   -2.57406231680358
C        -2.93130735685997    0.68918237151430   -1.82390309018913
C        -3.16395128439945    1.40229613181633   -0.59816159871556
C        -2.30298303882505    2.58093140137949   -0.58834270177806
C        -2.93660061983576   -0.70428257051674   -1.83751385584578
C        -1.94097653694249   -1.42065543443103   -2.59659692037203
C        -1.55966420609094   -2.58792769410616   -1.84008828558803
C        -2.31667475100531   -2.58373804909801   -0.61275467047183
C        -3.16568863953172   -1.42630427429695   -0.61694337637519
C        -0.98535710648702   -0.72141344304345   -3.31991750797881
C        -0.98395869692346    0.71962309098303   -3.31122661542913
C         0.38695202978085    1.16551023108057   -3.31585140409835
C         1.23286280030560    0.00003453019342   -3.31980411760911
C         0.38712080684728   -1.16580295772679   -3.32263386694281
Cl       -1.96303839467198    0.01441722004896    5.23210532732879
Cl       -3.14359148030755    3.63084093383577    2.86689262939209
Cl       -1.19674188037741   -3.66917193693227    4.06578287471076
63
 energy: -142.111159456840 gnorm: 0.005449236778 xtb: 6.4.1 (a3dbbd7)
C        -1.28778061422994    0.01451781637150    3.54405512933315
C        -0.36116968092934   -1.15808260795970    3.32105650633740
C         0.94846121829437   -0.71546216591736    3.23941369895027
C         0.97210203371583    0.73503919244544    3.25288865471470
C        -0.37251614955017    1.19902672161539    3.30080041792621
C         2.32931010849723   -2.58343365312906    0.56428060062356
C         3.17744013537288   -1.41835873571131    0.56631682605278
C         2.93167645670502   -0.69987228872093    1.79340148180705
C         1.95627067115755   -1.42009599436289    2.54612998215380
C         1.57022117677119   -2.58393876247400    1.78819936999317
C         3.18283407754169    1.41194672135103    0.57328547412295
C         2.33637471451234    2.58156734432525    0.57136520509608
C         1.57584448323838    2.58063150587367    1.79578175515493
C         1.94624037506305    1.41937280107364    2.54285655156616
C         2.94556936359342    0.69587091974751    1.79212684073758
C        -0.36593095948129    3.43982099083096    0.57539720527122
C        -1.72985853279508    3.02827326686640    0.57914991091442
C        -2.09578791644884    2.47759633374420    1.94582451755765
C        -0.73199239452782    2.30909842856157    2.58380057952626
C         0.24658251461197    2.99482788543071    1.80184952314857
C        -3.35815821110453    0.70696775832004    0.57426168654230
C        -3.36535042473461   -0.72750102508594    0.56802317346085
C        -2.73527438959617   -1.15842916731091    1.78484459659542
C        -2.37486533221956    0.03476049278321    2.53242513164410
C        -2.73687994173188    1.13768210892549    1.81392250664649
C        -1.71729862930196   -2.99165929798341    0.57879595796714
C        -0.34592549478450   -3.43694858219583    0.58083938117161
C         0.26269012832452   -3.02653293352816    1.80172316840476
C        -0.78210798776802   -2.45153818495533    2.73054620813117
C        -1.96044713890978   -2.28881545353785    1.79811137963620
C        -0.23791038842475   -3.01149559926444   -1.83671181463107
C         0.75389603487520   -2.29083648944954   -2.59828238133889
C         1.98063912914797   -2.29288012782537   -1.84357469766919
C         1.74460353154728   -3.01436804726274   -0.61814705253449
C         0.37745221835017   -3.45347303193806   -0.61208267567790
C         2.79621997156364   -1.16830621293485   -1.84040471488355
C         2.41706079027125   -0.00140968986665   -2.59321842592515
C         2.79810827251665    1.16399728218649   -1.83419247531728
C         3.41228303118997    0.71849888998473   -0.61275281601553
C         3.40787438501793   -0.72373936519393   -0.61230696761084
C         1.98218677695050    2.29017578305876   -1.83469099262113
C         0.75540453889392    2.28973786549996   -2.58896081219792
C        -0.23410211365969    3.01028592875371   -1.82676297089895
C         0.37353301013837    3.45091274247952   -0.60637571555299
C         1.74631961645147    3.00832254424800   -0.60771284934336
C        -1.55418073612908    2.57445181403441   -1.81274944130432
C        -1.93664014058235    1.41078852753678   -2.57447019096291
C        -2.93075340527083    0.68967665113213   -1.82403597457966
C        -3.16345348285377    1.40269360541062   -0.59816292227051
C        -2.30310176767846    2.58178877706467   -0.58852982383562
C        -2.93599870462772   -0.70373392168970   -1.83776317987896
C        -1.94068602898192   -1.42025146184410   -2.59694678880461
C        -1.55869224896260   -2.58686267376418   -1.83984784316396
C        -2.31393827608905   -2.58234012805478   -0.61162270687010
C        -3.16331932457605   -1.42546623294531   -0.61659731811901
C        -0.98529576775647   -0.72104952294851   -3.32075344654189
C        -0.98395358417171    0.71996022459086   -3.31176599329254
C         0.38693416291475    1.16582749524228   -3.31641284602753
C         1.23299651650795    0.00031432052830   -3.32088146557685
C         0.38736406436794   -1.16567403130133   -3.32363998002139
Cl       -1.96219072223000    0.01291906771133    5.23322432036913
Cl       -3.14604961100599    3.63181271820728    2.86444719763695
Cl       -1.20196659266282   -3.66845557480424    4.06705158722625
63
 energy: -142.111211426606 gnorm: 0.002938588372 xtb: 6.4.1 (a3dbbd7)
C        -1.28804629766384    0.01418991718557    3.54402550543497
C        -0.36144721211362   -1.15853933796394    3.31841113933098
C         0.94740611941573   -0.71645492407865    3.23833235927096
C         0.97156015760596    0.73459414305198    3.25151715258013
C        -0.37250795104138    1.19860667305325    3.30064995850420
C         2.32877346487493   -2.58336767613418    0.56436198400644
C         3.17708817962692   -1.41832143192145    0.56618514164577
C         2.93173254818884   -0.69991460827441    1.79345799723021
C         1.95770880498830   -1.42041302439130    2.54629290227468
C         1.57010267604717   -2.58390536849221    1.78846872758825
C         3.18277990593059    1.41181151199129    0.57329809198161
C         2.33635674698047    2.58158140753533    0.57148685304156
C         1.57568582535998    2.58052899975040    1.79589699869871
C         1.94603415113257    1.41921827160115    2.54263686833694
C         2.94571177568561    0.69587813548625    1.79180715644155
C        -0.36614187412954    3.43972564104088    0.57550099829971
C        -1.73004858057350    3.02825890163417    0.57917069995134
C        -2.09620511230397    2.47803428644484    1.94617391061934
C        -0.73222863760359    2.30941621596958    2.58415107194965
C         0.24623398093968    2.99457531444910    1.80211014195445
C        -3.35753960521092    0.70700001510379    0.57421564915479
C        -3.36376618157885   -0.72737901342036    0.56786585267587
C        -2.73403877630039   -1.15808616587640    1.78473203655476
C        -2.37576698124415    0.03538792175057    2.53286825548912
C        -2.73741923517601    1.13809234790683    1.81423294230426
C        -1.71637341556701   -2.99031682507140    0.57891195874727
C        -0.34524092943364   -3.43624635655609    0.58142546783166
C         0.26276146312248   -3.02773577277064    1.80384047088798
C        -0.78328032400997   -2.45384409414444    2.73292809755633
C        -1.95915741385558   -2.28839194785284    1.79941247522646
C        -0.23778045583902   -3.01116571085467   -1.83626340803500
C         0.75411630312061   -2.29097100257002   -2.59823996164779
C         1.98097533304335   -2.29300559991918   -1.84378423318756
C         1.74487842680265   -3.01440318282409   -0.61816092630630
C         0.37734850028743   -3.45284909007443   -0.61168300790635
C         2.79626472116530   -1.16830441906952   -1.84046935081859
C         2.41715025106699   -0.00151890287556   -2.59332233779138
C         2.79817954303973    1.16386625568379   -1.83418078736836
C         3.41251391372053    0.71846311436547   -0.61286961233183
C         3.40801847704130   -0.72381615768308   -0.61225651333888
C         1.98208207790714    2.28995033514857   -1.83458511226514
C         0.75526642571550    2.28938182710867   -2.58868317830959
C        -0.23425025068757    3.01003282900955   -1.82653649303845
C         0.37337301078525    3.45072395917878   -0.60621741088893
C         1.74623279670026    3.00813194165381   -0.60755595916922
C        -1.55441995280504    2.57441353580210   -1.81272315538522
C        -1.93684210740725    1.41075966930572   -2.57450921859992
C        -2.93086462864023    0.68968378270512   -1.82409012913744
C        -3.16383913736815    1.40283214322827   -0.59821736286857
C        -2.30346899958673    2.58198291574193   -0.58854644783575
C        -2.93622275416138   -0.70369504949272   -1.83805198847123
C        -1.94094703258162   -1.42033007154331   -2.59706632395203
C        -1.55851513515005   -2.58660336179882   -1.83970154789540
C        -2.31304609166542   -2.58185453858103   -0.61129288209603
C        -3.16304328287982   -1.42523903158665   -0.61662466071561
C        -0.98543509885549   -0.72119994864197   -3.32086487103682
C        -0.98408907460586    0.71974250531121   -3.31171028190231
C         0.38680775579820    1.16559952722143   -3.31631547985714
C         1.23294994880782    0.00010435179026   -3.32088830531046
C         0.38736928788515   -1.16590370025321   -3.32367626041522
Cl       -1.95974059045909    0.00967990318142    5.23390081592657
Cl       -3.14673597371485    3.63235969646184    2.86376043326916
Cl       -1.20409666424530   -3.66267812016090    4.06289633606906
63
 energy: -142.111226935447 gnorm: 0.001745926734 xtb: 6.4.1 (a3dbbd7)
C        -1.28796042193119    0.01427123361497    3.54375638310194
C        -0.36105178148120   -1.15816566637983    3.31739654126874
C         0.94775881733869   -0.71624189416280    3.23838316162307
C         0.97168039528563    0.73480295640077    3.25189960689685
C        -0.37242927547270    1.19861285532048    3.30074389652893
C         2.32905814054147   -2.58349729419543    0.56443299944169
C         3.17747681694748   -1.41845012957581    0.56642135966358
C         2.93225859236078   -0.69998558978028    1.79378075538220
C         1.95816145318858   -1.42034136748573    2.54648899110561
C         1.57018053700322   -2.58340940213761    1.78816830319534
C         3.18290541302457    1.41173055933009    0.57357280507055
C         2.33632068039597    2.58140533557485    0.57168045949371
C         1.57562933481547    2.58029384121977    1.79605318384925
C         1.94624276106366    1.41924421926610    2.54301011942500
C         2.94605489809780    0.69585521523154    1.79210502208648
C        -0.36625086646644    3.43936426731864    0.57555074239489
C        -1.73016895604086    3.02802619391536    0.57918275672561
C        -2.09644500064562    2.47794785787811    1.94624268313731
C        -0.73236709728185    2.30919639098243    2.58406458876049
C         0.24611323347295    2.99419995569784    1.80216629265762
C        -3.35806503107055    0.70704226911499    0.57419927327011
C        -3.36441116332211   -0.72736462182274    0.56767898475922
C        -2.73428786953549   -1.15771601306933    1.78424328869141
C        -2.37604092248723    0.03544652670105    2.53280692971987
C        -2.73786753420364    1.13811624169956    1.81420757509751
C        -1.71633026281123   -2.99001215685378    0.57850006572428
C        -0.34518182389015   -3.43598145581912    0.58119318543914
C         0.26299409639096   -3.02699577365843    1.80330442661114
C        -0.78349919917551   -2.45349727018338    2.73306885291813
C        -1.95864901269435   -2.28725784738796    1.79854732292547
C        -0.23787708294830   -3.01134438001382   -1.83609860836368
C         0.75408614357562   -2.29109759707086   -2.59792946167948
C         1.98097843339456   -2.29311483875500   -1.84356189284366
C         1.74506894511288   -3.01454488837365   -0.61802955116068
C         0.37736809769643   -3.45301327264276   -0.61168724035562
C         2.79625204234691   -1.16841435697789   -1.84015681788536
C         2.41709888991559   -0.00167590460680   -2.59298224965884
C         2.79819522477720    1.16371840276504   -1.83391316670817
C         3.41264978410232    0.71836659260479   -0.61262967831012
C         3.40825924699247   -0.72393033328093   -0.61200364550623
C         1.98203251645285    2.28973910860271   -1.83435780181741
C         0.75520658532978    2.28913627981780   -2.58844715422541
C        -0.23433708601747    3.00973686837809   -1.82634713100485
C         0.37329271537770    3.45041378695023   -0.60608389113353
C         1.74616031633091    3.00787826319127   -0.60735674812905
C        -1.55452610889904    2.57417458023738   -1.81259454682801
C        -1.93698120873240    1.41053582846764   -2.57436515694724
C        -2.93112718167647    0.68949827977179   -1.82407170628852
C        -3.16429677021250    1.40278188370792   -0.59826372395556
C        -2.30368524459346    2.58183196031409   -0.58850382195028
C        -2.93656437698094   -0.70389816313541   -1.83814466284197
C        -1.94117964535388   -1.42053396960635   -2.59701243733882
C        -1.55872689627047   -2.58684921517941   -1.83970168696275
C        -2.31342067150506   -2.58206952724040   -0.61146127834507
C        -3.16369639746291   -1.42539902543432   -0.61675321203586
C        -0.98551771998725   -0.72139358134785   -3.32061228482399
C        -0.98416175862784    0.71950099713155   -3.31146390096322
C         0.38673279324036    1.16538497312239   -3.31605753307091
C         1.23286228607602   -0.00009316719076   -3.32049388159337
C         0.38729310258196   -1.16606034012351   -3.32332559621546
Cl       -1.95823845420610    0.00749009175819    5.23379084609211
Cl       -3.14617726160789    3.63238241115280    2.86425889166275