63
 energy: -142.111231418975 gnorm: 0.000151218707 xtb: 6.4.1 (a3dbbd7)
C        -1.28775221644144    0.01441497302291    3.54358083097394
C        -0.36052553871749   -1.15761571892999    3.31775632166410
C         0.94856935737977   -0.71556216379757    3.23884789159033
C         0.97203328126901    0.73519091128841    3.25287482375479
C        -0.37242848166394    1.19886001700607    3.30097663840048
C         2.32943791663158   -2.58358159379970    0.56441735504820
C         3.17783402263149   -1.41856006475961    0.56658660571062
C         2.93250139862587   -0.70007764460202    1.79391264170893
C         1.95772376821524   -1.42027344315229    2.54655147023365
C         1.57028030964603   -2.58334228147753    1.78794963377350
C         3.18294343351558    1.41169984190546    0.57372771736750
C         2.33627013252008    2.58125397812061    0.57171745723148
C         1.57568202214764    2.58021295647019    1.79607303006002
C         1.94643856469736    1.41930601027973    2.54329050236478
C         2.94613258136081    0.69578757202572    1.79242446786167
C        -0.36620634137967    3.43921748706337    0.57556612156775
C        -1.73013329973465    3.02788200175599    0.57921821967629
C        -2.09632795852005    2.47760256917746    1.94613077993756
C        -0.73229579868268    2.30886538534959    2.58385560416716
C         0.24624212038701    2.99414427279850    1.80208709623105
C        -3.35864482404015    0.70697964995247    0.57423881499390
C        -3.36560854850484   -0.72748076593228    0.56770028625289
C        -2.73524111308744   -1.15785683018309    1.78416580725874
C        -2.37570188231927    0.03508721658442    2.53257004308433
C        -2.73774248257865    1.13781961055838    1.81400996272663
C        -1.71671113088965   -2.99059165242957    0.57828175770934
C        -0.34545297552680   -3.43631977194020    0.58085142690840
C         0.26318696772717   -3.02644271767198    1.80198707466709
C        -0.78344064521663   -2.45306858566168    2.73291472868912
C        -1.95907284299336   -2.28691422042115    1.79726531265531
C        -0.23796474636239   -3.01157904984870   -1.83624518078049
C         0.75395112001193   -2.29105418144574   -2.59780871403772
C         1.98078242304423   -2.29308047718292   -1.84334581950569
C         1.74500784584755   -3.01458664538879   -0.61797036849027
C         0.37747998308629   -3.45342571952389   -0.61190574228201
C         2.79620270686255   -1.16845717774463   -1.83998697867452
C         2.41700942745043   -0.00168111078013   -2.59276650216154
C         2.79814646782796    1.16371978748405   -1.83377202240391
C         3.41257409819869    0.71832592656603   -0.61245539041315
C         3.40822985009022   -0.72393960613343   -0.61191758969271
C         1.98204757504851    2.28977042298786   -1.83430099524322
C         0.75524223167439    2.28922831440590   -2.58848108291624
C        -0.23431356700105    3.00973546945506   -1.82636400888319
C         0.37331769677611    3.45034771223669   -0.60606879980967
C         1.74614937162060    3.00783729439043   -0.60732585774385
C        -1.55445394603724    2.57406175748038   -1.81251937725217
C        -1.93694595425192    1.41043998084384   -2.57426243767395
C        -2.93117888127668    0.68938609433372   -1.82401276440628
C        -3.16425624905158    1.40260912111793   -0.59823909608846
C        -2.30357290234569    2.58159844517882   -0.58843553115623
C        -2.93655810252400   -0.70403536991091   -1.83799837575744
C        -1.94111203982040   -1.42058005249689   -2.59691879433983
C        -1.55888839973807   -2.58709301174678   -1.83979041442847
C        -2.31400544660915   -2.58239157983154   -0.61171019527587
C        -3.16409270040635   -1.42562064035599   -0.61677958271819
C        -0.98547024121091   -0.72138405700581   -3.32042797751644
C        -0.98412972073636    0.71952579982280   -3.31138616273903
C         0.38675546744204    1.16542805694063   -3.31599510766648
C         1.23284618684569   -0.00004833685945   -3.32032655244541
C         0.38725672907032   -1.16598408666440   -3.32314759327355
Cl       -1.95859829697790    0.00726515826448    5.23331903711280
Cl       -3.14557294972814    3.63187458087396    2.86492084768325
Cl       -1.20295801894997   -3.65469625608778    4.05873394966258
