156
 energy: -483.620490011652 gnorm: 9.908425154133 xtb: 6.4.1 (a3dbbd7)
C        -1.23626340000000    0.00000000000000    3.32997640000000
C        -0.38202640000000   -1.17575640000000    3.32997640000000
C         1.00015810000000   -0.72665740000000    3.32997640000000
C         1.00015810000000    0.72665740000000    3.32997640000000
C        -0.38202640000000    1.17575640000000    3.32997640000000
C         2.34433560000000   -2.60145750000000    0.59464210000000
C         3.19857260000000   -1.42570110000000    0.59464210000000
C         2.96246730000000   -0.69904370000000    1.83090550000000
C         1.96230920000000   -1.42570110000000    2.59495830000000
C         1.58028280000000   -2.60145750000000    1.83090550000000
C         3.19857260000000    1.42570110000000    0.59464210000000
C         2.34433560000000    2.60145750000000    0.59464210000000
C         1.58028280000000    2.60145750000000    1.83090550000000
C         1.96230920000000    1.42570110000000    2.59495830000000
C         2.96246730000000    0.69904370000000    1.83090550000000
C        -0.36750900000000    3.48258920000000    0.59464210000000
C        -1.74969350000000    3.03349030000000    0.59464210000000
C        -1.98579880000000    2.30683290000000    1.83090550000000
C        -0.74953540000000    2.30683290000000    2.59495830000000
C         0.25062270000000    3.03349030000000    1.83090550000000
C        -3.42570570000000    0.72665740000000    0.59464210000000
C        -3.42570570000000   -0.72665740000000    0.59464210000000
C        -2.80757400000000   -1.17575640000000    1.83090550000000
C        -2.42554760000000    0.00000000000000    2.59495830000000
C        -2.80757400000000    1.17575640000000    1.83090550000000
C        -1.74969350000000   -3.03349030000000    0.59464210000000
C        -0.36750900000000   -3.48258920000000    0.59464210000000
C         0.25062270000000   -3.03349030000000    1.83090550000000
C        -0.74953540000000   -2.30683290000000    2.59495830000000
C        -1.98579880000000   -2.30683290000000    1.83090550000000
C        -0.25062270000000   -3.03349030000000   -1.83090550000000
C         0.74953540000000   -2.30683290000000   -2.59495830000000
C         1.98579880000000   -2.30683290000000   -1.83090550000000
C         1.74969350000000   -3.03349030000000   -0.59464210000000
C         0.36750900000000   -3.48258920000000   -0.59464210000000
C         2.80757400000000   -1.17575640000000   -1.83090550000000
C         2.42554760000000    0.00000000000000   -2.59495830000000
C         2.80757400000000    1.17575640000000   -1.83090550000000
C         3.42570570000000    0.72665740000000   -0.59464210000000
C         3.42570570000000   -0.72665740000000   -0.59464210000000
C         1.98579880000000    2.30683290000000   -1.83090550000000
C         0.74953540000000    2.30683290000000   -2.59495830000000
C        -0.25062270000000    3.03349030000000   -1.83090550000000
C         0.36750900000000    3.48258920000000   -0.59464210000000
C         1.74969350000000    3.03349030000000   -0.59464210000000
C        -1.58028280000000    2.60145750000000   -1.83090550000000
C        -1.96230920000000    1.42570110000000   -2.59495830000000
C        -2.96246730000000    0.69904370000000   -1.83090550000000
C        -3.19857260000000    1.42570110000000   -0.59464210000000
C        -2.34433560000000    2.60145750000000   -0.59464210000000
C        -2.96246730000000   -0.69904370000000   -1.83090550000000
C        -1.96230920000000   -1.42570110000000   -2.59495830000000
C        -1.58028280000000   -2.60145750000000   -1.83090550000000
C        -2.34433560000000   -2.60145750000000   -0.59464210000000
C        -3.19857260000000   -1.42570110000000   -0.59464210000000
C        -1.00015810000000   -0.72665740000000   -3.32997640000000
C        -1.00015810000000    0.72665740000000   -3.32997640000000
C         0.38202640000000    1.17575640000000   -3.32997640000000
C         1.23626340000000    0.00000000000000   -3.32997640000000
C         0.38202640000000   -1.17575640000000   -3.32997640000000
C        -1.76086815247998    0.00000000000000    4.78849957557021
F        -0.76911826531252    0.00000000000000    5.67468926254662
F        -2.50968386795825   -1.06794314680471    5.04863888333743
F        -2.50968386795825    1.06794314680471    5.04863888333743
C        -0.54413818249354   -1.67468516033722    4.78849957845317
F        -0.23767107904745   -0.73147481112462    5.67468925997942
F        -1.79120914301982   -2.05683909935453    5.04863874564184
F         0.24013968171955   -2.71686350152345    5.04863903502921
C         1.42457227037960   -1.03501233722714    4.78849957248258
F         0.62223011468481   -0.45207589682711    5.67468926529602
F         1.40265511061956   -2.33913928186680    5.04863905501621
F         2.65809836182651   -0.61117154425495    5.04863869666890
C         1.42457227037960    1.03501233722714    4.78849957248258
F         0.62223011468481    0.45207589682711    5.67468926529602
F         2.65809836182651    0.61117154425495    5.04863869666891
F         1.40265511061956    2.33913928186680    5.04863905501621
C         4.58877084110522   -2.05459160147071    0.86730597290559
F         4.59709252483521   -2.78118520641283    1.98125951001435
F         4.97417519512416   -2.85850196315549   -0.11965482382298
F         5.53562669678859   -1.13053295630600    1.00324569798425
C         2.82790274436383   -2.05459160758554    3.71645040671519
F         3.82797483682855   -2.78118494419178    3.22571836876305
F         3.37293748548841   -1.13053297859378    4.50255013394648
F         2.11749631416700   -2.85850222732984    4.50254863174647
C         3.37204091334889    3.72927672645244    0.86730596148276
F         4.06564647311728    3.51265957144659    1.98125763710228
F         4.25569947457670    3.84739838595791   -0.11965645964809
F         2.78580317558591    4.91533944031226    1.00324916143779
C         2.28376457660886    3.72927671755932    2.62817408867206
F         3.59030321655004    3.51265997057976    2.75037870097715
F         2.14318168460923    4.91533956626619    2.04303190988612
F         1.79618325340524    3.84739782561575    3.85992562899767
C        -0.53602450593361    4.99908416128281    0.86730591619822
F        -1.22448605650957    5.23152837615597    1.98125850960180
F        -1.18149064144157    5.61404773804446   -0.11965571789346
F         0.63540201352706    5.61404743764837    1.00324736766175
C        -1.08016271022039    3.32439912180418    3.71645041587937
F        -1.46215754230407    4.50005299330749    3.22571838851551
F        -2.06425285383526    2.89718320022386    4.50255037491024
F        -0.03290491502764    3.55721032900471    4.50254840735999
C         0.34440953624153    4.35941144868709    2.62817404748705
F        -0.83992598883967    4.95213069234126    2.75037577510431
F         1.15529636597892    5.23632261667420    2.04303359185445
F         0.80829780400759    4.16837989546168    3.85992670963205
C        -4.92005227074660    1.03501232949151    0.86730592957069
F        -5.35386609588658    0.45207588830481    1.98125865327758
F        -5.70437742108406    0.61117153086585   -0.11965558739362
F        -5.14292645153878    2.33913927311179    1.00324714649869
C        -4.92005227074660   -1.03501232949151    0.86730592957069
F        -5.35386609588658   -0.45207588830481    1.98125865327758
F        -5.70437742108406   -0.61117153086585   -0.11965558739362
F        -5.14292645153878   -2.33913927311179    1.00324714649869
C        -4.03961820246674   -1.67468514775899    2.62817407948106
F        -4.96930660042402   -0.73147479244129    2.75037763231441
F        -4.62303373288711   -2.71686348978894    2.04303253910982
F        -3.71458666614022   -2.05683907990832    3.85992603200073
C        -4.03961820246674    1.67468514775899    2.62817407948106
F        -4.96930660042401    0.73147479244129    2.75037763231445
F        -4.62303373288714    2.71686348978891    2.04303253910981
F        -3.71458666614023    2.05683907990836    3.85992603200072
C        -2.84103082519036   -3.32439911178427    2.62817407941587
F        -2.23127406184888   -4.50005340761388    2.75037746012491
F        -4.01248672303644   -3.55720929213525    2.04303264409737
F        -3.10404037880940   -2.89718378306488    3.85992609894427
C        -0.34440953624153   -4.35941144868709   -2.62817404748705
F         0.83992598883967   -4.95213069234126   -2.75037577510431
F        -0.80829780400759   -4.16837989546168   -3.85992670963205
F        -1.15529636597892   -5.23632261667420   -2.04303359185445
C         1.08016271022039   -3.32439912180418   -3.71645041587937
F         1.46215754230406   -4.50005299330749   -3.22571838851551
F         0.03290491502765   -3.55721032900471   -4.50254840736000
F         2.06425285383526   -2.89718320022386   -4.50255037491024
C         2.50473491433418   -4.35941144902977   -0.86730593917895
F         2.08438487052912   -4.95213043104453   -1.98125838386969
F         3.81390519137296   -4.16837996597314   -1.00324768478856
F         2.34400857369757   -5.23632280881804    0.11965581818547
C         4.92005227074660   -1.03501232949151   -0.86730592957069
F         5.35386609588658   -0.45207588830481   -1.98125865327758
F         5.14292645153878   -2.33913927311179   -1.00324714649869
F         5.70437742108406   -0.61117153086585    0.11965558739362
C        -0.34440953624153    4.35941144868709   -2.62817404748705
F         0.83992598883967    4.95213069234126   -2.75037577510431
F        -0.80829780400759    4.16837989546168   -3.85992670963205
F        -1.15529636597892    5.23632261667420   -2.04303359185445
C         2.50473491433418    4.35941144902977   -0.86730593917895
F         2.08438487052912    4.95213043104453   -1.98125838386969
F         3.81390519137296    4.16837996597314   -1.00324768478856
F         2.34400857369757    5.23632280881804    0.11965581818547
C        -4.58877084110522   -2.05459160147071   -0.86730597290559
F        -4.59709252483521   -2.78118520641283   -1.98125951001435
F        -5.53562669678859   -1.13053295630600   -1.00324569798425
F        -4.97417519512416   -2.85850196315549    0.11965482382298
C        -1.42457227037960    1.03501233722714   -4.78849957248258
F        -0.62223011468481    0.45207589682711   -5.67468926529602
F        -2.65809836182651    0.61117154425495   -5.04863869666891
F        -1.40265511061956    2.33913928186680   -5.04863905501621
156
 energy: -491.272487231923 gnorm: 8.463452368818 xtb: 6.4.1 (a3dbbd7)
C        -1.23634101600092    0.00058364058998    3.32557592455339
C        -0.38263105884190   -1.17673326434386    3.32132178468501
C         0.99599082026681   -0.72436999706284    3.31748246788049
C         0.99895945882792    0.72821992468357    3.32409666051249
C        -0.38163816569005    1.17407130465725    3.33149043097490
C         2.34527412574876   -2.60019613909933    0.59766283616915
C         3.19189040123592   -1.42563373176079    0.59705941140007
C         2.96327111926228   -0.69951320953986    1.83102677491679
C         1.96064810159026   -1.42538025749093    2.58512930785776
C         1.57988201497926   -2.60285250587558    1.83025244517887
C         3.19903556122177    1.42557930142957    0.59703918519353
C         2.34001736436616    2.59068438607941    0.59316028080214
C         1.57512540418896    2.58862964239463    1.82527940576586
C         1.96465274460561    1.42562058627834    2.59389611733070
C         2.96406019732212    0.70108205484097    1.83086965493724
C        -0.36851939977145    3.47675917662302    0.59092417589819
C        -1.75107468949847    3.03479181416132    0.59393415184123
C        -1.98517936841605    2.30885647045473    1.83124909168248
C        -0.75036549075247    2.30144583615569    2.59106148085779
C         0.24909170203649    3.02083668560058    1.82227922172220
C        -3.41866460344901    0.72766409350768    0.59012481085904
C        -3.40909936035796   -0.72230555236595    0.59148773100849
C        -2.79831250092515   -1.16932371991212    1.82475337397709
C        -2.42753177782903    0.00067970387527    2.59424120810262
C        -2.80230845004122    1.17612856023319    1.82969989866841
C        -1.74812874932877   -3.03541845035400    0.59466474507042
C        -0.36761547672082   -3.48217610588648    0.59633027120558
C         0.24985292736599   -3.03418450538722    1.82927528962595
C        -0.74905793502099   -2.30952651341383    2.59272458579195
C        -1.97842387522398   -2.30650774823522    1.82688368753842
C        -0.25176986205102   -3.03326189278364   -1.82793067861577
C         0.75121389416261   -2.30487429826061   -2.59427853341550
C         1.98646711138950   -2.30791728316193   -1.83131816169967
C         1.74958330289581   -3.03409483500141   -0.59533342271935
C         0.36649904694731   -3.48175377884647   -0.59336706587836
C         2.80785465159708   -1.17315701191646   -1.83250726755181
C         2.42598063523475    0.00038996713564   -2.59412958989803
C         2.80768454878752    1.17429533357861   -1.83121624510456
C         3.42702011766149    0.72741797903854   -0.59765631285268
C         3.41957145379640   -0.72289009041906   -0.59807714657772
C         1.98497841550955    2.30593773409014   -1.83225924160555
C         0.75106921260056    2.30388618320167   -2.59511639876126
C        -0.25033696073015    3.03627713221470   -1.83226303375502
C         0.36839666763022    3.48230866490131   -0.59506805453436
C         1.74486239251604    3.02894770910123   -0.59841019820057
C        -1.58449910381322    2.59736823931393   -1.83088937711081
C        -1.96476109305111    1.42731370869500   -2.58988529325342
C        -2.96152886179420    0.70069299352011   -1.83125722574113
C        -3.19647942738884    1.42757873322975   -0.59852478837718
C        -2.34314701421248    2.60033586172540   -0.59659379488965
C        -2.96148654352492   -0.69931250383829   -1.83252409853336
C        -1.96167795866229   -1.42544308253129   -2.59400065182520
C        -1.58352718572432   -2.59932514141584   -1.83159425331987
C        -2.34367499920347   -2.60219201179580   -0.59624414113279
C        -3.18948435404190   -1.42492843482175   -0.59780833724579
C        -1.00000590549397   -0.72915515187373   -3.33076947229538
C        -0.99994203215857    0.72692984083349   -3.33057702118466
C         0.38496871270616    1.17570534934137   -3.33007386799702
C         1.23511723788210    0.00014160107004   -3.33023903276825
C         0.38071157376741   -1.17162460383857   -3.33047094667212
C        -1.78214014434555    0.00338899908640    4.75932210477420
F        -0.79981606976042    0.04130020155530    5.70598792729418
F        -2.56228208040440   -1.00971080741037    5.05253342430962
F        -2.51107678566025    1.06918247108222    5.05578198282532
C        -0.54697232244367   -1.68841824020852    4.75521131108444
F        -0.26942419471739   -0.77297217065577    5.71454090904395
F        -1.75442174857942   -2.12278995747272    5.05502743744294
F         0.17114437608475   -2.75778868883930    5.05525262083299
C         1.42476129336897   -1.03738092519697    4.73505598713201
F         0.66473935694774   -0.46999992775506    5.71633867060001
F         1.45141373970880   -2.33210373788440    5.07990040912758
F         2.66969183352105   -0.65718749552081    5.08348540958607
C         1.43913506413501    1.03766741887940    4.76020198841390
F         0.62199774465754    0.51245689849737    5.70650417429311
F         2.67155990605101    0.69227183425269    5.05361501791583
F         1.40358630364881    2.34263742214126    5.05721746872577
C         4.57178968032123   -2.05352242503489    0.86804131533297
F         4.61552702211020   -2.78472939313652    1.96109971640922
F         4.97507969603172   -2.89024168853430   -0.09802833004762
F         5.54509292682543   -1.13829510852377    1.04751807805738
C         2.82168766024823   -2.05330417477985    3.69778484723174
F         3.81648922849162   -2.78369269363729    3.25118409253148
F         3.41690437834358   -1.13469676907322    4.49417654648695
F         2.13355212259552   -2.89563350507279    4.49505162554401
C         3.34124875056901    3.71130566789661    0.85818184477363
F         4.12014266100811    3.50789025118014    1.95744627116857
F         4.29574839093060    3.83774203978117   -0.11041802596822
F         2.84209064506427    4.93251240182632    0.98429136231671
C         2.26513125239421    3.70967193091886    2.61120224592641
F         3.59205470860874    3.50837462058953    2.80830072695681
F         2.15721518273231    4.93432402943839    2.10131641293197
F         1.83227218747396    3.83710704754379    3.88721078137890
C        -0.52407529322581    4.98631609051415    0.85021207715419
F        -1.26570699331351    5.26417148187239    1.94445090360864
F        -1.18520316643496    5.61882838281670   -0.11839959498744
F         0.60995771743774    5.64985472161275    0.93131824978483
C        -1.06752480462109    3.30060451806750    3.71583673691607
F        -1.51886563413237    4.49583368683891    3.25664065305631
F        -2.06635416679876    2.90226025721184    4.50694174649505
F        -0.08162578786159    3.51865755068534    4.55750641613174
C         0.35988542476406    4.32124968173922    2.60837939336661
F        -0.82208454134661    4.99138119864434    2.77620479199526
F         1.14764606241656    5.25618419530494    2.09975714225250
F         0.83124935758204    4.22058077202221    3.85799396236357
C        -4.89879167315030    1.04568399788139    0.84158310589121
F        -5.40078730440272    0.49396403181008    1.96654619774107
F        -5.71455001582816    0.68967084913017   -0.12585870445706
F        -5.17862405555721    2.32433662065645    0.93990553407524
C        -4.87984073247739   -1.03352566186041    0.84116782495404
F        -5.40569690878261   -0.48604261864313    1.96928995350491
F        -5.73505353920212   -0.66055374947374   -0.11511559940558
F        -5.20283693124662   -2.32888548101158    0.98650201293953
C        -4.00063911705481   -1.68420551589182    2.60507766187928
F        -4.97765348600429   -0.74141036276437    2.82243790080568
F        -4.64349296380807   -2.72758285899501    2.10045132202914
F        -3.73592389366741   -2.03094083571791    3.88857175152735
C        -4.01497101120746    1.69678259397302    2.61813024459425
F        -4.97142271149325    0.75043996752074    2.81271185302617
F        -4.59316577100005    2.74791408301835    2.10627188609197
F        -3.72008637497442    2.05762094984950    3.86384032047485
C        -2.82627509851636   -3.31882760044888    2.61726778069415
F        -2.23110927627950   -4.50506493563171    2.75260275901826
F        -3.99424490495421   -3.61374044422520    2.03373187006178
F        -3.08397547017575   -2.92717662289955    3.88365747004501
C        -0.35533216426670   -4.35417070805378   -2.62609976122217
F         0.79881540524964   -4.98506164922814   -2.73445551084777
F        -0.86288762098132   -4.20820637304573   -3.82251521298384
F        -1.15702227005092   -5.23959549602438   -2.04146565917879
C         1.07755412653595   -3.31300818047180   -3.72095481028462
F         1.49407484600800   -4.47978595244685   -3.26564777485879
F         0.08439402849884   -3.52003793032667   -4.54618477957716
F         2.06745159441269   -2.89694605975854   -4.50457865301889
C         2.50430777184364   -4.35774115248690   -0.86346364235206
F         2.10748523842574   -4.96174823889164   -1.96020773949044
F         3.81594515777870   -4.17115500539297   -1.00499621799039
F         2.34471560959350   -5.23846561892889    0.12098455777242
C         4.90348295254338   -1.02994667302608   -0.87342694946670
F         5.35757468936009   -0.45105718345108   -1.98379118628418
F         5.15357895376788   -2.33843761217642   -1.04202154830037
F         5.72766539140251   -0.57847602102836    0.09587055534932
C        -0.34633245295471    4.35740308814159   -2.62900449160463
F         0.81741712539325    4.95480742621334   -2.76674229376186
F        -0.80893945979001    4.16937341258129   -3.86111396957334
F        -1.15634649352538    5.23759476806793   -2.04588002850152
C         2.49428727301077    4.34365988879806   -0.87228286274115
F         2.10942550227934    4.95603868158591   -1.96933812777119
F         3.82319183193366    4.17573055708626   -1.03938927727764
F         2.31762834504339    5.27328544229636    0.08384804412729
C        -4.57012260693438   -2.05169183598680   -0.87312612462906
F        -4.59923747778069   -2.78385328045195   -1.98403331611469
F        -5.54685349953935   -1.13452925507797   -1.04268943759880
F        -4.97166838635314   -2.90271102274503    0.08503801100613
C        -1.42400330821398    1.03493704066703   -4.78738219678095
F        -0.62185248004614    0.45166787471077   -5.67642102432262
F        -2.65938839990911    0.61088043891658   -5.04964508278417
F        -1.40310393200915    2.33955099863103   -5.05007367951750
156
 energy: -499.027341648918 gnorm: 7.619730098857 xtb: 6.4.1 (a3dbbd7)
C        -1.23642204997468    0.00265067479316    3.32414681072380
C        -0.38422188453557   -1.17892077195818    3.31587322524414
C         0.99479736204284   -0.72457189274245    3.31500623754828
C         0.99810896696240    0.73132756678630    3.32035974517852
C        -0.38094444075615    1.17155861356248    3.33294801975749
C         2.34548931035263   -2.59992974870216    0.60108772336467
C         3.18983680861013   -1.42725933841450    0.59997102441132
C         2.96401995562545   -0.69827241792095    1.83147939236253
C         1.96165484060968   -1.42684570044355    2.57665012852996
C         1.57884695005771   -2.60272169851766    1.82812080012235
C         3.19965522003602    1.42472661156440    0.59953958194270
C         2.34195448454239    2.58610366107257    0.59221817782559
C         1.57506458329902    2.57844162466716    1.82278984057472
C         1.96753264738324    1.42573687891522    2.59241069236446
C         2.96333736581989    0.70211327043564    1.82888460408207
C        -0.36996978193426    3.47465734473883    0.58779762671153
C        -1.75292754222396    3.03480956203804    0.59309994278280
C        -1.98475344746683    2.31111079126021    1.83059031133684
C        -0.75246900610272    2.29904024644811    2.59074235972241
C         0.24806248296799    3.01516186103016    1.81842754842916
C        -3.41429880906753    0.72963733665785    0.58600419392735
C        -3.40389112331873   -0.72035400698278    0.58980876262427
C        -2.79612375375861   -1.16671260460074    1.82517184723128
C        -2.42969092845283    0.00027161810523    2.59304972403015
C        -2.79961714243610    1.17625701453538    1.82995678520635
C        -1.74624796219509   -3.03704625862978    0.59425872537275
C        -0.36759276731955   -3.47937614793649    0.59728671136487
C         0.24974547146035   -3.03479909529566    1.82772272456504
C        -0.74844530661868   -2.31197058038937    2.59069128389811
C        -1.97337999448266   -2.31009715672260    1.82492674589686
C        -0.25280209301559   -3.03447777016820   -1.82609661869317
C         0.75341692467282   -2.30365657400836   -2.59420364928356
C         1.98698541667498   -2.30771798778053   -1.83202040724107
C         1.75006656263465   -3.03607629476374   -0.59641784592775
C         0.36495648835778   -3.48269700757954   -0.59146605459352
C         2.80677153786913   -1.17054839342303   -1.83448562002968
C         2.42644966060754   -0.00015549620348   -2.59325274479811
C         2.80745492476997    1.17337097130671   -1.83011468685197
C         3.42705659677507    0.72859802063635   -0.60059034284523
C         3.41937130052299   -0.72016335871665   -0.60152011257293
C         1.98419794690370    2.30392591013329   -1.83495712602074
C         0.75287605113987    2.30018666537496   -2.59516088982946
C        -0.24990636585553    3.04022789825419   -1.83555013130512
C         0.36977605266033    3.48113971043607   -0.59604330381461
C         1.74197207004607    3.02918993234800   -0.60290580408854
C        -1.58907668923345    2.59346781765097   -1.82936890122366
C        -1.96716922406500    1.42920625600863   -2.58415375527170
C        -2.95974590959996    0.70261113228948   -1.83116777739053
C        -3.19469800883108    1.42936416883107   -0.60232862629799
C        -2.34167506031003    2.59863918251773   -0.59815509249481
C        -2.96045339272630   -0.69954843800303   -1.83519566769105
C        -1.96145706151360   -1.42525587717872   -2.59258450853976
C        -1.58750613903727   -2.59701731121851   -1.83107880709511
C        -2.34173090397199   -2.60206812966210   -0.59816535276255
C        -3.18297813288948   -1.42622024097422   -0.60260581653604
C        -0.99807232053542   -0.73186084687601   -3.32850946140019
C        -1.00084718154214    0.72748564506732   -3.33730178825143
C         0.38806217199172    1.17581480670327   -3.32748429309224
C         1.23400266278147    0.00044173489282   -3.32951253662635
C         0.37867734320474   -1.16673780061166   -3.33165055367160
C        -1.80021191302550   -0.00236232311486    4.73475329081225
F        -0.83018482532690    0.09422354758820    5.73173383337668
F        -2.59116783605279   -0.97333591147913    5.05727135836053
F        -2.51009604720226    1.06672489706400    5.06121758187175
C        -0.54336616903443   -1.70124529868520    4.72404828457785
F        -0.34622087061021   -0.83491784688722    5.74883346754432
F        -1.72983071728904   -2.16007165886057    5.06221536254433
F         0.12427376033438   -2.78453260319402    5.05534116307605
C         1.41996978393620   -1.03287856057166    4.67488500896265
F         0.75654762760917   -0.49035424225406    5.76115811357190
F         1.48043477989361   -2.31822384999396    5.11890904564789
F         2.66567494575696   -0.68794602960589    5.12511292674028
C         1.45658924175214    1.03471869061049    4.73125919098440
F         0.60964345307223    0.58391360619198    5.73368278876195
F         2.68226813349655    0.74556359983613    5.05342977475244
F         1.40384203917309    2.34283551793454    5.06518992391999
C         4.56245212312024   -2.05181290880163    0.86991115946357
F         4.63175476682881   -2.78812058442630    1.94267121779600
F         4.97049837252308   -2.92720388333609   -0.04713245357867
F         5.53953841844078   -1.17357400239842    1.11985030883892
C         2.81126391301525   -2.05073780726548    3.67623361702106
F         3.80554158354835   -2.78542223830897    3.27580343187111
F         3.46863450814635   -1.13237777757748    4.48383038418847
F         2.14687716621920   -2.94135731674593    4.48388251633692
C         3.29991771317492    3.70504101078520    0.85143845434472
F         4.17073308260796    3.50345715487797    1.94596533502930
F         4.33894202180853    3.82222608588368   -0.07151531257322
F         2.92133699718861    4.91913948134932    0.99641928081058
C         2.23762365913995    3.69466771324382    2.57891639885440
F         3.59825497679482    3.50574002678489    2.85724787477975
F         2.18468878099055    4.94353727523676    2.15276157269133
F         1.88949982274232    3.81750959322024    3.92112184692054
C        -0.50721909941213    4.97345571394257    0.83314030696708
F        -1.31538313725477    5.29446558766297    1.90596418432138
F        -1.18817385193428    5.62226202672646   -0.11479111138614
F         0.59172079867127    5.67187021866015    0.88314031428392
C        -1.05052942370833    3.27518364122878    3.71674384591531
F        -1.58520621201342    4.48956860348485    3.28539424233431
F        -2.06681382916485    2.90848928311241    4.50924567950349
F        -0.11666341390100    3.49269052470153    4.59096592192879
C         0.39690566517938    4.27604726906360    2.59079894146829
F        -0.79592523246730    5.04615049914172    2.81254221598668
F         1.11816740262773    5.27140469699865    2.14421991693326
F         0.81506003371628    4.27506685156559    3.84353949769908
C        -4.88180336047904    1.05452025393269    0.81542393158363
F        -5.44942207617174    0.58097299423374    1.94014684092902
F        -5.71775121033416    0.74228908365976   -0.13247868455510
F        -5.20056665196656    2.31256096413078    0.90157566885212
C        -4.82919647709789   -1.03892330052739    0.82138429685231
F        -5.46785438210308   -0.56354870359306    1.93214429632147
F        -5.76602297899100   -0.69319892976416   -0.09509453193946
F        -5.26354136660838   -2.29005582095916    0.99522958605032
C        -3.96871705426306   -1.70184162553129    2.57105972006697
F        -4.97405079687782   -0.74905280013054    2.91185789180616
F        -4.67254886294737   -2.69104890518011    2.16414599372201
F        -3.77772415972697   -1.98349832427026    3.90613639430047
C        -3.99476993209098    1.71500584476406    2.61000093457110
F        -4.96347234035895    0.76742973847182    2.88225141669398
F        -4.57550429410918    2.76568380260949    2.14635043004550
F        -3.72571934000219    2.05726674365247    3.86371284151218
C        -2.81806977516651   -3.31232632192107    2.60832383342231
F        -2.23075176427980   -4.51056300765813    2.75496245231207
F        -3.95418231212277   -3.68639833034993    2.01899560847874
F        -3.04944538551553   -2.97927884849201    3.89710917585210
C        -0.36576934305886   -4.34792962110502   -2.62539422827481
F         0.77028459345508   -5.00973655890115   -2.72746931484631
F        -0.89529601460017   -4.23242752707359   -3.80091347013473
F        -1.15746022138002   -5.24146799723614   -2.04078830978486
C         1.07331539710420   -3.30245628775391   -3.72527526855216
F         1.51455098554157   -4.46873042281538   -3.29612349160551
F         0.11483870497720   -3.49861841840608   -4.57287581033522
F         2.06913063714660   -2.89731168812743   -4.50538680841175