62
 energy: -137.469721106083 gnorm: 0.177221598575 xtb: 6.4.1 (a3dbbd7)
C        -1.23626340000000    0.00000000000000    3.32997640000000
C        -0.38202640000000   -1.17575640000000    3.32997640000000
C         1.00015810000000   -0.72665740000000    3.32997640000000
C         1.00015810000000    0.72665740000000    3.32997640000000
C        -0.38202640000000    1.17575640000000    3.32997640000000
C         2.34433560000000   -2.60145750000000    0.59464210000000
C         3.19857260000000   -1.42570110000000    0.59464210000000
C         2.96246730000000   -0.69904370000000    1.83090550000000
C         1.96230920000000   -1.42570110000000    2.59495830000000
C         1.58028280000000   -2.60145750000000    1.83090550000000
C         3.19857260000000    1.42570110000000    0.59464210000000
C         2.34433560000000    2.60145750000000    0.59464210000000
C         1.58028280000000    2.60145750000000    1.83090550000000
C         1.96230920000000    1.42570110000000    2.59495830000000
C         2.96246730000000    0.69904370000000    1.83090550000000
C        -0.36750900000000    3.48258920000000    0.59464210000000
C        -1.74969350000000    3.03349030000000    0.59464210000000
C        -1.98579880000000    2.30683290000000    1.83090550000000
C        -0.74953540000000    2.30683290000000    2.59495830000000
C         0.25062270000000    3.03349030000000    1.83090550000000
C        -3.42570570000000    0.72665740000000    0.59464210000000
C        -3.42570570000000   -0.72665740000000    0.59464210000000
C        -2.80757400000000   -1.17575640000000    1.83090550000000
C        -2.42554760000000    0.00000000000000    2.59495830000000
C        -2.80757400000000    1.17575640000000    1.83090550000000
C        -1.74969350000000   -3.03349030000000    0.59464210000000
C        -0.36750900000000   -3.48258920000000    0.59464210000000
C         0.25062270000000   -3.03349030000000    1.83090550000000
C        -0.74953540000000   -2.30683290000000    2.59495830000000
C        -1.98579880000000   -2.30683290000000    1.83090550000000
C        -0.25062270000000   -3.03349030000000   -1.83090550000000
C         0.74953540000000   -2.30683290000000   -2.59495830000000
C         1.98579880000000   -2.30683290000000   -1.83090550000000
C         1.74969350000000   -3.03349030000000   -0.59464210000000
C         0.36750900000000   -3.48258920000000   -0.59464210000000
C         2.80757400000000   -1.17575640000000   -1.83090550000000
C         2.42554760000000    0.00000000000000   -2.59495830000000
C         2.80757400000000    1.17575640000000   -1.83090550000000
C         3.42570570000000    0.72665740000000   -0.59464210000000
C         3.42570570000000   -0.72665740000000   -0.59464210000000
C         1.98579880000000    2.30683290000000   -1.83090550000000
C         0.74953540000000    2.30683290000000   -2.59495830000000
C        -0.25062270000000    3.03349030000000   -1.83090550000000
C         0.36750900000000    3.48258920000000   -0.59464210000000
C         1.74969350000000    3.03349030000000   -0.59464210000000
C        -1.58028280000000    2.60145750000000   -1.83090550000000
C        -1.96230920000000    1.42570110000000   -2.59495830000000
C        -2.96246730000000    0.69904370000000   -1.83090550000000
C        -3.19857260000000    1.42570110000000   -0.59464210000000
C        -2.34433560000000    2.60145750000000   -0.59464210000000
C        -2.96246730000000   -0.69904370000000   -1.83090550000000
C        -1.96230920000000   -1.42570110000000   -2.59495830000000
C        -1.58028280000000   -2.60145750000000   -1.83090550000000
C        -2.34433560000000   -2.60145750000000   -0.59464210000000
C        -3.19857260000000   -1.42570110000000   -0.59464210000000
C        -1.00015810000000   -0.72665740000000   -3.32997640000000
C        -1.00015810000000    0.72665740000000   -3.32997640000000
C         0.38202640000000    1.17575640000000   -3.32997640000000
C         1.23626340000000    0.00000000000000   -3.32997640000000
C         0.38202640000000   -1.17575640000000   -3.32997640000000
Cl       -1.84886636902500    0.00000000000000    5.03315507598844
Cl       -1.13562277516058    3.49508764933262    3.90457167402688
62
 energy: -137.512043255764 gnorm: 0.097710888023 xtb: 6.4.1 (a3dbbd7)
C        -1.24655162140481   -0.01428127109827    3.36070965813584
C        -0.36238467576894   -1.19707398484530    3.32847040787159
C         1.00014633963243   -0.73821890107468    3.31269389408358
C         0.99837718455262    0.71334405530915    3.31639120522210
C        -0.35541543436796    1.15591239506063    3.33457774458602
C         2.33704088983777   -2.59046891312830    0.58961024650051
C         3.18552300969356   -1.41841194867852    0.59038462051234
C         2.95152346492159   -0.69863734576650    1.81975794622243
C         1.96174719578521   -1.42884543949416    2.58088236663063
C         1.58072257351961   -2.59502253943776    1.82095366736731
C         3.18461911040688    1.41871756341951    0.58812430553835
C         2.33789498030408    2.58807285960965    0.58493034807025
C         1.57799736868285    2.58579066368282    1.81104315401688
C         1.96347829015666    1.42058372395561    2.58408701559592
C         2.94941858371532    0.69746537696341    1.82189685341662
C        -0.36011682689004    3.46313599196381    0.58494846012027
C        -1.73899060949227    3.01884931109980    0.58388902548541
C        -1.98122501445311    2.30798250619285    1.80399362678281
C        -0.76050545207126    2.35197612417746    2.64749788763565
C         0.26037145960857    3.01368338174546    1.80141803829799
C        -3.42006982300094    0.72433878855924    0.57612008328198
C        -3.41808562976853   -0.72176256239343    0.57832437150765
C        -2.79306371023449   -1.16639153286411    1.80523998785809
C        -2.42890412704232   -0.00185689916244    2.54779550416529
C        -2.78754659227612    1.17005298385236    1.79580741941210
C        -1.73868053024236   -3.01890082172886    0.59299971303091
C        -0.36201665164793   -3.46622350682567    0.59193371428420
C         0.25691980986855   -3.02767244223466    1.82271879277962
C        -0.73543506238418   -2.30466265167743    2.58150823055314
C        -1.97195447220535   -2.29853542304430    1.81761863423026
C        -0.24883870928898   -3.01970780382209   -1.82180795571444
C         0.74518603554050   -2.29586490162538   -2.58172536726958
C         1.97621723866478   -2.29544836464536   -1.82296842270027
C         1.74327979111605   -3.01865662897956   -0.59308094724658
C         0.36754531055061   -3.46586712570627   -0.59180305628360
C         2.79416112019223   -1.16882255556922   -1.82339834810657
C         2.41340375411416    0.00063124341225   -2.58457149446054
C         2.79366175790156    1.17011442993031   -1.82571936642437
C         3.40932319792086    0.72376509227545   -0.59518176729855
C         3.40979922775030   -0.72252899550556   -0.59496024608039
C         1.97562695320490    2.29586141299770   -1.82718356689929
C         0.74397391381418    2.29509469403151   -2.58675928207433
C        -0.25042312150023    3.01806012867880   -1.82756739894548
C         0.36956494383420    3.46164523062539   -0.59985991384225
C         1.74354206265664    3.01908259322943   -0.59912720898387
C        -1.57531725052707    2.58803818476609   -1.82714728919978
C        -1.95507058176360    1.41799761775770   -2.58692294922805
C        -2.95098528626478    0.69494694047987   -1.82817318698478
C        -3.19061410426709    1.42228828140663   -0.60359425727033
C        -2.33852518813522    2.59077549243815   -0.60113047027077
C        -2.95022635132607   -0.69706364326606   -1.82691688161771
C        -1.95411286623447   -1.42040857462849   -2.58372043409703
C        -1.57353836458301   -2.59022544153122   -1.82140977587618
C        -2.33378922148922   -2.59032730619426   -0.59385391034919
C        -3.18714514897371   -1.42122720710427   -0.59884538489601
C        -0.99652479133246   -0.72429800819883   -3.31488798688146
C        -0.99739995343526    0.72156882682658   -3.31627876925741
C         0.37825296451472    1.16885850231039   -3.31668852012958
C         1.22815040480941   -0.00039209984659   -3.31539909540787
C         0.37891421970691   -1.17018017952081   -3.31437480656570
Cl       -1.88239594329761   -0.01112503716811    5.10564021623090
Cl       -1.15501918549396    3.57556330934111    3.98081767095064
62
 energy: -137.530302693276 gnorm: 0.038456287561 xtb: 6.4.1 (a3dbbd7)
C        -1.27405220503454   -0.01734790946581    3.46899574841685
C        -0.34896414254610   -1.20043531020114    3.28414741414668
C         0.99055940619028   -0.74394779506765    3.27834222685540
C         0.97515313406589    0.70590217860655    3.26339093023213
C        -0.33560393421513    1.14528440678500    3.30989923229718
C         2.33024868025444   -2.58425739752950    0.58466488092398
C         3.17474425398115   -1.41521128299332    0.58770926064778
C         2.94334794085645   -0.70199955849956    1.80969453973561
C         1.95885198708584   -1.43373855254698    2.56406266153668
C         1.57867340892507   -2.59335194177413    1.81026358120454
C         3.17335746593794    1.41450201101574    0.58068445210912
C         2.33364775285251    2.58089567404190    0.57446138138843
C         1.57400080496555    2.57631078960319    1.79029707985275
C         1.96477046473338    1.41813405066406    2.56164181185299
C         2.93557474344498    0.69618407083399    1.81136127367528
C        -0.35259590379756    3.43366655213470    0.57670361475500
C        -1.72662811660077    2.98368294309670    0.57964852258161
C        -1.97139571184316    2.27869237980655    1.77973247892210
C        -0.77785638509889    2.42720938812125    2.70780287008389
C         0.26967768780770    3.00577087680485    1.77674753724910
C        -3.40774952461397    0.71504041239014    0.56459532798626
C        -3.40460183396045   -0.72054251077158    0.56801021758479
C        -2.77322172995533   -1.15499173956742    1.79382235984851
C        -2.42908557356906   -0.01051517038739    2.53613811962906
C        -2.76054145543028    1.14385790021012    1.77621727867304
C        -1.73286670748267   -3.00704587840749    0.58800243195380
C        -0.36124035641239   -3.45739244211599    0.58377145906515
C         0.25732810020209   -3.02499975785089    1.80826072778327
C        -0.72806044143493   -2.29883575763967    2.55356122442051
C        -1.96705208324320   -2.29998521271744    1.80548242606226
C        -0.24686095110744   -3.00756963818274   -1.81805175254912
C         0.74309541324731   -2.28681144796515   -2.57214238547938
C         1.96831213792253   -2.28740352520641   -1.81638435679790
C         1.73683866606559   -3.00841238000137   -0.59314854992481
C         0.36599703347546   -3.45379548473977   -0.59366485900780
C         2.78473268946718   -1.16443866380052   -1.81560769112253
C         2.40682307219536   -0.00009984439264   -2.57486896504734
C         2.78488785475443    1.16419524824118   -1.82129562121953
C         3.39692301878497    0.71981217128871   -0.59568841866167
C         3.39875008281328   -0.72137452753536   -0.59504836589376
C         1.97100487211217    2.28802929203142   -1.82512763725297
C         0.74357435364605    2.28638132788191   -2.58163680348155
C        -0.24605297901473    3.00748545893997   -1.82786446372493
C         0.37392413590185    3.45055520633687   -0.60690100601619
C         1.73983753553545    3.01118909886052   -0.60605137818550
C        -1.56770932041001    2.57739184406188   -1.82575825132200
C        -1.94495571795751    1.41268972191480   -2.58303986771717
C        -2.94007216801187    0.69296302792570   -1.83014830112314
C        -3.17877854532590    1.41417885859097   -0.61049803552283
C        -2.33059726988916    2.57430045131488   -0.60803452792918
C        -2.93837747338801   -0.69457112778045   -1.82752265739998
C        -1.94537794760277   -1.41382171520586   -2.57801809905000
C        -1.56779733667042   -2.57882073215838   -1.81664652312955
C        -2.32677113909940   -2.58195648534107   -0.59934400824911
C        -3.17456344364450   -1.41624557880339   -0.60396815183157
C        -0.98940830663722   -0.72086135064130   -3.30503841005333
C        -0.99000446107851    0.71806523260311   -3.30739699986517
C         0.38031536385717    1.16274409616646   -3.30702378443477
C         1.22519360178761   -0.00143889380653   -3.30380962582540
C         0.37974871839035   -1.16506026143500   -3.30409203699434
Cl       -1.92244090889365   -0.00793633454492    5.24658567908221
Cl       -1.18309945147608    3.66518918813633    4.06684953427187
62
 energy: -137.532433172576 gnorm: 0.021633417420 xtb: 6.4.1 (a3dbbd7)
C        -1.27890894416773   -0.01242133226040    3.48924128831873
C        -0.36213117349677   -1.19836172058029    3.30547511878216
C         0.97961432075035   -0.74042724087353    3.27657048342815
C         0.96235013784691    0.71163651328939    3.26605482753528
C        -0.35127473161529    1.15688712911950    3.32765126000670
C         2.33250104537884   -2.58776300911066    0.58061558091868
C         3.17530227863117   -1.41631306940608    0.58261698889567
C         2.93962366768014   -0.70247637457608    1.80461255486219
C         1.95080845410397   -1.43020893805518    2.55909323965347
C         1.57799647895030   -2.59367299328206    1.80717682083732
C         3.17146016980807    1.41331116453696    0.57619722838723
C         2.32802267499123    2.57810338814893    0.57354735012732
C         1.57002706790057    2.57980785167676    1.79640887494693
C         1.95867893077175    1.41741904340665    2.56150775787654
C         2.92944488614421    0.69546750047958    1.80705102851784
C        -0.35037879481326    3.43194939146870    0.58318382562866
C        -1.72256030072494    2.98169888945419    0.58557671474880
C        -1.97073969137984    2.29048610718330    1.79976852601430
C        -0.78265581359556    2.43764540320045    2.72620255829438
C         0.26362377356512    3.01596170583003    1.79746714270768
C        -3.39020311829625    0.71565140408494    0.56901696708048
C        -3.39272562739632   -0.72004305461953    0.56963948694555
C        -2.76779656732142   -1.15493508418257    1.80062041480468
C        -2.42303557204403   -0.00979099096455    2.55119465998968
C        -2.75476577271899    1.14922214546974    1.79083697559162
C        -1.73175805658236   -3.00823492482822    0.58597725662241
C        -0.35994065884967   -3.45812363871363    0.58119619925824
C         0.25499276274276   -3.02030218248861    1.80738562115077
C        -0.73298324266588   -2.30007714369103    2.56516203408993
C        -1.96702325927958   -2.30316992937458    1.80775438849097
C        -0.24468766790142   -3.01159336918536   -1.82436735704717
C         0.74522733345636   -2.29008267859679   -2.57945908250275
C         1.97083731179116   -2.29027539085499   -1.82308471812206
C         1.73970333767277   -3.01213744915378   -0.59871391294676
C         0.36782433720677   -3.45673418830345   -0.59807535209201
C         2.78753457382537   -1.16636870556889   -1.82308433149729
C         2.40936454196479   -0.00164966343258   -2.58360391967797
C         2.78759321832688    1.16361907311235   -1.82939078115735
C         3.39827542025643    0.71931408773478   -0.60178033445127
C         3.40106927550338   -0.72278333803419   -0.60155058226967
C         1.97333173291397    2.28819822884854   -1.83243929782732
C         0.74523542501419    2.28574572683523   -2.58949861613065
C        -0.24396521585433    3.00559990216823   -1.83175213306963
C         0.37325956104535    3.44617282132421   -0.60604549441787
C         1.73972219697662    3.00888491865041   -0.60973386352334
C        -1.56509184127359    2.57556477647253   -1.82967169431225
C        -1.94406955469588    1.41180482747744   -2.59008808083914
C        -2.93887046618885    0.69180699754596   -1.83481500478642
C        -3.16977932071763    1.41202076047856   -0.61059917181916
C        -2.32237766747174    2.57175105897626   -0.60656219250709
C        -2.93737528126351   -0.69699904458773   -1.83267641272812
C        -1.94459778751087   -1.41720775030859   -2.58499897209803
C        -1.56619588855644   -2.58245247433020   -1.82246010928391
C        -2.32461655052884   -2.58486871356765   -0.60326820185501
C        -3.16991720518913   -1.41692169255764   -0.60590513011450
C        -0.98855531844862   -0.72384912487000   -3.31379510159972
C        -0.98936976368746    0.71636277250844   -3.31679778096086
C         0.38180970887585    1.16157366162746   -3.31684146753920
C         1.22724175339016   -0.00348328207753   -3.31339118032582
C         0.38150125671743   -1.16814490198479   -3.31294271388829
Cl       -1.93165600198111   -0.01175123018161    5.25499349691237
Cl       -1.18845992217113    3.67504502282588    4.07532306998125
62
 energy: -137.533196135003 gnorm: 0.012856147769 xtb: 6.4.1 (a3dbbd7)
C        -1.28515636870560   -0.00987086038301    3.51108429258215
C        -0.37174928474955   -1.19608089694147    3.31315401764127
C         0.96991180008245   -0.73775249914888    3.26882058160419
C         0.94946299296269    0.71562635418881    3.25755205146229
C        -0.36187760003571    1.16347424201259    3.33015112068725
C         2.33386559127700   -2.59026029873571    0.57859927566411
C         3.17582331211601   -1.41741749563396    0.58022978706683
C         2.93640648051545   -0.70256006463415    1.80086223408956
C         1.94463558244596   -1.42752779235084    2.55437342625096
C         1.57684347793827   -2.59426489990524    1.80531416376560
C         3.17022220962295    1.41361504014379    0.57349279755771
C         2.32585645258202    2.57862136793917    0.57198385937594
C         1.56774617385580    2.58204113034193    1.79717453127705
C         1.95520159571628    1.41692295177924    2.55740041790845
C         2.92533799444132    0.69529427127374    1.80364484752523
C        -0.34819345750770    3.43042721179239    0.58649732160155
C        -1.71865161920248    2.97812076650363    0.58858751296333
C        -1.96693472581226    2.29404456468933    1.81058292840426
C        -0.78547010345445    2.45001396242967    2.73823882211073
C         0.26091617894852    3.02456741117141    1.81009798319155
C        -3.37663504679765    0.71449512633880    0.57183707916785
C        -3.38254396322021   -0.72002440177236    0.57133875397875
C        -2.76364286294458   -1.15630051393367    1.80632478358673
C        -2.41598081849576   -0.01238106300358    2.56015507516594
C        -2.74601853620376    1.14850235161065    1.79904564559360
C        -1.73284065111589   -3.01098146992227    0.58469347276332
C        -0.36034923564385   -3.45874427684594    0.57992011122862
C         0.25292290363983   -3.01752668892146    1.80667813894107
C        -0.73687210751319   -2.30154070296324    2.56988673639490
C        -1.96914736049242   -2.30887901146789    1.80926012635658
C        -0.24392113537294   -3.01389983180750   -1.82725463710789
C         0.74617865078670   -2.29138646860985   -2.58221826660468
C         1.97226794776253   -2.29184994254836   -1.82598967016604
C         1.74084861771691   -3.01425342683546   -0.60124316655535
C         0.36817683563748   -3.45872805248638   -0.59998392467888
C         2.78966680307140   -1.16741849909921   -1.82625018189019
C         2.41138656279667   -0.00226539692792   -2.58741931891921
C         2.78987548395202    1.16356946195370   -1.83316701355527
C         3.39986335772179    0.71932068210381   -0.60450920170027
C         3.40337429000209   -0.72368794581258   -0.60446276294836
C         1.97598281247914    2.28924781702819   -1.83650115583450
C         0.74712149500429    2.28648954702170   -2.59310122064880
C        -0.24219526002221    3.00479078034250   -1.83283115168993
C         0.37345387293724    3.44523957658176   -0.60537767754207
C         1.74080805636427    3.00940836159325   -0.61229129261416
C        -1.56301533233005    2.57472542121152   -1.83095803745104
C        -1.94405512265978    1.41199499252331   -2.59320801590862
C        -2.93828693502957    0.69113538299678   -1.83646941578734
C        -3.16397910047807    1.40998396264315   -0.60966669819421
C        -2.31641755699706    2.56929302660995   -0.60504243841652
C        -2.93683175401445   -0.69846817436825   -1.83435078702646
C        -1.94472125843115   -1.41909054299131   -2.58825539449076
C        -1.56596389602244   -2.58477205376507   -1.82529199874184
C        -2.32432755613425   -2.58759252577488   -0.60539456029556
C        -3.16750605400658   -1.41771164474656   -0.60625463617194
C        -0.98832771900630   -0.72484709904175   -3.31747285916036
C        -0.98908636554153    0.71623843134484   -3.32094141521813
C         0.38296175173976    1.16179044447269   -3.32112662018690
C         1.22853628723952   -0.00396409814080   -3.31724882369292
C         0.38232756576822   -1.16909397698498   -3.31643892172841
Cl       -1.93847889825157   -0.01337079789413    5.26219392784142
Cl       -1.19329459511718    3.68060642308899    4.07927219119314
62
 energy: -137.533435047950 gnorm: 0.008349273535 xtb: 6.4.1 (a3dbbd7)
C        -1.28827554210386   -0.00948981876406    3.52114757269978
C        -0.37466899454499   -1.19473942065844    3.31142870662052
C         0.96629139802409   -0.73706254408554    3.26408172443897
C         0.94411024132261    0.71665869538730    3.25068640850098
C        -0.36472925807950    1.16482181972588    3.32620638309684
C         2.33410341903916   -2.59115964387438    0.57858966805179
C         3.17587213984865   -1.41790664743296    0.58028785364207
C         2.93520841259699   -0.70248055955676    1.80009534978450
C         1.94285072378898   -1.42684785305626    2.55304188272300
C         1.57608578021592   -2.59481831785084    1.80517836659017
C         3.17054008016967    1.41468850945640    0.57322728423524
C         2.32657299733073    2.58054642223486    0.57146461004792
C         1.56755252027804    2.58270768542155    1.79595404028150
C         1.95468248488491    1.41695379828702    2.55500557202945
C         2.92444839159012    0.69562779055202    1.80286220917060
C        -0.34724277398202    3.43057579010834    0.58681402062529
C        -1.71692142667195    2.97637052816177    0.58880185567414
C        -1.96320705806401    2.29147966561749    1.81176489201774
C        -0.78547129019385    2.45552410916438    2.74097502226893
C         0.26115943890731    3.02754567522345    1.81273473266724
C        -3.37263747870910    0.71326814056516    0.57275924990334
C        -3.37985372544406   -0.72041836368567    0.57246531582842
C        -2.76300684315614   -1.15760695742586    1.80877751548724
C        -2.41226355159341   -0.01479533870368    2.56193921919622
C        -2.74135381418435    1.14584457522009    1.80045465097140
C        -1.73420663958060   -3.01326922121455    0.58469355699094
C        -0.36116130969155   -3.45962411208205    0.57995923243225
C         0.25202180987929   -3.01727329238382    1.80672302388671
C        -0.73838747621587   -2.30266952618204    2.57002308376453
C        -1.97114612043489   -2.31256735559715    1.81015380796208
C        -0.24411266442365   -3.01432471563087   -1.82729454497437
C         0.74613711350316   -2.29137585259085   -2.58212455723020
C         1.97232012204424   -2.29195200689390   -1.82588453565740
C         1.74069371114749   -3.01472194764816   -0.60119741459080
C         0.36779118836057   -3.45962819543217   -0.59990570256396
C         2.79008524843248   -1.16738106739345   -1.82607223955587
C         2.41189426619473   -0.00200631231751   -2.58741713207994
C         2.79049464231947    1.16398024885842   -1.83320039331914
C         3.40072202827792    0.71979737228738   -0.60436028849138
C         3.40410982258791   -0.72372151566936   -0.60433115177634
C         1.97707980778675    2.29033538167277   -1.83704623121814
C         0.74784138617363    2.28739391565055   -2.59316179656016
C        -0.24166985839745    3.00540834775571   -1.83246515105574
C         0.37387098009243    3.44692399168529   -0.60517573654500
C         1.74190261722197    3.01108292408913   -0.61282452913645
C        -1.56245317947319    2.57526915225357   -1.83082615890816
C        -1.94426278561584    1.41257278801789   -2.59313256319572
C        -2.93818291320649    0.69120463717351   -1.83590944283376
C        -3.16272046022327    1.40926762358721   -0.60865945529927
C        -2.31474411351012    2.56878019442324   -0.60426183088957
C        -2.93671248662660   -0.69862904442340   -1.83353731430264
C        -1.94505138131394   -1.41927592830238   -2.58820284420779
C        -1.56638089525178   -2.58536022654293   -1.82539544703756
C        -2.32490209121442   -2.58888251974031   -0.60541938963756
C        -3.16774240606721   -1.41823928171058   -0.60561311632220
C        -0.98848590662471   -0.72458513926051   -3.31729711987638
C        -0.98910917250641    0.71672659976341   -3.32087611615844
C         0.38322438593484    1.16239936590566   -3.32104609778207
C         1.22872983258550   -0.00359196544638   -3.31706443943511
C         0.38231719764063   -1.16888199428622   -3.31637121500503
Cl       -1.93897162047884   -0.01215735429813    5.25938174558236
Cl       -1.19516809478171    3.67877594122435    4.07612214848927
62
 energy: -137.533553069104 gnorm: 0.004597444042 xtb: 6.4.1 (a3dbbd7)
C        -1.28975947527826   -0.00968996904520    3.52598068903701
C        -0.37468903729537   -1.19409938211969    3.30753958021256
C         0.96539397932112   -0.73722861327409    3.26183018670969
C         0.94267445094936    0.71653054239970    3.24696199646702
C        -0.36414558352523    1.16471204634666    3.32251116373826
C         2.33390373303941   -2.59140367180073    0.57905843614165
C         3.17564207670986   -1.41810137385633    0.58099978544615
C         2.93488422854159   -0.70256663237019    1.80058386661764
C         1.94294386584498   -1.42708165952654    2.55307758971244
C         1.57565457173424   -2.59531493149137    1.80549559053062
C         3.17107845718656    1.41565370641307    0.57376623500316
C         2.32776893769727    2.58224068215817    0.57154722075518
C         1.56800140840668    2.58296612711341    1.79482322810969
C         1.95522475102333    1.41721430732560    2.55427374874577
C         2.92452326748267    0.69609086855055    1.80329150977105
C        -0.34687949161760    3.43121885184274    0.58626108307602
C        -1.71603951804820    2.97531976831128    0.58827043118668
C        -1.96010539882849    2.28730972842585    1.81007835317346
C        -0.78475840512483    2.45822680736700    2.74160550375765
C         0.26229852990779    3.02802503205540    1.81188423634337
C        -3.37275348302142    0.71235042411106    0.57299836963831
C        -3.38050387349138   -0.72084761613229    0.57320462554777
C        -2.76388711077236   -1.15849217249846    1.80985149009596
C        -2.41088638864480   -0.01660201592676    2.56122365270670
C        -2.73945219774638    1.14340497797986    1.79972641350306
C        -1.73509172422288   -3.01460047380523    0.58512060085105
C        -0.36176075729464   -3.46038975291625    0.58021953859765
C         0.25172606958611   -3.01777710090676    1.80688286976802
C        -0.73890075085239   -2.30360978937775    2.56916774331501
C        -1.97242448758998   -2.31460037966685    1.81087313530767
C        -0.24448203943952   -3.01403990384399   -1.82666341966811
C         0.74585019555877   -2.29099889576938   -2.58146695993702
C         1.97192025097687   -2.29156244882381   -1.82505239227870
C         1.74024758895390   -3.01466349156209   -0.60056254972917
C         0.36736107725723   -3.45993241191755   -0.59943540434652
C         2.78980604132267   -1.16701479915680   -1.82505177997188
C         2.41174138754902   -0.00156091012460   -2.58643368507767
C         2.79023539273502    1.16437245497244   -1.83219272657052
C         3.40076330369985    0.72021946880476   -0.60340448388399
C         3.40398717619611   -0.72351793737361   -0.60338110246778
C         1.97716165627380    2.29107313538446   -1.83639830823436
C         0.74785754446802    2.28798657529831   -2.59235165152452
C        -0.24176282551883    3.00631296437497   -1.83207510359448
C         0.37420610345593    3.44881635798468   -0.60515426153906
C         1.74254267776196    3.01250605157158   -0.61260917555763
C        -1.56248123295812    2.57612077087972   -1.83060847758265
C        -1.94432638429843    1.41306605377544   -2.59231788056106
C        -2.93809657134644    0.69153096492953   -1.83488903704212
C        -3.16296688903419    1.40908805186259   -0.60787666411116
C        -2.31464019831278    2.56883084117230   -0.60381258483186
C        -2.93662559878652   -0.69832751651736   -1.83228987978262
C        -1.94523007269189   -1.41884126042509   -2.58728248835167
C        -1.56678061732844   -2.58519516058206   -1.82471809704064
C        -2.32545293565484   -2.58934613812375   -0.60482947221641
C        -3.16848699553087   -1.41845050460133   -0.60483817380498
C        -0.98866209516074   -0.72408015068187   -3.31627032770817
C        -0.98915974499500    0.71716889889445   -3.31982917417324
C         0.38314370694895    1.16285830068960   -3.31996101368389
C         1.22856785683059   -0.00313187676780   -3.31600599350218
C         0.38210818458843   -1.16845173598496   -3.31558601737897
Cl       -1.93649155155249   -0.00940174409171    5.25109230884510
Cl       -1.19602418023038    3.67479530939970    4.07087385345695
62
 energy: -137.533588429294 gnorm: 0.002681718588 xtb: 6.4.1 (a3dbbd7)
C        -1.28963056538015   -0.00987018786215    3.52588525438228
C        -0.37343601227736   -1.19432765837795    3.30573894849856
C         0.96606233904787   -0.73761788462398    3.26224034338729
C         0.94389430587727    0.71611762457375    3.24760289190006
C        -0.36231704982884    1.16460106636423    3.32233050695498