64
 energy: -146.687312536681 gnorm: 0.050225335980 xtb: 6.4.1 (a3dbbd7)
C        -1.33807683238838   -0.00020559699769    3.57989633754590
C        -0.41218024628179   -1.14475169349055    3.27844956118454
C         0.95893993772382   -0.67666156681513    3.24080507688984
C         0.95900791879565    0.67605926959843    3.24004039922798
C        -0.41272302927114    1.14445678834999    3.27795511994636
C         2.30522229962414   -2.54061125806526    0.57101726487903
C         3.14983030475953   -1.38303073207154    0.55927826662108
C         2.94929186901980   -0.67852352834915    1.79088230976345
C         2.10115619339616   -1.49310022653849    2.73388611272040
C         1.58119275435394   -2.55084729505451    1.80232787975472
C         3.14926778584533    1.38166081271816    0.55895048193598
C         2.30454025027954    2.53886993541174    0.57026873816457
C         1.58013845550044    2.54907616668237    1.80150012936418
C         2.10082272309475    1.49225618225564    2.73330540326701
C         2.94871256553254    0.67739022629357    1.79095800761675
C        -0.34635529755074    3.37063169625182    0.57652795111853
C        -1.71713653869049    2.94245585938614    0.57184830734941
C        -1.98812006689453    2.24686377980451    1.79521579977946
C        -0.75182878763267    2.23802074618814    2.56739387993461
C         0.27273132105652    2.93609357466650    1.79306543808541
C        -3.37615116974777    0.71483342857642    0.56268545867327
C        -3.37610970595005   -0.71424467982314    0.56277937108538
C        -2.81032960467004   -1.15634897328629    1.80011377760474
C        -2.68340619012068    0.00009674151776    2.75721539633799
C        -2.81024729313549    1.15675693265475    1.80025568304825
C        -1.71679670375809   -2.94171682072942    0.57174490166043
C        -0.34621566307751   -3.37048709722387    0.57664057490905
C         0.27296412075654   -2.93654693301122    1.79363691042182
C        -0.75173651951273   -2.23831632789977    2.56786164527800
C        -1.98775624451761   -2.24628386646213    1.79519705003143
C        -0.24020005279210   -2.98386033634604   -1.85190982151960
C         0.74350676268588   -2.27933283467559   -2.62182307534053
C         1.95979518153767   -2.27400786994253   -1.84997296268923
C         1.72426785510343   -2.96916237679969   -0.61744024896135
C         0.36289086117814   -3.39954852406610   -0.61306890193962
C         2.77309973450143   -1.15586126415983   -1.85883294827316
C         2.40067646106783    0.00000141630502   -2.63259048995622
C         2.77345714741516    1.15592958853039   -1.85914927182462
C         3.36935170952009    0.71262870269032   -0.63062551873873
C         3.36938951286391   -0.71383690251349   -0.63019562016836
C         1.96053717120988    2.27414805916098   -1.85041652962524
C         0.74371448343484    2.27976358561546   -2.62180167418735
C        -0.24026150672965    2.98439703846467   -1.85176580502697
C         0.36314226140215    3.39979994448270   -0.61309896644702
C         1.72404555234664    2.96876259967488   -0.61801582475494
C        -1.55744688157133    2.56021032301985   -1.85256624786575
C        -1.93854870746109    1.40967869495211   -2.62215578719175
C        -2.92352309127030    0.69253632802985   -1.84726709462408
C        -3.14881224457100    1.39878473068396   -0.62222039637523
C        -2.29831584479407    2.54907836535470   -0.61898701347322
C        -2.92276475685065   -0.69176780755714   -1.84709167192995
C        -1.93778701075134   -1.40875793828273   -2.62178282646538
C        -1.55697593381548   -2.55925902938261   -1.85257987323830
C        -2.29743884704650   -2.54805093291965   -0.61905712614905
C        -3.14795349194716   -1.39799742227916   -0.62230974018464
C        -0.98909225333957   -0.72082435413068   -3.35667023147632
C        -0.98957940244353    0.72142572132820   -3.35673169066888
C         0.37925828423180    1.16466964415676   -3.35749606510936
C         1.22653269734042    0.00009622658939   -3.36354515601223
C         0.37921347149874   -1.16423761292081   -3.35767480651291
Cl       -1.66706624818506   -0.00097784702285    5.36210134901309
Cl       -4.12738686103016   -0.00046422371078    3.85771703368567
Cl        3.06848008694180   -2.11947762060478    4.13821804797858
Cl        3.06757180230275    2.12070612134580    4.13777460023262
64
 energy: -146.692197401232 gnorm: 0.024274977763 xtb: 6.4.1 (a3dbbd7)
C        -1.32100524710780   -0.00011106456368    3.57041208497112
C        -0.40221678670231   -1.15823627805457    3.27273192035937
C         0.96214931075773   -0.68222184896099    3.23523883944901
C         0.96223051687349    0.68175696610564    3.23500295524928
C        -0.40239879572760    1.15799251278336    3.27270821118676
C         2.30764835479542   -2.55972377184010    0.57401848680820
C         3.15208396378746   -1.39365951769563    0.56896947377106
C         2.95114777714043   -0.68197843250550    1.79490587931487
C         2.09605058888558   -1.50938478628215    2.72648839866660
C         1.57903199852972   -2.58103814643909    1.79967328026029
C         3.15197915275313    1.39308240729360    0.56891901007003
C         2.30756405824544    2.55899744440011    0.57381876058446
C         1.57874499662510    2.58021180924844    1.79940381302201
C         2.09583577285157    1.50879705125036    2.72619685304156
C         2.95097957925819    0.68146561467420    1.79501533677048
C        -0.35563905798726    3.40355529909863    0.57082811340650
C        -1.72720159452652    2.96830627513302    0.56858582744280
C        -1.98598444190121    2.26239463086119    1.79138088255954
C        -0.75128665170852    2.26046081434294    2.56673236827139
C         0.26259954759031    2.96709900679479    1.78840532704023
C        -3.37885643227357    0.71829759592002    0.56425706751581
C        -3.37888924977734   -0.71797749460031    0.56429985398629
C        -2.80425460535443   -1.16249385556566    1.79554958877628
C        -2.66728123913690    0.00001086693189    2.75100387068507
C        -2.80419013872755    1.16266434379646    1.79567774987713
C        -1.72719994893002   -2.96801326272477    0.56850360712029
C        -0.35567678770810   -3.40355643299545    0.57077591794475
C         0.26256706929373   -2.96733051098662    1.78851949736558
C        -0.75137211231962   -2.26071683358231    2.56678759282671
C        -1.98591552491844   -2.26217087600243    1.79130667633508
C        -0.24540187377435   -3.00066334955273   -1.85042226766726
C         0.74484237097089   -2.28795888740734   -2.61260390249739
C         1.96629815248929   -2.28455829882143   -1.84592139800318
C         1.72669839614126   -2.99129876668360   -0.61649543412519
C         0.36329130715781   -3.42957285780238   -0.61680623878040
C         2.78247174357158   -1.16294164251791   -1.84973522466443
C         2.40690152338307   -0.00001863156239   -2.61426384634908
C         2.78258342502050    1.16288273363530   -1.84970888522947
C         3.38215018185893    0.71580373014866   -0.62029643432036
C         3.38203333318156   -0.71631025642257   -0.62018593744163
C         1.96658696614876    2.28453559252308   -1.84593585445306
C         0.74498149994333    2.28814323969439   -2.61260171843582
C        -0.24530848294649    3.00088827080240   -1.85031006651157
C         0.36351126731982    3.42959553406136   -0.61670638080897
C         1.72673991308860    2.99117669306838   -0.61657942537624
C        -1.56540305854789    2.57344931430723   -1.85149492760533
C        -1.94465850429039    1.41338622174026   -2.61479067164058
C        -2.93540722350592    0.69359628757103   -1.85145295821307
C        -3.16007345557408    1.40762744516969   -0.62325918632870
C        -2.31522185563624    2.56573024680778   -0.62186864967804
C        -2.93513427692656   -0.69312598247401   -1.85136146014286
C        -1.94451948355484   -1.41293168680054   -2.61468295906193
C        -1.56537938848254   -2.57297696198024   -1.85151732627426
C        -2.31504569516563   -2.56525629785034   -0.62190328577863
C        -3.15981198592960   -1.40719149785897   -0.62331446182928
C        -0.98934089570552   -0.72130876002037   -3.34749881053443
C        -0.98948767511714    0.72162517558386   -3.34751353105505
C         0.38057854271923    1.16643296513654   -3.34681419230234
C         1.22817671352696    0.00004938002805   -3.34772597661504
C         0.38050280343390   -1.16619198622713   -3.34687852669894
Cl       -1.59838377416989   -0.00054787963039    5.36091571960978
Cl       -4.13334951483837   -0.00004110273944    3.81836304358877
Cl        3.05361373329691   -2.16367420480547    4.12208949085277
Cl        3.05314770685546    2.16420443265222    4.12183531807220
64
 energy: -146.692767614401 gnorm: 0.010943943046 xtb: 6.4.1 (a3dbbd7)
C        -1.31368055814775   -0.00005368394122    3.55170411758771
C        -0.39459864386292   -1.16391127039292    3.26348963411789
C         0.96288073846599   -0.68530926880434    3.23388065982852
C         0.96293782626037    0.68506333809095    3.23399921231912
C        -0.39455338231048    1.16374213363517    3.26367168642390
C         2.30888897169302   -2.56866312369987    0.57539724940742
C         3.15188031320387   -1.39772967766896    0.57438336007184
C         2.95046781755680   -0.68368476696253    1.79652782425264
C         2.09217939050403   -1.51684367477857    2.72462933146814
C         1.57761430951705   -2.59428160599926    1.79599080993038
C         3.15202992233237    1.39760449703552    0.57446385850792
C         2.30913698724656    2.56855912279548    0.57553081731752
C         1.57780175521268    2.59409085627307    1.79608308928119
C         2.09215936548782    1.51651844846344    2.72459857085791
C         2.95058550236607    0.68352360038575    1.79659860098946
C        -0.35999685151767    3.42417992006160    0.56781976821924
C        -1.73189520108061    2.98491758761778    0.56654464958407
C        -1.98246659568549    2.27187390064173    1.78745377981575
C        -0.74879756034273    2.27286940592096    2.56336047691376
C         0.25753704198911    2.98464866962269    1.78516113026244
C        -3.37877137720687    0.72067152446188    0.56460100693869
C        -3.37883316166308   -0.72053302901897    0.56461685894657
C        -2.79827119081300   -1.16701360492545    1.79001750569146
C        -2.65162361861694   -0.00000892145435    2.74229373243804
C        -2.79820340086953    1.16704709696602    1.79007132967188
C        -1.73208967116303   -2.98490554029798    0.56646281141501
C        -0.36016453303949   -3.42423238495269    0.56767145789914
C         0.25734475130012   -2.98475679475254    1.78501634103151
C        -0.74896639776354   -2.27305135942633    2.56323148303186
C        -1.98259346725588   -2.27188472614786    1.78737490095270
C        -0.24794378116796   -3.00977638068559   -1.84853064040069
C         0.74498703759525   -2.29156008896009   -2.60620369801516
C         1.96842237652165   -2.28899891325370   -1.84304770063087
C         1.72889517095561   -3.00455735771761   -0.61603492408625
C         0.36539084649394   -3.44775086432014   -0.61877264874251
C         2.78528808727788   -1.16585806068361   -1.84391872079874
C         2.40874618208212   -0.00002371925914   -2.60340059194185
C         2.78530704590580    1.16575541424836   -1.84378325339867
C         3.38918479705610    0.71662565169226   -0.61460003695016
C         3.38906036938584   -0.71673207551676   -0.61465638617060
C         1.96849633428059    2.28892501976192   -1.84288237941916
C         0.74509456807033    2.29159152161891   -2.60615344140139
C        -0.24776653752031    3.00981690938684   -1.84841138368116
C         0.36558877882932    3.44769499462984   -0.61860737011333
C         1.72908895367368    3.00454720946195   -0.61585094781567
C        -1.56873390890165    2.58067384749793   -1.84981736385034
C        -1.94735773150676    1.41530844793364   -2.60934721877102
C        -2.93939874514096    0.69385571882606   -1.85305794267106
C        -3.16649521420977    1.41402428114244   -0.62349433972772
C        -2.32489972915107    2.57526923109653   -0.62310787042621
C        -2.93938004878214   -0.69359827310375   -1.85297101482157
C        -1.94751575806868   -1.41513075384839   -2.60938081826869
C        -1.56893152624489   -2.58053223718638   -1.84988435369903
C        -2.32510716895137   -2.57516037593779   -0.62315598734522
C        -3.16658934450642   -1.41384241372787   -0.62350454010719
C        -0.98940483498981   -0.72100804964059   -3.34074058844487
C        -0.98935109961297    0.72116528009513   -3.34072689175869
C         0.38072593461483    1.16657513749734   -3.33884395410471
C         1.22786112803986    0.00002477949653   -3.33778172621456
C         0.38064813690221   -1.16646603460578   -3.33887557981631
Cl       -1.62711179647212   -0.00025753211912    5.33325828961403
Cl       -4.08163568719236    0.00011168423665    3.85188237552692
Cl        3.04066732678091   -2.20287193260972    4.11020778428305
Cl        3.04065726467906    2.20275100341389    4.11022068737531
64
 energy: -146.693092653612 gnorm: 0.004235832321 xtb: 6.4.1 (a3dbbd7)
C        -1.31550989561533   -0.00004107912160    3.55309941288907
C        -0.39300901956318   -1.16096889344429    3.25944365444455
C         0.96250834846465   -0.68537923778168    3.23368209366552
C         0.96256886012473    0.68522275516767    3.23384623618314
C        -0.39292652095353    1.16083665849106    3.25959485832232
C         2.30823533002373   -2.56760011907497    0.57567334701246
C         3.15091688077559   -1.39670713648737    0.57481830381500
C         2.95030523169125   -0.68369280135701    1.79656123718191
C         2.09178544522038   -1.51602501416898    2.72577714324686
C         1.57670446300061   -2.59202360736901    1.79466737128782
C         3.15106308881593    1.39658594786470    0.57491047589602
C         2.30847343036934    2.56753349511516    0.57584125333729
C         1.57692841184594    2.59191542273129    1.79481782946960
C         2.09187251352057    1.51579684197085    2.72584984151054
C         2.95046061388547    0.68353233237583    1.79663117546511
C        -0.36039042130857    3.42510888948522    0.56892234621655
C        -1.73192713348799    2.98522000710649    0.56763064694537
C        -1.98168313864224    2.27100939802377    1.78772713723645
C        -0.74827141747722    2.27196182771083    2.56281594449687
C         0.25681044728299    2.98444609172984    1.78579845438512
C        -3.37712407142984    0.72064280281337    0.56415259448975
C        -3.37717229467376   -0.72053926798526    0.56414755870535
C        -2.79635918681963   -1.16546449225904    1.78849997262936
C        -2.65462462719740   -0.00000078221270    2.74466956477109
C        -2.79628121034273    1.16548158494443    1.78852484765056
C        -1.73212398391778   -2.98522971317975    0.56752240455180
C        -0.36057852666852   -3.42514733688460    0.56876163763725
C         0.25661249699041   -2.98454638888334    1.78563417832277
C        -0.74843212608071   -2.27209183305978    2.56269419582172
C        -1.98183669902971   -2.27105040391288    1.78764643388018
C        -0.24814445018565   -3.00953089389882   -1.84712964728099
C         0.74427228809942   -2.29075054771602   -2.60479919679350
C         1.96708090348385   -2.28814431998144   -1.84210936924872
C         1.72879351666913   -3.00535979936479   -0.61552896463852
C         0.36593215661313   -3.44838966539598   -0.61776853732346
C         2.78348400980329   -1.16533103657991   -1.84293325979761
C         2.40749238489377   -0.00002021040821   -2.60228503028280
C         2.78352468670149    1.16523899737360   -1.84283996705441
C         3.38910576222023    0.71601264024800   -0.61416126237089
C         3.38904050133526   -0.71611158770934   -0.61422541674478
C         1.96716764658031    2.28808825866873   -1.84196929553589
C         0.74437949463830    2.29076613136078   -2.60470080435631
C        -0.24797353045552    3.00955674084486   -1.84698896688476
C         0.36611963582676    3.44835325123826   -0.61760145683191
C         1.72898528244579    3.00530953139330   -0.61533783528780
C        -1.56827488798606    2.58049877149363   -1.84853152324719
C        -1.94698977346423    1.41520749215833   -2.60826499409865
C        -2.93786636055220    0.69359106211058   -1.85283888475560
C        -3.16658631849524    1.41482413713937   -0.62315822262177
C        -2.32531968113560    2.57493619508012   -0.62214508280695
C        -2.93786692125286   -0.69338319996215   -1.85278428727970
C        -1.94711950975245   -1.41505748001849   -2.60832689605693
C        -1.56845331439403   -2.58041148943064   -1.84864208304921
C        -2.32552299975419   -2.57487325186996   -0.62223741567344
C        -3.16670012077475   -1.41468928242528   -0.62318517584951
C        -0.98942633687428   -0.72060720173806   -3.33962819598144
C        -0.98936406001561    0.72075400612076   -3.33959732631905
C         0.38027355348492    1.16606482567474   -3.33725524059623
C         1.22693381859124    0.00002402525710   -3.33666398591915
C         0.38020977347226   -1.16598015189828   -3.33731028359376
Cl       -1.58521212993630   -0.00015236927999    5.34312956581257
Cl       -4.10996302007755    0.00009630852730    3.82112671963564
Cl        3.03762859246187   -2.21306844978165    4.10743203343233
Cl        3.03779062750460    2.21279035202971    4.10756901631256
64
 energy: -146.693129799611 gnorm: 0.002258747434 xtb: 6.4.1 (a3dbbd7)
C        -1.31625675976523   -0.00004389254429    3.55300110784998
C        -0.39337775810694   -1.16066216567339    3.26008169746136
C         0.96202273719161   -0.68537041480801    3.23431783662491
C         0.96209831580975    0.68519258562719    3.23443241378579
C        -0.39330907657371    1.16053771455773    3.26018894035767
C         2.30749660274869   -2.56588318776359    0.57556482535316
C         3.15035833764092   -1.39570093235065    0.57452216858553
C         2.95031867719767   -0.68354317424885    1.79685576416848
C         2.09188837334902   -1.51489811826183    2.72643848007492
C         1.57633810005843   -2.58976311222400    1.79455104145351
C         3.15045999077420    1.39550382723982    0.57460801270617
C         2.30766099975805    2.56572156693458    0.57569221186322
C         1.57649151147338    2.58957979210315    1.79467329543571
C         2.09198726320838    1.51466448300869    2.72652282971500
C         2.95043699694923    0.68332043828661    1.79694956390220
C        -0.35986585484959    3.42245899325377    0.56929377916634
C        -1.73115172228999    2.98295113310834    0.56782402402367
C        -1.98202007835418    2.27000482188092    1.78815489066840
C        -0.74854605309716    2.27119327470908    2.56338556573035
C         0.25729220342887    2.98284645880244    1.78650626693866
C        -3.37668217639392    0.72040114406921    0.56415384652587
C        -3.37671933630993   -0.72028098362432    0.56413531477097
C        -2.79691239176319   -1.16514037786267    1.78876613897715
C        -2.65422956644949    0.00000235244700    2.74495961163621
C        -2.79683584185707    1.16517545895124    1.78880303699882
C        -1.73131396422601   -2.98291834062467    0.56769945746246
C        -0.36004114078142   -3.42249231000561    0.56914294023161
C         0.25712427988719   -2.98296184740291    1.78637060963203
C        -0.74868471208664   -2.27129861732838    2.56327830089661
C        -1.98215066727981   -2.27001342516674    1.78806269921402
C        -0.24780092551277   -3.00785020921609   -1.84735235629744
C         0.74416751792708   -2.28978271016394   -2.60567742080134
C         1.96638522148277   -2.28713681638922   -1.84241050047048
C         1.72827212593707   -3.00363835416450   -0.61563761156004
C         0.36582529099307   -3.44565311855211   -0.61751499396702
C         2.78254308500918   -1.16474244305328   -1.84336750447921
C         2.40690397974151   -0.00001880471545   -2.60339433240404
C         2.78259952189726    1.16465457373312   -1.84330061146205
C         3.38777675790955    0.71562308031626   -0.61447592995721
C         3.38773604828200   -0.71578625543446   -0.61452118012075
C         1.96650359838965    2.28708884068291   -1.84230248009386
C         0.74428095585926    2.28982139811540   -2.60557327285963
C        -0.24764675830273    3.00790364109448   -1.84721209406809
C         0.36600828706934    3.44562511893084   -0.61735936212078
C         1.72843331684865    3.00354852361074   -0.61548931671750
C        -1.56751031196231    2.57919784646932   -1.84873944731558
C        -1.94633685098435    1.41466548761660   -2.60900761848039
C        -2.93669092963689    0.69341302691381   -1.85271500463060
C        -3.16561083778433    1.41413379385589   -0.62296969051772
C        -2.32392170838723    2.57316543697501   -0.62194397222408
C        -2.93667745355637   -0.69319389948446   -1.85270250583328
C        -1.94640919642086   -1.41448205235648   -2.60906529327013
C        -1.56764498653444   -2.57907272340796   -1.84885624653660
C        -2.32405884039315   -2.57305602105380   -0.62205429024047
C        -3.16567410860715   -1.41397140364230   -0.62302347763753
C        -0.98928113267350   -0.72045539464818   -3.34084450698103
C        -0.98924596960092    0.72062150819078   -3.34080716409395
C         0.38035424994245    1.16585842918897   -3.33851316368879
C         1.22694337100724    0.00002669793618   -3.33813851778035
C         0.38029516744421   -1.16576196053196   -3.33857521970464
Cl       -1.59220068047950   -0.00013893176203    5.34186206986303
Cl       -4.10609212634333    0.00005966845012    3.82572064506999
Cl        3.03908543584017   -2.20910496530364    4.10778347885445
Cl        3.03923810483084    2.20889358431800    4.10791309869591
64
 energy: -146.693135014180 gnorm: 0.000719235125 xtb: 6.4.1 (a3dbbd7)
C        -1.31642168315143   -0.00004645644119    3.55202736311439
C        -0.39301369500153   -1.16070043504254    3.25957349408278
C         0.96179775946809   -0.68559005338101    3.23434536457404
C         0.96187668215529    0.68540858309912    3.23445420103866
C        -0.39293918733756    1.16057628136069    3.25966306585195
C         2.30717853799447   -2.56550517586670    0.57563261404330
C         3.15015278378266   -1.39543003549967    0.57469117941938
C         2.95028581797969   -0.68358586341360    1.79704086303194
C         2.09183051411501   -1.51482717717380    2.72670114298246
C         1.57603853378784   -2.58944607688446    1.79419373416310
C         3.15025723837671    1.39522916293547    0.57477759319683
C         2.30732770999061    2.56533738030234    0.57575709375534
C         1.57618841580090    2.58926474301585    1.79432288662051
C         2.09194617206476    1.51460392693487    2.72680550123855
C         2.95041381201637    0.68336150135777    1.79714323392320
C        -0.35985381758943    3.42245931218313    0.56939593735104
C        -1.73102336701016    2.98287545355833    0.56790625918382
C        -1.98197886074565    2.27010016582390    1.78826602290522
C        -0.74860670742098    2.27170707360600    2.56364857155755
C         0.25721803740455    2.98331840118117    1.78686415458174
C        -3.37638042375995    0.72042117768066    0.56425334667206
C        -3.37641594319289   -0.72030173504342    0.56422761830174
C        -2.79679419656902   -1.16517552606643    1.78860490986478
C        -2.65365869399443    0.00000190348044    2.74503485389979
C        -2.79672536195956    1.16521346948949    1.78864549808498
C        -1.73118348981563   -2.98284245452141    0.56777518590608
C        -0.36003532103694   -3.42249778222993    0.56924393293307
C         0.25705415462620   -2.98343872275089    1.78672728614600
C        -0.74873520367379   -2.27179859477380    2.56353545420100
C        -1.98210747854590   -2.27010834710737    1.78816669769338
C        -0.24779440478399   -3.00755501650002   -1.84727929012756
C         0.74412987644340   -2.28953395658466   -2.60573574708333
C         1.96620435217164   -2.28692910236327   -1.84242583603308
C         1.72811330704178   -3.00358691599652   -0.61564607349075
C         0.36594101739021   -3.44536456177838   -0.61739754765745
C         2.78229089310846   -1.16466231426421   -1.84329323895655
C         2.40672252099759   -0.00001733300754   -2.60329493540879
C         2.78234806011024    1.16457447179049   -1.84323283795841
C         3.38762619857577    0.71546523092992   -0.61431828262414
C         3.38759509825022   -0.71563164223311   -0.61436229320689
C         1.96632493432879    2.28688339680697   -1.84232291751671
C         0.74424842825765    2.28957969624096   -2.60563126978272
C        -0.24763810730876    3.00761516872443   -1.84714295796248
C         0.36612337801643    3.44533499154650   -0.61724359061767
C         1.72827192643116    3.00348872564481   -0.61550490718454
C        -1.56730629385476    2.57900752663915   -1.84867683674056
C        -1.94619990706728    1.41450883602301   -2.60900434136275
C        -2.93636469132280    0.69333352285196   -1.85275489206700
C        -3.16544574972666    1.41422054926646   -0.62279326609649
C        -2.32380337721373    2.57285656035921   -0.62180677328933
C        -2.93638067130040   -0.69312626082569   -1.85276957546310
C        -1.94627026760571   -1.41432451271395   -2.60906509302699
C        -1.56743956127671   -2.57888086180768   -1.84879350886195
C        -2.32393775734152   -2.57274563820131   -0.62192153591305
C        -3.16551412828657   -1.41405885962475   -0.62285323088019
C        -0.98926925221666   -0.72035240132261   -3.34109714399182
C        -0.98922962967858    0.72051904456982   -3.34105772359191
C         0.38041224706386    1.16580514394123   -3.33873896815313
C         1.22692678695898    0.00002706782710   -3.33836639675617
C         0.38035212701591   -1.16570804452236   -3.33879686184974
Cl       -1.59373770327813   -0.00010278241523    5.34064942135107
Cl       -4.10419864876241    0.00003564025724    3.82728765818762
Cl        3.03873773197934   -2.20958827746284    4.10725328555140
Cl        3.03889503664746    2.20936654600028    4.10738332662605
64
 energy: -146.693135577489 gnorm: 0.000315662300 xtb: 6.4.1 (a3dbbd7)
C        -1.31652180073757   -0.00004313866643    3.55169125957928
C        -0.39285150635473   -1.16072352312733    3.25924194140749
C         0.96166381415901   -0.68569541650450    3.23425482241520
C         0.96173492456783    0.68551582310803    3.23433929109159
C        -0.39277358762541    1.16060987847669    3.25932484933391
C         2.30706202278162   -2.56539975740170    0.57570597988173
C         3.15013611818858   -1.39535119479799    0.57478106371277
C         2.95027772730067   -0.68361048834483    1.79711452150461
C         2.09191207920034   -1.51488950062023    2.72686848506678
C         1.57591626709411   -2.58944266638455    1.79404078124691
C         3.15024528641696    1.39515439734358    0.57486775949957
C         2.30720984985942    2.56523389859948    0.57582989486448
C         1.57606524654552    2.58926429041487    1.79416715873653
C         2.09202588008047    1.51467054514793    2.72697420411121
C         2.95041337452291    0.68339626151478    1.79722117273391
C        -0.35985502591796    3.42254666119414    0.56944359760959
C        -1.73098303796906    2.98291378381040    0.56793636034178
C        -1.98198751422141    2.27021590215770    1.78833699299292
C        -0.74874069591156    2.27210477042578    2.56388216546615
C         0.25716715639997    2.98369834539803    1.78710488527450
C        -3.37629702795742    0.72044805258698    0.56431083800895
C        -3.37633336333058   -0.72032507767492    0.56427845113216
C        -2.79679947703919   -1.16523434795983    1.78853873284957
C        -2.65353422914618    0.00000083650354    2.74516215348588
C        -2.79673371755201    1.16527839944836    1.78858646892502
C        -1.73114859224232   -2.98288127777389    0.56780235257103
C        -0.36004403039487   -3.42258578084601    0.56929043388991
C         0.25699928224437   -2.98381322265271    1.78696932023198
C        -0.74886953633666   -2.27219158959232    2.56377604715155
C        -1.98211788680991   -2.27022049615757    1.78823448262670
C        -0.24781312314052   -3.00747392663748   -1.84724702673407
C         0.74414189559999   -2.28948716794744   -2.60577402443253
C         1.96619926555386   -2.28689891513027   -1.84246239113919
C         1.72803380186231   -3.00359297785756   -0.61563755266297
C         0.36599960286741   -3.44526831839203   -0.61731419900308
C         2.78226906696906   -1.16466876434166   -1.84329796442035
C         2.40670190174821   -0.00001809498242   -2.60325125147474
C         2.78232635716277    1.16457793827419   -1.84323845069575
C         3.38762302128267    0.71541499815393   -0.61424873617462
C         3.38759252814436   -0.71558008847278   -0.61429406731738
C         1.96631959790060    2.28685061491516   -1.84235842142193
C         0.74426430752661    2.28953278824525   -2.60567161307694
C        -0.24765178552854    3.00753608471978   -1.84711285399830
C         0.36618511240774    3.44524189577949   -0.61716022827868
C         1.72819651011437    3.00349534130447   -0.61549838793931
C        -1.56724568766020    2.57897527741224   -1.84867418005909
C        -1.94618903509759    1.41445811374300   -2.60901649476771
C        -2.93630464872694    0.69330522936920   -1.85282749994143
C        -3.16537663340843    1.41428649319081   -0.62272248036757
C        -2.32378796929291    2.57277538500776   -0.62174892590392
C        -2.93635578231189   -0.69310868383411   -1.85286931873491
C        -1.94626877389670   -1.41427763608106   -2.60908497432320
C        -1.56738492891370   -2.57884746044048   -1.84879103608933
C        -2.32392907366755   -2.57266065281467   -0.62186664434765
C        -3.16545764150001   -1.41412566467565   -0.62278831713830
C        -0.98929692241993   -0.72032581979000   -3.34125008488442