65
 energy: -151.239180522793 gnorm: 0.052076220689 xtb: 6.4.1 (a3dbbd7)
C        -1.31208140235926   -0.00301397211072    3.55517611227542
C        -0.38704988610822   -1.16082884294581    3.25671538558252
C         0.92630531970358   -0.71244320079620    3.20299053839337
C         0.90912931810848    0.70661075799463    3.17534852926477
C        -0.38550911449832    1.14286138764065    3.24814290441618
C         2.29720782642461   -2.55256325481948    0.56986238179595
C         3.13510961577690   -1.38320412162851    0.55842231708121
C         2.92695292091391   -0.67753654838618    1.79004650461061
C         2.08489894879303   -1.50743140272729    2.72797709265704
C         1.57883666315731   -2.57918665273373    1.79694644813616
C         3.13282274191896    1.38211988298541    0.55850264516438
C         2.28083798701496    2.53169365587912    0.56762605770184
C         1.55356016269041    2.56706002830211    1.80108985701574
C         2.08780118584268    1.50209043389630    2.72937635114780
C         2.93591871189206    0.67974564295167    1.79279035271784
C        -0.34206260829987    3.37076481674820    0.57616558883484
C        -1.70082706547083    2.93565875603526    0.56857425544574
C        -1.96275227330098    2.26616610112403    1.80780200421958
C        -0.81203340969239    2.47277140427441    2.75856268105744
C         0.26093270113933    2.97427222455771    1.81367260981043
C        -3.32007177290277    0.71312666905320    0.56453693532352
C        -3.33802206710747   -0.71550979177756    0.56617132455073
C        -2.78305437584578   -1.16012353974436    1.80075358394460
C        -2.65333716516901   -0.00290027136861    2.76037970829058
C        -2.74633817197859    1.16287088063820    1.80334523883686
C        -1.71835451523222   -2.96360030194027    0.55685840821909
C        -0.35087950681886   -3.40037024103769    0.56049131471616
C         0.26253939322082   -2.97508440011377    1.78987237804846
C        -0.75760349377702   -2.29282077069229    2.55216491925499
C        -1.97862325290488   -2.27396450766623    1.79554685921855
C        -0.24036566071490   -2.99396157083144   -1.86385297894091
C         0.74248324061961   -2.28481090706018   -2.62984259632105
C         1.95664110343031   -2.27949952524165   -1.85388525506105
C         1.72065873485915   -2.97745601751253   -0.62495150689810
C         0.36211284264219   -3.41392990112467   -0.62497897739195
C         2.76780271611148   -1.15992801740058   -1.86148992867713
C         2.39978106212846   -0.00738597438775   -2.63888376451767
C         2.77049056718013    1.14831440518057   -1.86329248114220
C         3.35618154526241    0.71024358948505   -0.62867569829817
C         3.35852900936331   -0.71760180038188   -0.62935278449294
C         1.95417023171073    2.26254068564009   -1.86025830559507
C         0.74359967915716    2.26925925670324   -2.63480399122126
C        -0.23758243110067    2.97294992516618   -1.85687170599169
C         0.35924399436316    3.38479713751320   -0.61542185148198
C         1.71299025292697    2.94954880434631   -0.62210679948317
C        -1.55226709062037    2.54899601262531   -1.86083864693691
C        -1.93413441373618    1.39917944203366   -2.63676310557380
C        -2.90950669014294    0.68345149815321   -1.85737780319272
C        -3.11727098847224    1.38443332661918   -0.62259767778203
C        -2.27647622456973    2.53606278187047   -0.62236978619540
C        -2.91572186615145   -0.69934554880774   -1.85294969539316
C        -1.93602111723868   -1.41795687049921   -2.63263356067961
C        -1.55594822441164   -2.56893177479811   -1.86437096686734
C        -2.29538202967740   -2.55919188588916   -0.62869566403582
C        -3.13360723339760   -1.40112052668092   -0.62467535219153
C        -0.98897970896332   -0.72850125971972   -3.37033127052756
C        -0.98724771743439    0.71281390087741   -3.37536147942656
C         0.38117105000870    1.15662479407939   -3.37469693782187
C         1.22807888933123   -0.00623962515482   -3.37485071853247
C         0.38086003320266   -1.17184923031118   -3.36911266248765
Cl       -1.61640560185388    0.04802064683518    5.35144387384907
Cl       -4.09546890295130    0.03323229205713    3.84454584428475
Cl        3.07542481005466   -2.12578568378745    4.13053045721062
Cl        2.99064268002834    2.12096570982906    4.15692092666211
Cl       -1.19845943263397    3.59412922325654    4.12564309001771
65
 energy: -151.245171813989 gnorm: 0.021896982732 xtb: 6.4.1 (a3dbbd7)
C        -1.29884692539447   -0.00291504837556    3.53389909428808
C        -0.38278997171871   -1.17745156081251    3.25973020335491
C         0.93261515095475   -0.71844642612124    3.21080717641894
C         0.91158013339278    0.70686381193973    3.17205640382274
C        -0.37702594801863    1.15532258833152    3.24164893209445
C         2.30008888584167   -2.56862788084697    0.57158427983177
C         3.13837287554686   -1.39457233766564    0.56691273797100
C         2.92777253099396   -0.68226338432308    1.79075886577307
C         2.07926917204158   -1.51986148866547    2.71828234780289
C         1.57627592729198   -2.60414994401873    1.79521883586965
C         3.13634111000485    1.39032963604706    0.56624063245354
C         2.29143611290228    2.55325664897442    0.56745193383340
C         1.55994597335472    2.59615159528955    1.79647575495418
C         2.07992403762716    1.51701532930416    2.72170436526832
C         2.93164553907270    0.68212490210955    1.79345984720977
C        -0.34790529809516    3.40815540647909    0.57047025870457
C        -1.71146663686354    2.96133249456044    0.56746375222559
C        -1.96598554753487    2.27732717705488    1.80025057565203
C        -0.80488521023020    2.48528797975870    2.74622472112300
C         0.26176114777853    3.01554629475945    1.80507399620742
C        -3.33520604754067    0.71317558599070    0.56605593849161
C        -3.34911415907364   -0.72318289930217    0.56770424957106
C        -2.78478453093098   -1.17230435691149    1.79463931031145
C        -2.64252926905817   -0.00655240997039    2.74698940947396
C        -2.74901180381892    1.16362916324678    1.79452777787045
C        -1.72669505532923   -2.99027418923439    0.55681213910268
C        -0.35764755366806   -3.43124645669629    0.55833978585944
C         0.25478310720292   -3.00185306866232    1.78736379987541
C        -0.75699748593650   -2.31518906446435    2.56198839107594
C        -1.97547563579626   -2.28828600328583    1.79198634907852
C        -0.24447049316523   -3.01116227453345   -1.86038458453136
C         0.74475684178817   -2.29350002821041   -2.61921915742283
C         1.96511211998238   -2.29021230914635   -1.85026092458266
C         1.72512985153688   -2.99932409211907   -0.62368199202381
C         0.36331965541928   -3.44359367710076   -0.62669063127339
C         2.78011191409402   -1.16764239527706   -1.85411584162782
C         2.40723088059808   -0.00667944406278   -2.62068707854854
C         2.78200961562319    1.15666525179372   -1.85553680296135
C         3.37241681692003    0.71217457597507   -0.62136957848990
C         3.37308129224467   -0.72016397838278   -0.62126421849023
C         1.96620226251328    2.27775660171398   -1.85681614598259
C         0.74671081395058    2.28191770751690   -2.62278833990108
C        -0.24194860463976    2.99483919987250   -1.85626127581652
C         0.36400298211537    3.42103564048024   -0.62170725953716
C         1.72353401198113    2.98073277133772   -0.62447802306204
C        -1.56059293239638    2.56722624601768   -1.85757102800236
C        -1.94191560186374    1.40672498566302   -2.62255160378025
C        -2.92583512014186    0.68659965221044   -1.85531821746867
C        -3.13725142593239    1.39645383695109   -0.62203327614740
C        -2.29708476814552    2.55520746819701   -0.62270836462795
C        -2.92820229526622   -0.70112317264012   -1.85204833909773
C        -1.94217771399890   -1.42199334277857   -2.62167629197659
C        -1.56374992003060   -2.58377834391223   -1.86126399750067
C        -2.31158688468523   -2.57792392627743   -0.62914297466173
C        -3.14937964897603   -1.41390366321491   -0.62547350392658
C        -0.98926381170848   -0.72809181938389   -3.35566652637399
C        -0.98842326189784    0.71509903718772   -3.35804282772703
C         0.38200780230496    1.16007625443513   -3.35815910800484
C         1.22929446778487   -0.00555707815231   -3.35645345000863
C         0.38165171052066   -1.17286021327225   -3.35493576295670
Cl       -1.55452298190349    0.03092540948858    5.33249382826028
Cl       -4.09923225007075    0.01406638353995    3.81196421437865
Cl        3.05401023905954   -2.16054702156614    4.11781306368659
Cl        2.98959663349297    2.14115727509286    4.14287031558177
Cl       -1.19571629866578    3.62035452234168    4.09974536563317
65
 energy: -151.245856006340 gnorm: 0.008478543903 xtb: 6.4.1 (a3dbbd7)
C        -1.29458093864989   -0.00188628209689    3.51883013767244
C        -0.37879036944203   -1.17942050697993    3.25086849322144
C         0.93734840728289   -0.71896997050954    3.21501905717569
C         0.91281304795234    0.70771129480596    3.17082715944319
C        -0.37261139902707    1.16112698957551    3.23487805818337
C         2.30209913324042   -2.57515537860793    0.57150195536546
C         3.13952642510649   -1.39915147499701    0.57113131216073
C         2.92834022941836   -0.68527177551931    1.79058491519472
C         2.07679196400827   -1.52553464143581    2.71500841087204
C         1.57455015405680   -2.61320977258191    1.79201709026086
C         3.13639003715557    1.39278625733618    0.57024857670508
C         2.29649272398140    2.56275231418639    0.56775059584723
C         1.56115986397445    2.60379463501436    1.79186963076789
C         2.07605270358299    1.52334067002721    2.71937861551756
C         2.92790817172417    0.68262376403284    1.79247404156721
C        -0.35121103255600    3.42792030634359    0.56751675104856
C        -1.71679321425752    2.97465365491404    0.56628533798582
C        -1.96659462596963    2.28228216614644    1.79340953719216
C        -0.80162669968495    2.48932475509417    2.73842876384598
C         0.26088211715368    3.03079152807938    1.79719191231573
C        -3.34200386795455    0.71390184603049    0.56647508197908
C        -3.35383734199085   -0.72642454286583    0.56787610111368
C        -2.78228204315077   -1.17742873151116    1.78822447959674
C        -2.63036197421861   -0.00738416121528    2.73770134488417
C        -2.74876644001012    1.16409130887780    1.78749332237949
C        -1.73017468010347   -3.00471798738736    0.55627480235948
C        -0.36063038179743   -3.44858554167220    0.55705381694037
C         0.25162646379939   -3.01543253948507    1.78456758717357
C        -0.75414206060395   -2.32291644665211    2.56200710869436
C        -1.97142906091065   -2.29395722920326    1.78715472948889
C        -0.24624798435356   -3.01964353999806   -1.85709382241302
C         0.74572816667133   -2.29703866149666   -2.61193954995879
C         1.96839961359118   -2.29436854535066   -1.84747350928165
C         1.72873414300983   -3.01184102854018   -0.62310427373148
C         0.36542487077868   -3.46018421971500   -0.62747311104979
C         2.78458624651097   -1.17057876701521   -1.84917597077381
C         2.40961642975552   -0.00597182647491   -2.60990588419265
C         2.78504072789993    1.16043639382205   -1.85017430423166
C         3.38092009763212    0.71242709962969   -0.61766396141788
C         3.38119683039547   -0.72026506635376   -0.61717936324097
C         1.97069917746250    2.28467713635002   -1.85309264501301
C         0.74762681971596    2.28711403926213   -2.61439268188887
C        -0.24395650867250    3.00526576692758   -1.85444483506724
C         0.36742480652527    3.44185959148553   -0.62440193941044
C         1.72902387374846    2.99861142513061   -0.62463916629955
C        -1.56360687065429    2.57558498021197   -1.85488387345770
C        -1.94460075011873    1.41014772573087   -2.61377370316534
C        -2.93220778962828    0.68813733123562   -1.85327045245459
C        -3.14792409071133    1.40436666605601   -0.62189501552593
C        -2.30886951066400    2.56539652840269   -0.62307534516103
C        -2.93220555874707   -0.70144261345979   -1.85058822392708
C        -1.94424892133666   -1.42352095937918   -2.61413010279470
C        -1.56679943363656   -2.59099056539345   -1.85822764091200
C        -2.32039775900218   -2.58719632197900   -0.62911862138262
C        -3.15790935264200   -1.42095433854801   -0.62590242516509
C        -0.98865137521903   -0.72752969183851   -3.34502853530754
C        -0.98823994490180    0.71536412752804   -3.34617052093706
C         0.38207918529795    1.16062030500167   -3.34601396833144
C         1.22893732340495   -0.00540725908239   -3.34441180734186
C         0.38188435208124   -1.17270848261043   -3.34439839812723
Cl       -1.57910173838423    0.02157202880020    5.30798032847239
Cl       -4.06163462613174    0.00123182128748    3.83680067363413
Cl        3.04112532557585   -2.19834494279125    4.10607586634949
Cl        2.99141275869809    2.16420597051084    4.13103891272247
Cl       -1.19513332262050    3.63861151918407    4.07980067042845
65
 energy: -151.246018382906 gnorm: 0.004519244534 xtb: 6.4.1 (a3dbbd7)
C        -1.29575120441730   -0.00136280647553    3.52195990266548
C        -0.37762105868704   -1.17563246617964    3.24435018543446
C         0.93860357927132   -0.71753997873527    3.21548638782916
C         0.91259062593211    0.70845067374974    3.17067081112708
C        -0.37244309438093    1.16124842217076    3.23259805833869
C         2.30206632399924   -2.57527564950780    0.57155894567349
C         3.13928190569232   -1.39938608058642    0.57250179739237
C         2.92900418786129   -0.68606278584305    1.79091801838000
C         2.07594105097967   -1.52586492872501    2.71510368566060
C         1.57284483488579   -2.61244876155437    1.79041874754374
C         3.13536556968375    1.39250149482164    0.57145047122484
C         2.29669961401771    2.56376509092029    0.56833808768011
C         1.56005008067250    2.60241083592037    1.79032738848128
C         2.07473260590233    1.52409857584690    2.71931386086215
C         2.92668268522343    0.68262474128303    1.79196525543261
C        -0.35245318390637    3.43123761405674    0.56766824967260
C        -1.71812888877653    2.97632256938892    0.56672542992514
C        -1.96684426106478    2.28192337562297    1.79164219791182
C        -0.80172147275803    2.48803639640554    2.73701889190267
C         0.25959743693666    3.03092752533005    1.79475491693603
C        -3.34241022770704    0.71425203664468    0.56628612133283
C        -3.35375510872929   -0.72632017046754    0.56741460727420
C        -2.78020527158341   -1.17614275840939    1.78564841146204
C        -2.63136953581324   -0.00685934748271    2.73905635659875
C        -2.74803550814937    1.16262463486912    1.78530925840518
C        -1.73105012320616   -3.00686751481113    0.55696740607569
C        -0.36183759021705   -3.45201006371572    0.55762296625068
C         0.25028958549647   -3.01729293346592    1.78420448812847
C        -0.75348833752273   -2.32197660718223    2.56115283009110
C        -1.97048586639275   -2.29327924375502    1.78601646059228
C        -0.24668127880181   -3.02095174573963   -1.85509723873771
C         0.74563643264004   -2.29721377433390   -2.60920609992756
C         1.96816095862142   -2.29451576028906   -1.84592544140657
C         1.72951806137024   -3.01492340934748   -0.62238213605568
C         0.36593530400799   -3.46360188772006   -0.62671820828883
C         2.78429312086826   -1.17078032059840   -1.84709419450404
C         2.40920479832068   -0.00577623574357   -2.60660264547489
C         2.78402948187641    1.16086362968634   -1.84811725485208
C         3.38263915831715    0.71201862253229   -0.61653508467928
C         3.38299893556883   -0.71964247923999   -0.61588588799571
C         1.97051161707773    2.28537894553077   -1.85106595284908
C         0.74725755523992    2.28717971125275   -2.61132826992193
C        -0.24448595195548    3.00661897319195   -1.85301435435224
C         0.36816923493055    3.44647452567631   -0.62411662542807
C         1.72957383917037    3.00287673892661   -0.62380929099391
C        -1.56367300923011    2.57656230018772   -1.85359355730902
C        -1.94446814438360    1.41054650177544   -2.61129913077608
C        -2.93274668197760    0.68844268507760   -1.85266135694996
C        -3.15018541315636    1.40674479192616   -0.62196775071261
C        -2.31193895778525    2.56717032542682   -0.62276189896550
C        -2.93144216852287   -0.70107174002859   -1.84998547913074
C        -1.94394681305446   -1.42349775733248   -2.61172806707957
C        -1.56696832869252   -2.59201558234624   -1.85649101846613
C        -2.32243792589691   -2.58826899666682   -0.62846235408318
C        -3.15957389387127   -1.42230113766413   -0.62602285570135
C        -0.98808527943076   -0.72728399640978   -3.34166934165421
C        -0.98779807342790    0.71487794557407   -3.34251317110536
C         0.38191551803864    1.15998656736160   -3.34184216734302
C         1.22836281832879   -0.00560148829008   -3.34068647992074
C         0.38189198841037   -1.17245845908684   -3.34074540698987
Cl       -1.53253765472129    0.01642520197508    5.31848249314440
Cl       -4.08863533324604   -0.00264635717896    3.80592629073181
Cl        3.03709590933490   -2.21568952282792    4.10041147678125
Cl        2.99287424370774    2.17554382204232    4.12535780111865
Cl       -1.19634289747774    3.64372560684048    4.07340199019116
65
 energy: -151.246095645335 gnorm: 0.001995437940 xtb: 6.4.1 (a3dbbd7)
C        -1.29634232065334   -0.00179873371308    3.52154778757549
C        -0.37779636284837   -1.17583942536346    3.24542281795219
C         0.93796887057816   -0.71738040773246    3.21558768841656
C         0.91273814729642    0.70882927045931    3.17261711397136
C        -0.37282605113157    1.16124929707966    3.23489374389974
C         2.30158200135920   -2.57354986526336    0.57139830254336
C         3.13895826480411   -1.39817011271906    0.57192354805850
C         2.92925881553495   -0.68549064557129    1.79132490757188
C         2.07623327079359   -1.52454647837918    2.71590801897303
C         1.57282768432245   -2.61001943879896    1.79045149605035
C         3.13513527172799    1.39183732862642    0.57081011509648
C         2.29553319629927    2.56170244413668    0.56824065710061
C         1.55995760844886    2.60099326497719    1.79115163177317
C         2.07534627448630    1.52301948833025    2.71981776188629
C         2.92738703864017    0.68266043530541    1.79217288150978
C        -0.35151379631398    3.42729284034479    0.56821467268004
C        -1.71680175060829    2.97378532971784    0.56703352574150
C        -1.96640336229960    2.28138927258975    1.79281648914051
C        -0.80186491619085    2.48751596222783    2.73842840370006
C         0.26015577459219    3.02827866968135    1.79604130635513
C        -3.34093151738190    0.71422430464926    0.56661646280209
C        -3.35278723083818   -0.72575882323097    0.56761499267944
C        -2.78064093226244   -1.17583520200945    1.78661174594749
C        -2.63144798667131   -0.00664770786183    2.73949421592719
C        -2.74822009821179    1.16321500158526    1.78673626575643
C        -1.73020840132761   -3.00430639378962    0.55695889088543
C        -0.36120109778506   -3.44888351380737    0.55768714145769
C         0.25106637178920   -3.01519499048443    1.78458549515563
C        -0.75369355208670   -2.32105816432731    2.56110005456321
C        -1.97115550100268   -2.29273069914186    1.78679061428405
C        -0.24633870784933   -3.01906055282107   -1.85568468502701
C         0.74539410650036   -2.29623503050463   -2.61065132262130
C         1.96729759039543   -2.29342949985552   -1.84650829155719
C         1.72889474958949   -3.01260868689545   -0.62260175460108
C         0.36571271681435   -3.46030854731480   -0.62672749766020
C         2.78312262933742   -1.17008987610353   -1.84786387479504
C         2.40845814029275   -0.00590713841900   -2.60852097410505
C         2.78310205064769    1.16002865257341   -1.84910276608022
C         3.38102781191518    0.71181360144311   -0.61715999061762
C         3.38144853170279   -0.71934830921942   -0.61653086841950
C         1.96945594774613    2.28372753058500   -1.85176623347155
C         0.74697973368490    2.28573359795228   -2.61291438816459
C        -0.24404891882736    3.00426700635497   -1.85337752886453
C         0.36779519375151    3.44238634539312   -0.62369934989233
C         1.72838950564634    2.99945194547649   -0.62381215647139
C        -1.56279422025040    2.57463663083350   -1.85400587650556
C        -1.94364207961943    1.40963300533260   -2.61274147024837
C        -2.93106676968795    0.68799821005794   -1.85270932668086
C        -3.14791675323022    1.40538435220871   -0.62165801140875
C        -2.30965228941182    2.56502116852553   -0.62251258355466
C        -2.93041025534892   -0.70097403694731   -1.85008653110150
C        -1.94347661871033   -1.42302274872659   -2.61306269347427
C        -1.56624052360454   -2.59046463691256   -1.85697975589217
C        -2.32076644926931   -2.58631303634998   -0.62843342394000
C        -3.15798770468282   -1.42112116103028   -0.62575382973319
C        -0.98822197633082   -0.72734133533038   -3.34375953603384
C        -0.98776631442956    0.71464347499968   -3.34479503895243
C         0.38185726139454    1.15965090343742   -3.34421907902282
C         1.22830215274831   -0.00570531327842   -3.34308339606434
C         0.38180191147868   -1.17240415430742   -3.34288470367811
Cl       -1.54931112730983    0.01589174071446    5.31509495582274
Cl       -4.08286214803128   -0.00011774425651    3.81415702990531
Cl        3.03984118749919   -2.21033166589471    4.10109881764011
Cl        2.99399728989127    2.17299172038722    4.12594339266534
Cl       -1.19641884406102    3.64203941464922    4.07601551974921
65
 energy: -151.246100418578 gnorm: 0.000507444819 xtb: 6.4.1 (a3dbbd7)
C        -1.29660984343315   -0.00198345976031    3.52136963462128
C        -0.37742773336324   -1.17556771413174    3.24428565360625
C         0.93805375032144   -0.71708804423639    3.21601906325594
C         0.91287731056788    0.70939098051360    3.17391825911382
C        -0.37280347899427    1.16181805121304    3.23567526897291
C         2.30127424444881   -2.57296019243465    0.57142434097683
C         3.13884700840516   -1.39783579537972    0.57226981698649
C         2.92940745070836   -0.68548738213238    1.79173881045478
C         2.07599643526176   -1.52430022970879    2.71623148366756
C         1.57218341082473   -2.60920896662408    1.79001905230509
C         3.13485351863461    1.39168394351063    0.57103152435779
C         2.29519415571621    2.56143162546594    0.56834025608163
C         1.55974316630803    2.60071293610189    1.79114645867118
C         2.07516760836007    1.52311173214500    2.72003492838949
C         2.92708311575329    0.68276625147964    1.79219026659989
C        -0.35150214939118    3.42695254229073    0.56827591159926
C        -1.71671903912301    2.97352296771172    0.56710512702874
C        -1.96633583484754    2.28134411408707    1.79263682771329
C        -0.80189295395633    2.48722305277566    2.73839801511079
C         0.26009691906594    3.02803414565369    1.79585555433442
C        -3.34073834304102    0.71424695414364    0.56670859063805
C        -3.35266557962304   -0.72568396674288    0.56758172444034
C        -2.78066258546901   -1.17589640696759    1.78632820559747
C        -2.63043392009154   -0.00653041196989    2.73932525147534
C        -2.74830418533173    1.16322877152146    1.78665670652156
C        -1.73024200053251   -3.00419787913982    0.55697455404981
C        -0.36138860779175   -3.44882218820259    0.55768024570599
C         0.25090862385382   -3.01548674337743    1.78469805934168
C        -0.75379782734888   -2.32110187431497    2.56114019550825
C        -1.97142835928746   -2.29287604561514    1.78679896052647
C        -0.24635274553278   -3.01873021347245   -1.85557542838289
C         0.74539181956392   -2.29595317934702   -2.61070091363497
C         1.96707399917564   -2.29315500160850   -1.84646454560963
C         1.72875154294124   -3.01254833482966   -0.62251267715940
C         0.36572143755958   -3.45997032594480   -0.62666347201982
C         2.78284922716241   -1.16999888727780   -1.84760254188814
C         2.40825981053614   -0.00591123115677   -2.60833735733352
C         2.78280406050892    1.15995178049958   -1.84900725008160
C         3.38102009588624    0.71166848124379   -0.61696147228238
C         3.38142511958656   -0.71906303654757   -0.61627047218457
C         1.96928291542027    2.28342365372718   -1.85167523156763
C         0.74695328406765    2.28534768763783   -2.61294966184542
C        -0.24401131482189    3.00391061775376   -1.85341664012944
C         0.36791225311045    3.44215145849008   -0.62364186569641
C         1.72807821383281    2.99937754158074   -0.62366886237653
C        -1.56248322710086    2.57429514110444   -1.85406993613201
C        -1.94326699238299    1.40939402275336   -2.61281430849412
C        -2.93053780333864    0.68781037822973   -1.85271957781301
C        -3.14760395376531    1.40543360318989   -0.62161270668571
C        -2.30965107660767    2.56467490352354   -0.62247964603427
C        -2.93023304692300   -0.70095240612949   -1.85027171672130
C        -1.94336985854219   -1.42286256310102   -2.61320068428877
C        -1.56609445488340   -2.59025105962341   -1.85693990600968
C        -2.32081151581345   -2.58598015603101   -0.62842018815119
C        -3.15796643606837   -1.42118883094941   -0.62577671139699
C        -0.98817133631572   -0.72731625056669   -3.34409754003338
C        -0.98760792781929    0.71448947567249   -3.34515346517956
C         0.38197247144510    1.15950333342093   -3.34448395186999
C         1.22833862837478   -0.00578007108910   -3.34331553716240
C         0.38189608622081   -1.17237439746159   -3.34316083459474
Cl       -1.55267495973460    0.01313132224953    5.31371268606745
Cl       -4.07998845480393    0.00048807591449    3.81727871735404
Cl        3.03981602803172   -2.21178062059612    4.09995117974924
Cl        2.99562892282638    2.17448703597083    4.12461800529185
Cl       -1.19681456496039    3.64313541916922    4.07524729324243
65
 energy: -151.246101220252 gnorm: 0.000252624012 xtb: 6.4.1 (a3dbbd7)
C        -1.29673850481705   -0.00200121267661    3.52148031308268
C        -0.37732503544588   -1.17547691918983    3.24398022477679
C         0.93808498283573   -0.71702593283134    3.21596299936140
C         0.91289441597759    0.70949133677508    3.17397896975869
C        -0.37280190615548    1.16190226486258    3.23573107635169
C         2.30130964891573   -2.57293552183340    0.57145024560555
C         3.13894844574667   -1.39783867603430    0.57228413867706
C         2.92948469663856   -0.68550843586203    1.79172319935518
C         2.07606373926615   -1.52428477891553    2.71626002699236
C         1.57216238503729   -2.60917300531706    1.78997145849477
C         3.13491390104904    1.39170922210797    0.57103188287218
C         2.29526429823181    2.56149944313922    0.56834998799063
C         1.55978964407170    2.60074600223653    1.79113723303175
C         2.07517798644721    1.52311152599966    2.71999432967900
C         2.92705257756426    0.68276550801166    1.79211037353883
C        -0.35151684917434    3.42706320484073    0.56830387354755
C        -1.71674663247440    2.97360118243887    0.56716410553680
C        -1.96630481107962    2.28134839233291    1.79263104774030
C        -0.80187359280178    2.48717128059080    2.73834825935971
C         0.26011036667072    3.02808831783566    1.79582036714110
C        -3.34075255191570    0.71423315771411    0.56676163461520
C        -3.35267482749067   -0.72570475932115    0.56765058611671
C        -2.78069246777502   -1.17590359793127    1.78638300941120
C        -2.63064184353890   -0.00648402692666    2.73943068204322
C        -2.74826534755228    1.16315676028064    1.78663838724712
C        -1.73022509050681   -3.00426049534061    0.55707971762548
C        -0.36138467987435   -3.44888131675673    0.55774409308410
C         0.25093152901723   -3.01559696732889    1.78478971607070
C        -0.75382862303733   -2.32118391608485    2.56128942944941
C        -1.97145037179166   -2.29292647461003    1.78690342231270
C        -0.24634944787927   -3.01873895405735   -1.85549821751447
C         0.74540373029492   -2.29595821851097   -2.61066710569002
C         1.96710372661890   -2.29316563930872   -1.84647483608731
C         1.72875568169224   -3.01257108349704   -0.62246953377017
C         0.36576398024843   -3.45996685220055   -0.62658640644927
C         2.78287409557590   -1.17001861628477   -1.84760557511112
C         2.40824837573568   -0.00591104019191   -2.60830882362813
C         2.78281306864506    1.15998072483427   -1.84903573803651
C         3.38110113130663    0.71165885213346   -0.61697146198351
C         3.38149681596143   -0.71902831914245   -0.61627480641654
C         1.96929858622340    2.28344074724443   -1.85167667154980
C         0.74693772882267    2.28536350511948   -2.61291997254508
C        -0.24404697406680    3.00395567475877   -1.85340096345576
C         0.36794595781982    3.44222021611170   -0.62360953805015
C         1.72806059480654    2.99944546027211   -0.62363163637089
C        -1.56249976042236    2.57433651580199   -1.85404581459088
C        -1.94329543259384    1.40940085812840   -2.61275199182927
C        -2.93052590607273    0.68778304443369   -1.85267308177618
C        -3.14758415901582    1.40547262153565   -0.62155614795667
C        -2.30971428188606    2.56469239973136   -0.62242546128408