65
 energy: -151.246101272769 gnorm: 0.000157899974 xtb: 6.4.1 (a3dbbd7)
C        -1.29649744686436   -0.00173921954218    3.52299242530319
C        -0.37708472873127   -1.17516802971775    3.24511075692162
C         0.93823508562491   -0.71668632149037    3.21708018748599
C         0.91308913824949    0.70984770445005    3.17531860358781
C        -0.37258537195498    1.16228060768001    3.23746779785572
C         2.30149633777727   -2.57277705042897    0.57277818948086
C         3.13913353181820   -1.39764658535956    0.57351594477370
C         2.92966198271374   -0.68524495443485    1.79294891647960
C         2.07635359695602   -1.52404297102000    2.71757883082300
C         1.57241537486715   -2.60902677520954    1.79134584408841
C         3.13510850480538    1.39195581650453    0.57220724757926
C         2.29546535502012    2.56177543358569    0.56949422042595
C         1.55996607277030    2.60107885253819    1.79231694784500
C         2.07537064104582    1.52341890806570    2.72119876123131
C         2.92718968728717    0.68300376247392    1.79332194329209
C        -0.35139792642440    3.42732453943698    0.56943576282436
C        -1.71664320239813    2.97386919095399    0.56832503355392
C        -1.96607750500770    2.28153627913946    1.79379535851596
C        -0.80171947812827    2.48748832484087    2.73948836498714
C         0.26025547410612    3.02826051662090    1.79693308112480
C        -3.34064908799806    0.71438337903251    0.56802239126945
C        -3.35258475730315   -0.72556810015832    0.56903494317122
C        -2.78062036034435   -1.17571176619696    1.78787842348120
C        -2.63038664123659   -0.00617824301764    2.74066253015046
C        -2.74802125713615    1.16336776529956    1.78784988456200
C        -1.73003956686487   -3.00404585614460    0.55846679453271
C        -0.36118506766701   -3.44865140353952    0.55912042889383
C         0.25115505169051   -3.01534804359887    1.78615711580552
C        -0.75370348885229   -2.32101751626494    2.56268877996506
C        -1.97125646187415   -2.29266554401211    1.78828230631698
C        -0.24620595844904   -3.01862664493129   -1.85415606985200
C         0.74553573681955   -2.29588651148356   -2.60936351257158
C         1.96726455873194   -2.29306240063388   -1.84518599168585
C         1.72890318061082   -3.01237367981562   -0.62113819259752
C         0.36592391561193   -3.45978601880796   -0.62521459999668
C         2.78301010682938   -1.16988297821074   -1.84636997417773
C         2.40836331745487   -0.00579763756635   -2.60709998524233
C         2.78294884668354    1.16012975431783   -1.84786183510798
C         3.38118836056968    0.71185346598474   -0.61577505185065
C         3.38159368872493   -0.71886563065815   -0.61504978048646
C         1.96940170899501    2.28359062935326   -1.85051949344986
C         0.74702208384661    2.28548657724811   -2.61174506382526
C        -0.24395787837306    3.00411499177517   -1.85225009835429
C         0.36806384853406    3.44240390377826   -0.62247391761209
C         1.72818610231396    2.99959047883966   -0.62248524798182
C        -1.56243010124090    2.57448829569916   -1.85285729902406
C        -1.94321826245640    1.40950378392307   -2.61151289025394
C        -2.93044634291172    0.68790910944537   -1.85139892879198
C        -3.14747933305229    1.40559565714354   -0.62030004657506
C        -2.30961863353117    2.56487339868560   -0.62122288948071
C        -2.93019454701791   -0.70086748643050   -1.84889349952813
C        -1.94327690000391   -1.42278656046440   -2.61178889340793
C        -1.56593232602942   -2.59015610699279   -1.85549393950554
C        -2.32063106141681   -2.58584336103258   -0.62693488158320
C        -3.15778463382295   -1.42109013282974   -0.62429806570825
C        -0.98813081060760   -0.72726300338905   -3.34278080723559
C        -0.98757254684699    0.71456431672328   -3.34389879185561
C         0.38204407838918    1.15961610553540   -3.34327503374400
C         1.22843326882663   -0.00570082467195   -3.34210078478156
C         0.38199422746179   -1.17233476022000   -3.34186286121024
Cl       -1.55106034838009    0.01163530585869    5.31511265974996
Cl       -4.08155654680075    0.00185237027337    3.81735084900862
Cl        3.03960253326012   -2.21115032113292    4.10140014790361
Cl        2.99630168413210    2.17481478756316    4.12558872635559
Cl       -1.19694483076612    3.64401890834233    4.07608983775933
