63
 energy: -142.096621834416 gnorm: 0.000248072417 xtb: 6.4.1 (a3dbbd7)
C        -1.33212044976297    0.00804069376017    3.59141225281497
C        -0.39685907390552   -1.27585760269925    3.58726462344129
C         0.97622615743456   -0.72236175500683    3.28196974365575
C         0.95935422965939    0.69235397634453    3.25583228572834
C        -0.38526618780077    1.15043518468319    3.29422634232940
C         2.33184603516892   -2.60040622285359    0.57497834162179
C         3.38608340461769   -1.51608132431417    0.62120509839534
C         2.92380791382552   -0.69182812968777    1.80104643713047
C         1.92225241569352   -1.39097657677223    2.52833180133848
C         1.57019596418577   -2.57968735426583    1.76999099432625
C         3.18128121887795    1.42606387668720    0.56543203657488
C         2.33064508407562    2.57967595209751    0.56824684864770
C         1.56613942061180    2.56300018266960    1.79056609671341
C         1.93353068312278    1.39668590192112    2.53470188052634
C         2.92460157248155    0.68534796534104    1.78893633221597
C        -0.37067187201307    3.44804733037641    0.57922093630946
C        -1.74209053934742    3.00797225696927    0.58013054528786
C        -1.98042595965720    2.28825233630342    1.80435733718136
C        -0.74056743730663    2.25696773221190    2.55659665771954
C         0.24280174166981    2.98067232201387    1.79579475782867
C        -3.40224306162647    0.72953998859207    0.57720194762631
C        -3.38948888524995   -0.70476395800859    0.57865009642277
C        -2.76097236622998   -1.13159518134298    1.81979828505777
C        -2.40868339099381   -0.01104021274816    2.55830299976242
C        -2.77966438588291    1.15801395183145    1.80224665916373
C        -1.72228746923932   -3.00475858316646    0.57473450129563
C        -0.35963972583482   -3.45723118443589    0.56972875889356
C         0.24483403934621   -2.99896742573748    1.78983531700853
C        -0.74486385830855   -2.28578709545474    2.54624668006137
C        -1.92860894315733   -2.27839153599108    1.81590096887742
C        -0.24336893483524   -3.00530617629981   -1.83252788319919
C         0.74894904340079   -2.27991008217851   -2.58943584274401
C         1.97417040691805   -2.29005826546982   -1.84070346775811
C         1.74161183777986   -3.00778580419075   -0.60928883511299
C         0.37113377025314   -3.45179166571167   -0.61138445113383
C         2.78118583337244   -1.14718108353709   -1.81783286448593
C         2.39746000315298    0.01904638651215   -2.59269895117283
C         2.77678836324142    1.17861203509663   -1.84138729225452
C         3.38605599492620    0.71602167898659   -0.61462551061937
C         3.39998477489195   -0.70785250911928   -0.62789639746883
C         1.96218693517481    2.30521955541414   -1.83816307985265
C         0.73716909345451    2.30496553265939   -2.59338348322965
C        -0.25636522259225    3.02344417687325   -1.83204821263349
C         0.36124119022407    3.45983028958417   -0.60238466777843
C         1.73136316923380    3.02182506634910   -0.61075827061388
C        -1.57425471566780    2.59394507878827   -1.83125005372984
C        -1.95346454205488    1.42613608608733   -2.58944409302877
C        -2.94722111958081    0.70733793765214   -1.82942984497994
C        -3.18191749252021    1.42668147407114   -0.60721894185942
C        -2.33622311324347    2.59148224947672   -0.60537303719081
C        -2.93807338147635   -0.68411796856870   -1.82389523913713
C        -1.94939258291711   -1.40697552526080   -2.58164581290978
C        -1.56509129161494   -2.57415062709596   -1.82667473262617
C        -2.31103847796921   -2.57282586440697   -0.59745346254361
C        -3.16298447432138   -1.39645396562218   -0.59485173971438
C        -0.99380635673010   -0.71232383777455   -3.31265342967387
C        -0.99883923195050    0.73137954516322   -3.31606451934260
C         0.37180366700297    1.17938329399479   -3.32124374035061
C         1.21868395537851    0.01554215414841   -3.31996344922616
C         0.37354769651651   -1.15601430193122   -3.31804440137903
Cl       -2.11310082124741    0.29295714528947    5.20317088701055
Cl       -0.36919875154819   -2.11781519380648    5.19353947304697
Cl        5.04341094754929   -2.23059361463787    0.93831004651033
