63
 energy: -142.065498668573 gnorm: 0.139232789620 xtb: 6.4.1 (a3dbbd7)
C        -1.32333194775417    0.00617886347970    3.59125188963251
C        -0.38909456310608   -1.27772716531095    3.58793274117145
C         0.98734837171535   -0.72675165446744    3.28582848483634
C         0.97037352147027    0.69420630050098    3.25749094477592
C        -0.37633960723915    1.14742685553706    3.29074190055216
C         2.33092254703306   -2.58746567485154    0.56610397604514
C         3.16875994483946   -1.41579758165486    0.56774606192583
C         2.91978889080344   -0.69314490348597    1.79074016083681
C         1.93018806170321   -1.40549148670748    2.54814074589443
C         1.57476788296703   -2.59634073810083    1.79100274817011
C         3.18328087896891    1.41909085132624    0.57258499213333
C         2.33432229320876    2.58580968143883    0.57559918777772
C         1.57332139543398    2.57095369604789    1.79851755002390
C         1.94352282881158    1.40414426944103    2.54285112768194
C         2.93804115459266    0.69543633516321    1.79366637265872
C        -0.36752716666001    3.44413435035873    0.58029879258012
C        -1.74013210357057    3.00741588983283    0.58054459941955
C        -1.97818665379860    2.28654468588757    1.80361199533287
C        -0.73393250395930    2.25581684802015    2.55761528373596
C         0.24647420110131    2.98080949443068    1.80023381740862
C        -3.39591089216029    0.72883802558845    0.57533866561121
C        -3.37932885665645   -0.70504006359254    0.57786353554246
C        -2.74934612856665   -1.12865052488571    1.82052481704193
C        -2.40026274086307   -0.01382700939334    2.55826017594831
C        -2.77435746218519    1.16021035149421    1.80187148511327
C        -1.70577977915925   -3.00504292266898    0.57191390059864
C        -0.34657433486683   -3.46193150719564    0.56452064530943
C         0.25810980605866   -3.00738238851431    1.79111395103090
C        -0.74203335365356   -2.29289841924391    2.55243835495534
C        -1.91196172287597   -2.27950749485726    1.81757326885181
C        -0.23558165862281   -3.01371296632646   -1.83961821271520
C         0.75175047781152   -2.28700579367404   -2.59867644532734
C         1.98089777627659   -2.28868303835222   -1.84308617931945
C         1.74918768154887   -3.01946296828987   -0.62050040464920
C         0.38088379041600   -3.46658963937948   -0.62079308111870
C         2.79204993046375   -1.16413556659148   -1.83875967224219
C         2.41002754086118    0.00666527739579   -2.59106683151125
C         2.78807241943814    1.16926264052202   -1.83130610074559
C         3.40298548527550    0.72369088805355   -0.60835037131266
C         3.40110069057525   -0.71955382898331   -0.60923004493565
C         1.96912615256614    2.29475463280888   -1.82840259178522
C         0.74474441569639    2.29528025280401   -2.58515694980539
C        -0.24988429155059    3.01642431380723   -1.82795956514323
C         0.36353023978106    3.45499162487799   -0.59844520421847
C         1.73735095077191    3.01278425815446   -0.60243935985793
C        -1.56944867307335    2.59059487249377   -1.83048045584010
C        -1.94787757007795    1.42311330884846   -2.58910001301826
C        -2.94122296022124    0.70465889669871   -1.83002690890673
C        -3.17947337159538    1.42642572884929   -0.60816005298080
C        -2.33307692209202    2.59081264516620   -0.60600270171083
C        -2.93172079240255   -0.68656028280689   -1.82266620418654
C        -1.94059925011627   -1.40887980593779   -2.58138532694875
C        -1.55636984787224   -2.57670213587000   -1.82754179967090
C        -2.29848528094837   -2.57416283302738   -0.59738768824741
C        -3.15456863482430   -1.39758782868201   -0.59434922362650
C        -0.98936986995949   -0.71482485845558   -3.31408037280858
C        -0.99159024528376    0.72723605185279   -3.31429029098428
C         0.38014149579772    1.17201579903766   -3.31523274930469
C         1.22728121177112    0.00778684511203   -3.31823795360647
C         0.38205649969615   -1.16057927312445   -3.31917058806611
Cl       -2.09995733548554    0.29360223981566    5.20530702406437
Cl       -0.35034641589922   -2.11046483688082    5.19906768498811
Cl        4.79481684630106   -2.13722287368059    0.90178872571999
63
 energy: -142.089742173243 gnorm: 0.061415407779 xtb: 6.4.1 (a3dbbd7)
C        -1.32629600047034    0.00609874882483    3.59229218365976
C        -0.39333798997902   -1.27877159155174    3.59158466909626
C         0.97979938161942   -0.72336294280185    3.28990672097782
C         0.96534356249685    0.69519445675226    3.26206289612634
C        -0.38036122453431    1.14819473495757    3.29263868434042
C         2.31460029097081   -2.58983921756781    0.56889179180233
C         3.26610028115113   -1.45967559322558    0.58915325543950
C         2.90602114605992   -0.68640159512275    1.79586444201131
C         1.92015331173994   -1.39961418198056    2.54284850408041
C         1.56641820408322   -2.59095656384870    1.78614026864855
C         3.17764192366071    1.42083708536489    0.56786304266824
C         2.33223252007128    2.58421599731047    0.57328548812135
C         1.57110064211836    2.56957853826165    1.79772789179618
C         1.93963795545211    1.40661926809305    2.54734086816940
C         2.92370660788782    0.69547041765188    1.79227591182969
C        -0.36769900410821    3.44546779353397    0.58030221173222
C        -1.73965665627676    3.00723514172045    0.58087407196237
C        -1.97868059149950    2.28723217995168    1.80456729533680
C        -0.73632782453898    2.25628827683197    2.55786401938756
C         0.24520194311699    2.98076499415471    1.79925654357061
C        -3.39668859011963    0.72846852507020    0.57637083502706
C        -3.38130065143271   -0.70549462930282    0.57806790148148
C        -2.75275141079356   -1.13032401627309    1.82041516627287
C        -2.40223093344290   -0.01378653123999    2.55835178480186
C        -2.77561958637786    1.15901055804163    1.80241561901935
C        -1.71204328193545   -3.00533976801011    0.57313161972397
C        -0.35407182593141   -3.46496397957311    0.56764539099859
C         0.24875441868758   -3.01021412336183    1.79320558544061
C        -0.74492154992888   -2.29280426754991    2.55310041918009
C        -1.91817674387184   -2.27986660706241    1.81778227566546
C        -0.23919193653214   -3.01339517012593   -1.83831217149321
C         0.75009772503925   -2.28512869566444   -2.59627793698298
C         1.97539079783331   -2.28553479730445   -1.84198743365570
C         1.73623599670900   -3.01304213929906   -0.61688730509392
C         0.37265590552905   -3.46846232702698   -0.61887738798747
C         2.78483379831772   -1.15163493362172   -1.83854517620647
C         2.40731513696933    0.01619100430179   -2.60110972643301
C         2.78539741981467    1.17841494129141   -1.84416059359208
C         3.39225066896730    0.72577992176219   -0.61857292965047
C         3.41172894081967   -0.70865892855872   -0.63195725565709
C         1.96712897566077    2.30188386206093   -1.83569362792925
C         0.74174120780106    2.29954711299909   -2.58931050885155
C        -0.25158909776861    3.01891942895481   -1.82927604620367
C         0.36343890171794    3.45695268620812   -0.60026217162200
C         1.73536284169696    3.01619845333446   -0.60664144218018
C        -1.57034345404292    2.59160553469035   -1.83052235708266
C        -1.94888465058335    1.42402208357868   -2.58898770964014
C        -2.94231652700765    0.70541164857272   -1.82971859640172
C        -3.17913849881731    1.42615101487839   -0.60774713212498
C        -2.33290033738684    2.59059147221063   -0.60544013762007
C        -2.93254932184477   -0.68597760793688   -1.82303775589556
C        -1.94232763849165   -1.40839165700739   -2.58129736309276
C        -1.55926132395696   -2.57649879275802   -1.82749446313574
C        -2.30214298048003   -2.57408300958398   -0.59749342125230
C        -3.15627385393880   -1.39738418791983   -0.59462709498221
C        -0.98998415648617   -0.71384339701547   -3.31442780804794
C        -0.99360263740116    0.72876127484201   -3.31516160317620
C         0.37702213423490    1.17564147411018   -3.31859813502865
C         1.22436234887769    0.01222205181543   -3.32381422756471
C         0.37979249701657   -1.15837825378800   -3.32033568130641
Cl       -2.10321046805485    0.29428037697502    5.20558197505839
Cl       -0.35407339522783   -2.11311050689873    5.20202697978721
Cl        4.92803910379685   -2.19432233627263    0.93392114945180
63
 energy: -142.096098383047 gnorm: 0.014713350835 xtb: 6.4.1 (a3dbbd7)
C        -1.33081386421856    0.00694017945882    3.59265145200813
C        -0.39593872794223   -1.27702588145626    3.59052173918070
C         0.97625604568706   -0.72183376455928    3.28612981991359
C         0.96091635138401    0.69360643693126    3.25962007443886
C        -0.38398722008487    1.14916334630737    3.29407679477011
C         2.31729701260002   -2.59372618765548    0.57190868587494
C         3.35428029007883   -1.50074388890252    0.61091175429254
C         2.90902591485436   -0.68702816605505    1.79831761901220
C         1.91879614117672   -1.39344390433538    2.53256146648761
C         1.56639706757069   -2.58293773421516    1.77552580570957
C         3.17742576194658    1.42217455753180    0.56502477493426
C         2.33002590896593    2.57994075412519    0.56971858383526
C         1.56795264415554    2.56654369854210    1.79426813561445
C         1.93550894175139    1.40232374205247    2.54179477101660
C         2.91981397232008    0.68917271679972    1.78941892860841
C        -0.36965818911248    3.44677602532904    0.57965876374966
C        -1.74097877009417    3.00742360299075    0.58045234051375
C        -1.97951056494180    2.28741276673682    1.80460207265009
C        -0.73916711988640    2.25688796484070    2.55784325899536
C         0.24340352191589    2.98079767705866    1.79743711225557
C        -3.39983755751796    0.72895762228416    0.57727180135795
C        -3.38545199981346   -0.70506038864068    0.57846062862733
C        -2.75739821818979   -1.13121119142483    1.82010455472710
C        -2.40649144725339   -0.01266274431085    2.55874652859003
C        -2.77824097690832    1.15819692788991    1.80256650853727
C        -1.71822124893507   -3.00523794090102    0.57424172677241
C        -0.35831012060522   -3.46172374620321    0.56957170795046
C         0.24492891807332   -3.00666051340416    1.79181409618455
C        -0.74562057994136   -2.29032086595341    2.55078079648680
C        -1.92417784358173   -2.27904719774014    1.81714780541215
C        -0.24223903090942   -3.00907985265854   -1.83569211975431
C         0.74947901136009   -2.28073833455889   -2.59173923333315
C         1.97402068456020   -2.28554596358749   -1.84065036709271
C         1.73607960808862   -3.00741252029126   -0.61159840958454
C         0.37016760639124   -3.45967826684917   -0.61525536459326
C         2.78088617158082   -1.14540220969451   -1.82783180541654
C         2.40178979086145    0.01987928002869   -2.59977913615299
C         2.78007282804008    1.18057602866224   -1.84585803648455
C         3.38520476483776    0.72006844566294   -0.61933715042623
C         3.40822557899280   -0.70508151108524   -0.63659742237370
C         1.96331375212992    2.30506811885938   -1.83877832855929
C         0.73793754437976    2.30393941550450   -2.59309381207190
C        -0.25522834246151    3.02191667169142   -1.83122347740135
C         0.36173365998412    3.45860197056974   -0.60210174359172
C         1.73217333705733    3.01949473391211   -0.61016601061846
C        -1.57333836219335    2.59330691250505   -1.83101677638435
C        -1.95214778629817    1.42570604290739   -2.58930558134912
C        -2.94543519711592    0.70689662932758   -1.82939560280350
C        -3.18088964124837    1.42649338285202   -0.60728622584262
C        -2.33507837485033    2.59110215548311   -0.60526803169364
C        -2.93531562095709   -0.68455956640333   -1.82345298773864
C        -1.94639123412661   -1.40701959356724   -2.58156180918513
C        -1.56293047578409   -2.57486582932716   -1.82732193667424
C        -2.30718087033852   -2.57346673527765   -0.59751695261191
C        -3.15940824269159   -1.39652444849302   -0.59471325658439
C        -0.99241094359354   -0.71219113453721   -3.31401158130336
C        -0.99745465992100    0.73109002967948   -3.31610771392322
C         0.37291556015716    1.17913370320825   -3.32164634122156
C         1.22028170076762    0.01539857085877   -3.32361470671905
C         0.37591655842884   -1.15578992402834   -3.32003164316620
Cl       -2.10906869151682    0.29507455406838    5.20504783856529
Cl       -0.36425983660996   -2.11351347640002    5.19985255618418
Cl        5.03190755620073   -2.23654247229042    0.95208532417327
63
 energy: -142.096447556731 gnorm: 0.008905437849 xtb: 6.4.1 (a3dbbd7)
C        -1.33217370726579    0.00762813119563    3.59176248247094
C        -0.39659761215719   -1.27625712681395    3.58876170393972
C         0.97620698352463   -0.72237485460300    3.28300432418677
C         0.95968418327115    0.69237804370362    3.25656765593701
C        -0.38501500717229    1.14975355486546    3.29374843648282
C         2.32706597872291   -2.59833193590808    0.57389620084694
C         3.37558615558910   -1.51115630139723    0.61774057396142
C         2.91915014959015   -0.69047196982876    1.80055813997516
C         1.92179304646001   -1.39239972776403    2.52995380583491
C         1.56939957543017   -2.58116238149445    1.77224434927180
C         3.17963176606510    1.42363896828590    0.56487085299663
C         2.32970288371341    2.57877619497405    0.56814753369217
C         1.56650826444777    2.56415330858064    1.79157383949840
C         1.93420025514356    1.39863348855544    2.53690975010422
C         2.92344680213595    0.68633440492157    1.78897339700483
C        -0.37090652153222    3.44746816202543    0.57915128192501
C        -1.74221128159641    3.00782915107962    0.58010261252238
C        -1.98052740570474    2.28781787118765    1.80432404877329
C        -0.74038284963851    2.25700209171943    2.55700657598831
C         0.24260906033028    2.98037855346470    1.79601290389804
C        -3.40207826779446    0.72958916303134    0.57733009549622
C        -3.38844998705817   -0.70457431273048    0.57860450227159
C        -2.75995433633135   -1.13110064583328    1.81989452312716
C        -2.40840775718638   -0.01165284763431    2.55845304647039
C        -2.77998157049093    1.15844955144507    1.80242649193166
C        -1.72050938535369   -3.00450137721150    0.57448038824821
C        -0.35888963387208   -3.45839862921836    0.56984480710045
C         0.24534709962250   -3.00239986748530    1.79043298732406
C        -0.74541793812311   -2.28768536092012    2.54826027828105
C        -1.92661861521765   -2.27812819580656    1.81647805546143
C        -0.24299743076744   -3.00596570479851   -1.83349365519927
C         0.74916287888258   -2.27905908267141   -2.58965359785539
C         1.97452528121134   -2.28726629699825   -1.84038331752766
C         1.74031368112830   -3.00763710150045   -0.60985747561083
C         0.37104897757347   -3.45407044892278   -0.61299285488961
C         2.78162868131443   -1.14605881547915   -1.82228504042719
C         2.39900362371960    0.01947465164642   -2.59576378111416
C         2.77783336348618    1.17957019385605   -1.84331978346512
C         3.38612827919111    0.71727215255881   -0.61711451368786
C         3.40653555000920   -0.70678331799568   -0.63263215347390
C         1.96180170545606    2.30511109501946   -1.83865831500925
C         0.73655148943137    2.30508440715446   -2.59371681775685
C        -0.25685721168549    3.02320479423371   -1.83196497395731
C         0.36071555783936    3.45936218283810   -0.60259613912391
C         1.73098753082077    3.02068852170837   -0.61096987567004
C        -1.57494355353228    2.59418421026460   -1.83133195588156
C        -1.95402658468556    1.42643581075112   -2.58953034656402
C        -2.94749311151476    0.70759901888807   -1.82942341984320
C        -3.18246788354696    1.42697615640991   -0.60725208267330
C        -2.33667724219294    2.59164834879332   -0.60540539739288
C        -2.93760807318886   -0.68391873145909   -1.82362271608053
C        -1.94878523134841   -1.40645567450040   -2.58148028362884
C        -1.56445241400876   -2.57369790086033   -1.82667430848368
C        -2.30974927107744   -2.57272958619358   -0.59736226114741
C        -3.16201103926329   -1.39611016489974   -0.59471492648233
C        -0.99398236552080   -0.71170186003418   -3.31315303207648
C        -0.99928211071540    0.73180399173582   -3.31621460213342
C         0.37129807727553    1.17986522028262   -3.32180146923357
C         1.21854982333116    0.01598017402939   -3.32130394803498
C         0.37401066439102   -1.15511444798536   -3.31868784725151
Cl       -2.11294274312622    0.29572389532694    5.20292874654432
Cl       -0.36727591395365   -2.11704994004111    5.19583021011687
Cl        5.05079913417082   -2.24161214569040    0.95126855276664
63
 energy: -142.096560625827 gnorm: 0.004916254232 xtb: 6.4.1 (a3dbbd7)
C        -1.33203957407824    0.00804603682141    3.59083669888645
C        -0.39689886415029   -1.27553707676795    3.58684161298986
C         0.97637819697834   -0.72237563595856    3.28141722233101
C         0.95933636079553    0.69216712757049    3.25497935636498
C        -0.38521007680909    1.15053853539188    3.29382367002061
C         2.33299956920966   -2.60077151018812    0.57487248809818
C         3.38480949662908   -1.51573297210480    0.62115080854123
C         2.92524886589163   -0.69228772202275    1.80143901738244
C         1.92321047643942   -1.39132877131081    2.52850043635928
C         1.57073973144835   -2.57977439267198    1.77014533158391
C         3.18131292705298    1.42556618184055    0.56497178632203
C         2.33003523861651    2.57899867719244    0.56745955028289
C         1.56580010652737    2.56282294892110    1.78990688024548
C         1.93354247869162    1.39659438928996    2.53393449626900
C         2.92546734286958    0.68518310053333    1.78856564506742
C        -0.37129098013517    3.44804589347450    0.57898985530964
C        -1.74261170596332    3.00804504809890    0.58003515007021
C        -1.98084011404924    2.28812013082934    1.80428900739861
C        -0.74082101158394    2.25722351757041    2.55658306438638
C         0.24242153814157    2.98047919011038    1.79537456216196
C        -3.40294735082287    0.72975155328278    0.57732357071765
C        -3.39006862558076   -0.70452941938699    0.57864303627492
C        -2.76134045269195   -1.13131453760305    1.81974050481688
C        -2.40906195188718   -0.01115747482348    2.55826099705666
C        -2.78049739533970    1.15838294097399    1.80239573164433
C        -1.72205788656727   -3.00438581134166    0.57449167278644
C        -0.35936477638612   -3.45667238298530    0.56973909143893
C         0.24536385485073   -2.99917632772266    1.78948794225788
C        -0.74521277433212   -2.28583203757868    2.54626270533565
C        -1.92829981598315   -2.27798053319139    1.81584699569777
C        -0.24340178570469   -3.00439122368218   -1.83230307150330
C         0.74886687842415   -2.27879616881447   -2.58901342037883
C         1.97449858909596   -2.28908925634322   -1.84071119165671
C         1.74241152662632   -3.00779323518031   -0.60921929009642
C         0.37144087671978   -3.45103807677935   -0.61159818564958
C         2.78195616477430   -1.14708562257448   -1.81856259327749
C         2.39721126142561    0.01899066196134   -2.59279172380076
C         2.77648428944947    1.17868949250362   -1.84138313820832
C         3.38696600763701    0.71585567151974   -0.61520078330929
C         3.40370032256388   -0.70802663385059   -0.62901415507584
C         1.96144060086565    2.30511485560042   -1.83839482703904
C         0.73636170093034    2.30534778164713   -2.59375011592465
C        -0.25717499178840    3.02376557048717   -1.83225797910329
C         0.36055032290447    3.45992070106483   -0.60266262209572
C         1.73075673226438    3.02172520528446   -0.61121528153256
C        -1.57515785450208    2.59433630107190   -1.83138890206263
C        -1.95441589470540    1.42648186343400   -2.58960553842307
C        -2.94807563248624    0.70765745673052   -1.82944722044937
C        -3.18273678491351    1.42694713092961   -0.60720037971414
C        -2.33701829961542    2.59171392392667   -0.60541334852173
C        -2.93869491409046   -0.68386684348129   -1.82386382880752
C        -1.94995179169436   -1.40654797285128   -2.58164131006015
C        -1.56529711105521   -2.57351518020670   -1.82654818497810
C        -2.31124829280147   -2.57253588812868   -0.59746343284964
C        -3.16348849683480   -1.39618536693383   -0.59483964322724
C        -0.99454340916289   -0.71186858252107   -3.31273594170554
C        -0.99972622402427    0.73178746350399   -3.31627895424935
C         0.37098171908969    1.17981820487699   -3.32158170954604
C         1.21797757731040    0.01594098966241   -3.31987177004221
C         0.37309926634661   -1.15528221495466   -3.31803628523994
Cl       -2.11119444979263    0.28878194460093    5.20396866539653
Cl       -0.37285499914550   -2.11424041856487    5.19481665178509
Cl        5.05372671476316   -2.23973249032910    0.94708288602296
63
 energy: -142.096575434059 gnorm: 0.003268415562 xtb: 6.4.1 (a3dbbd7)
C        -1.33279287780046    0.00850452446654    3.59221390486497
C        -0.39697415912062   -1.27628000058598    3.58747934521097
C         0.97601379482636   -0.72269878566466    3.28107794801581
C         0.95876289243681    0.69187988326600    3.25511758226942
C        -0.38577073668058    1.15059724251680    3.29422908724332
C         2.33539856701832   -2.60161537467644    0.57518116327630
C         3.38861519809316   -1.51763871343939    0.62268257176016
C         2.92733208685787   -0.69297387678541    1.80149595225919
C         1.92300693800892   -1.39051193666841    2.52750599867656
C         1.57098827247213   -2.57893159398011    1.76881109426389
C         3.18197446689380    1.42693017948343    0.56548796133603
C         2.33036166667883    2.57947541136935    0.56776920886933
C         1.56532364284759    2.56194416226817    1.78957273122431
C         1.93271792585974    1.39527575995805    2.53304306853874
C         2.92558521547629    0.68467352353307    1.78860517693700
C        -0.37122538429502    3.44834202578432    0.57914136673768
C        -1.74259894867232    3.00816114583143    0.58006265536294
C        -1.98082910210945    2.28833057584918    1.80425852966581
C        -0.74104491385325    2.25687927477571    2.55628565505299
C         0.24236162718726    2.98050216456751    1.79540764076879
C        -3.40290440926546    0.72963236678041    0.57728715679939
C        -3.39042544232001   -0.70469035658442    0.57889810794979
C        -2.76176064470276   -1.13156462414185    1.82008064941454
C        -2.40885057050992   -0.01072499055109    2.55835154950907
C        -2.78011233208527    1.15809924007391    1.80221867585882
C        -1.72292783150796   -3.00443807767870    0.57480509184643
C        -0.35976341141926   -3.45605109421651    0.56962734442625
C         0.24513427616683   -2.99713693551409    1.78899600666383
C        -0.74465173180995   -2.28458138471970    2.54527916866518
C        -1.92921020950190   -2.27812462596824    1.81589432856017
C        -0.24360346564942   -3.00402210645342   -1.83181452443681
C         0.74869000828385   -2.27926286568565   -2.58903117765144
C         1.97421264329713   -2.29050336043147   -1.84104535723560
C         1.74289855891520   -3.00777560060430   -0.60909569394222
C         0.37143036894857   -3.44991590990438   -0.61081932696869
C         2.78177945538975   -1.14774107330136   -1.81620711360885
C         2.39632235903367    0.01877589747041   -2.59099824210282
C         2.77583284985482    1.17816606944000   -1.84012783139847
C         3.38699239826515    0.71522534409496   -0.61366779346415
C         3.40052932162759   -0.70863463233619   -0.62643784453790
C         1.96165271889024    2.30517460984720   -1.83795197100967
C         0.73673526045495    2.30522111338677   -2.59338789209393
C        -0.25687462867459    3.02387945970591   -1.83217778548671
C         0.36079859797864    3.46020209441800   -0.60239242696785
C         1.73091366553091    3.02234155708428   -0.61086333230951
C        -1.57473462482899    2.59416133194884   -1.83128821075343
C        -1.95406001163697    1.42625068306386   -2.58950973472611
C        -2.94785600229244    0.70742706872861   -1.82939238242873
C        -3.18237547230209    1.42670430768824   -0.60714591879391
C        -2.33677296340632    2.59159613937900   -0.60538288590153
C        -2.93890233611873   -0.68406079714516   -1.82387856082790
C        -1.95025202845612   -1.40688315419459   -2.58166339596542
C        -1.56564605759882   -2.57383554234153   -1.82649019804031
C        -2.31185370987804   -2.57258603225019   -0.59735213778236
C        -3.16392144708484   -1.39641369066843   -0.59472502064308
C        -0.99446873427172   -0.71224791186525   -3.31244890912321
C        -0.99944699546811    0.73150813795300   -3.31616620162849
C         0.37130454015328    1.17951805587999   -3.32114605237694
C         1.21807975205901    0.01571723390612   -3.31912837776212
C         0.37284884014508   -1.15576763389455   -3.31774966028870
Cl       -2.11923439022436    0.30278514628337    5.19981786100878
Cl       -0.36118831310864   -2.12721402356383    5.18905133359531
Cl        5.04998842365843   -2.23506631513422    0.94193230639984
63
 energy: -142.096615736952 gnorm: 0.001893834826 xtb: 6.4.1 (a3dbbd7)
C        -1.33200803596271    0.00816262362204    3.59130711376628
C        -0.39681308717047   -1.27570582850296    3.58672519662208
C         0.97636912253904   -0.72232148307763    3.28156869440661
C         0.95932147839898    0.69235477555287    3.25544492936086
C        -0.38527275064731    1.15066576303171    3.29428407360059
C         2.33358416214532   -2.60070204532507    0.57495069708475
C         3.38670482049911   -1.51652659632987    0.62178897517247
C         2.92558958029001   -0.69223959817216    1.80093987196571
C         1.92260536054460   -1.39046512925338    2.52780250212373
C         1.57043563356456   -2.57903149684502    1.76922761612686
C         3.18176399832603    1.42689284946331    0.56534280449112
C         2.33069527212104    2.57987418547177    0.56794308112855
C         1.56582699039016    2.56254484054465    1.78994417101738
C         1.93328235652622    1.39608067709447    2.53371394246025
C         2.92502707373486    0.68518151948960    1.78852770960922
C        -0.37084146769017    3.44826716213293    0.57919503587042
C        -1.74223172888008    3.00805603472720    0.58014369657495
C        -1.98049270718382    2.28827681924055    1.80435989266135
C        -0.74067153883625    2.25699655565125    2.55647942353106
C         0.24271440632298    2.98075566217668    1.79564670446500
C        -3.40249654950103    0.72953548789481    0.57723928262724
C        -3.38996250487842   -0.70478351562364    0.57872235409209
C        -2.76138834440349   -1.13168541080829    1.81985464279614
C        -2.40875670254752   -0.01095801221028    2.55829587107593
C        -2.77978553575951    1.15798581968255    1.80226614244080
C        -1.72270407096838   -3.00475909416734    0.57472603770480
C        -0.35975806799698   -3.45674024317843    0.56963854800832
C         0.24492285173500   -2.99786923129941    1.78943967788527
C        -0.74475273589450   -2.28509967097310    2.54559479840803
C        -1.92901266585432   -2.27839658497608    1.81577108802654
C        -0.24348454459234   -3.00471386885566   -1.83220157274184
C         0.74877302956415   -2.27974755249436   -2.58940823131797
C         1.97404674086282   -2.29042567321183   -1.84102933449606
C         1.74204485187695   -3.00759112348444   -0.60927106318268
C         0.37123405781617   -3.45087138231671   -0.61105602578085
C         2.78141107147963   -1.14753670361747   -1.81680113068448
C         2.39676337812853    0.01890113301442   -2.59171844169971
C         2.77622220855929    1.17834363293330   -1.84073839829183
C         3.38656500959694    0.71562740471068   -0.61409039742820
C         3.39987571739275   -0.70827451596709   -0.62693523409144
C         1.96203263355573    2.30525305602832   -1.83812839026173
C         0.73706218203937    2.30500778310895   -2.59335065891823
C        -0.25649754452998    3.02363683413862   -1.83211121516073
C         0.36112596967217    3.46008919636419   -0.60237911040300
C         1.73125128224184    3.02227762506381   -0.61085869333646
C        -1.57432761566685    2.59396411563034   -1.83122884219596
C        -1.95360394030340    1.42610449823628   -2.58945589636543
C        -2.94737818583869    0.70729793745448   -1.82939410659920
C        -3.18196507729610    1.42660878665091   -0.60715693366234
C        -2.33633168234538    2.59146022975596   -0.60533547468043
C        -2.93842398980291   -0.68416635800344   -1.82394192884995
C        -1.94978078351199   -1.40704098286695   -2.58173484082166
C        -1.56537504625415   -2.57416447895831   -1.82669486675540
C        -2.31145339636326   -2.57279081157256   -0.59747341086075
C        -3.16342960675993   -1.39652573428384   -0.59484642055826
C        -0.99407943995670   -0.71239391653996   -3.31260956271830
C        -0.99903418573705    0.73134928897202   -3.31613809139010
C         0.37166696503604    1.17934084667194   -3.32115189845804
C         1.21845525388380    0.01556973538422   -3.31960574080995
C         0.37319652749410   -1.15602986341318   -3.31799895378069
Cl       -2.11297995293164    0.29152156579776    5.20326272225138
Cl       -0.36988763773233   -2.11777426344884    5.19283511032541