63
 energy: -142.027574739426 gnorm: 0.198020252499 xtb: 6.4.1 (a3dbbd7)
C        -1.32333194775417    0.00617886347970    3.59125188963251
C        -0.38909456310608   -1.27772716531095    3.58793274117145
C         0.98734837171535   -0.72675165446744    3.28582848483634
C         0.97037352147027    0.69420630050098    3.25749094477592
C        -0.37633960723915    1.14742685553706    3.29074190055216
C         2.33092254703306   -2.58746567485154    0.56610397604514
C         3.16875994483946   -1.41579758165486    0.56774606192583
C         2.91978889080344   -0.69314490348597    1.79074016083681
C         1.93018806170321   -1.40549148670748    2.54814074589443
C         1.57476788296703   -2.59634073810083    1.79100274817011
C         3.18328087896891    1.41909085132624    0.57258499213333
C         2.33432229320876    2.58580968143883    0.57559918777772
C         1.57332139543398    2.57095369604789    1.79851755002390
C         1.94352282881158    1.40414426944103    2.54285112768194
C         2.93804115459266    0.69543633516321    1.79366637265872
C        -0.36752716666001    3.44413435035873    0.58029879258012
C        -1.74013210357057    3.00741588983283    0.58054459941955
C        -1.97818665379860    2.28654468588757    1.80361199533287
C        -0.73393250395930    2.25581684802015    2.55761528373596
C         0.24647420110131    2.98080949443068    1.80023381740862
C        -3.39591089216029    0.72883802558845    0.57533866561121
C        -3.37932885665645   -0.70504006359254    0.57786353554246
C        -2.74934612856665   -1.12865052488571    1.82052481704193
C        -2.40026274086307   -0.01382700939334    2.55826017594831
C        -2.77435746218519    1.16021035149421    1.80187148511327
C        -1.70577977915925   -3.00504292266898    0.57191390059864
C        -0.34657433486683   -3.46193150719564    0.56452064530943
C         0.25810980605866   -3.00738238851431    1.79111395103090
C        -0.74203335365356   -2.29289841924391    2.55243835495534
C        -1.91196172287597   -2.27950749485726    1.81757326885181
C        -0.23558165862281   -3.01371296632646   -1.83961821271520
C         0.75175047781152   -2.28700579367404   -2.59867644532734
C         1.98089777627659   -2.28868303835222   -1.84308617931945
C         1.74918768154887   -3.01946296828987   -0.62050040464920
C         0.38088379041600   -3.46658963937948   -0.62079308111870
C         2.79204993046375   -1.16413556659148   -1.83875967224219
C         2.41002754086118    0.00666527739579   -2.59106683151125
C         2.78807241943814    1.16926264052202   -1.83130610074559
C         3.40298548527550    0.72369088805355   -0.60835037131266
C         3.40110069057525   -0.71955382898331   -0.60923004493565
C         1.96912615256614    2.29475463280888   -1.82840259178522
C         0.74474441569639    2.29528025280401   -2.58515694980539
C        -0.24988429155059    3.01642431380723   -1.82795956514323
C         0.36353023978106    3.45499162487799   -0.59844520421847
C         1.73735095077191    3.01278425815446   -0.60243935985793
C        -1.56944867307335    2.59059487249377   -1.83048045584010
C        -1.94787757007795    1.42311330884846   -2.58910001301826
C        -2.94122296022124    0.70465889669871   -1.83002690890673
C        -3.17947337159538    1.42642572884929   -0.60816005298080
C        -2.33307692209202    2.59081264516620   -0.60600270171083
C        -2.93172079240255   -0.68656028280689   -1.82266620418654
C        -1.94059925011627   -1.40887980593779   -2.58138532694875
C        -1.55636984787224   -2.57670213587000   -1.82754179967090
C        -2.29848528094837   -2.57416283302738   -0.59738768824741
C        -3.15456863482430   -1.39758782868201   -0.59434922362650
C        -0.98936986995949   -0.71482485845558   -3.31408037280858
C        -0.99159024528376    0.72723605185279   -3.31429029098428
C         0.38014149579772    1.17201579903766   -3.31523274930469
C         1.22728121177112    0.00778684511203   -3.31823795360647
C         0.38205649969615   -1.16057927312445   -3.31917058806611
Cl       -2.09995733548554    0.29360223981566    5.20530702406437
Cl       -0.35034641589922   -2.11046483688082    5.19906768498811
Cl        1.71182039469752   -0.95080625837029    4.92931253476991
63
 energy: -142.085401350283 gnorm: 0.081917230854 xtb: 6.4.1 (a3dbbd7)
C        -1.32409308347553    0.00423440873407    3.58971126304707
C        -0.40394291960506   -1.29190197657473    3.60325384976328
C         1.02512489914307   -0.74469707905432    3.39096866995666
C         0.95899205427921    0.70765851342650    3.23725210107274
C        -0.37924664989662    1.14730638814964    3.28453496934001
C         2.33806547553271   -2.58939493264336    0.55745489616976
C         3.17654930834434   -1.41985157910410    0.55634025153134
C         2.91805431059950   -0.69655618248703    1.77432582479589
C         1.94653934988204   -1.42144830808315    2.52814425272488
C         1.57766811499287   -2.58683724684428    1.78429060364806
C         3.18339118317823    1.41826254726622    0.57103660863747
C         2.33385761402728    2.58586790400444    0.57442476959263
C         1.57111705344630    2.57557766226701    1.79600158832285
C         1.93146431309641    1.40598323622120    2.52990456898636
C         2.93827129283632    0.69362441063434    1.78700517614042
C        -0.36914158352764    3.44586892094653    0.57964799119770
C        -1.74208058585739    3.00877647751703    0.58004589398187
C        -1.98022914730902    2.28930638134572    1.80264727891634
C        -0.73730763961220    2.26222603581473    2.55519269269898
C         0.24252147573391    2.98644104450743    1.79993129655074
C        -3.39651914211501    0.72794273435909    0.57432766278783
C        -3.38099489272907   -0.70533776833661    0.57565871645237
C        -2.75097938607950   -1.12983139569817    1.81761828132084
C        -2.40116273227601   -0.01349680328290    2.55673170423244
C        -2.77366199545545    1.15901041642006    1.80152098700725
C        -1.70962426586961   -3.00436000940145    0.57052098029515
C        -0.34923958524568   -3.45984686661685    0.56609171700142
C         0.25224434377684   -3.00365135243970    1.79348275364686
C        -0.74378503735351   -2.29010848307879    2.54746513703014
C        -1.91780148594336   -2.27921217092826    1.81123250922488
C        -0.23588280575835   -3.01387555084154   -1.83845917773831
C         0.75123678009645   -2.28708795123970   -2.59798347292194
C         1.98134362747432   -2.28849156819280   -1.84457787087704
C         1.75120584420293   -3.01918989724512   -0.62240846215312
C         0.37879779943860   -3.46506864335665   -0.61965589945362
C         2.79304347605611   -1.16386847606070   -1.84209451320905
C         2.41019750715401    0.00725530689437   -2.59306307507005
C         2.78874132522443    1.16961043965315   -1.83311856453837
C         3.40526334799313    0.72335649001831   -0.61212985620877
C         3.40611652975522   -0.71990321546856   -0.61636950729657
C         1.96981566561747    2.29522960379236   -1.82949159822723
C         0.74451305216966    2.29524976250476   -2.58497035508639
C        -0.24963206422900    3.01667531370028   -1.82772602810945
C         0.36286611013900    3.45500254664523   -0.59885529969273
C         1.73707111163612    3.01236955784930   -0.60286408226461
C        -1.57046975760213    2.59020477143948   -1.83046179772337
C        -1.94831273062361    1.42390010781567   -2.58925068528727
C        -2.94174469625750    0.70448366787207   -1.83071560941334
C        -3.17986082369571    1.42584263341837   -0.60834250012716
C        -2.33376187729785    2.59070408837932   -0.60663461046859
C        -2.93251152663535   -0.68593853135779   -1.82430818024045
C        -1.94078938861117   -1.40863253049851   -2.58209631826271
C        -1.55821971241617   -2.57674655552144   -1.82824601526130
C        -2.30140500070419   -2.57444454196973   -0.60014671817505
C        -3.15594761866633   -1.39795998143147   -0.59611983969276
C        -0.98932970116834   -0.71447683118262   -3.31408018746034
C        -0.99144282933666    0.72750833170793   -3.31429402180779
C         0.37961740362502    1.17226937390747   -3.31527673617746
C         1.22702987012188    0.00761899885014   -3.31854433471833
C         0.38208771661699   -1.16071830425988   -3.31895926718707
Cl       -2.09993365273328    0.29284557165179    5.20535605005371
Cl       -0.54621737634173   -2.19284379922859    5.17677212838157
Cl        1.92101973328993   -0.86202979012197    4.99805748216543
63
 energy: -142.097427157515 gnorm: 0.028890573170 xtb: 6.4.1 (a3dbbd7)
C        -1.32726918479341    0.00310059178335    3.58838399299597
C        -0.40408679534765   -1.29431391580464    3.61747945408774
C         1.06586728981261   -0.76534733034177    3.50078092867801
C         0.95040920332068    0.70461418105374    3.23032920185083
C        -0.37994952431588    1.13575480335512    3.26934737072418
C         2.34330894592868   -2.58631209005379    0.54993812263123
C         3.18260841593065   -1.42071133382513    0.54865164144760
C         2.91566283022725   -0.70188023260809    1.77023156858804
C         1.95427012671831   -1.43340692293519    2.52549640205934
C         1.57912405477812   -2.56755331027724    1.78098942313561
C         3.18055236640784    1.41296937357384    0.56895910772850
C         2.33088119791269    2.58128086419345    0.57239198559354
C         1.56461488955307    2.56779247471208    1.79202046691541
C         1.91903689626598    1.39697131802487    2.52382037663937
C         2.93826959969999    0.68775212595285    1.78345064694346
C        -0.37272275409322    3.44870043792214    0.57731528382324
C        -1.74642316913896    3.01117551416181    0.57693576933397
C        -1.98348088330167    2.29120071602161    1.79881960422334
C        -0.74060353197000    2.26144734077546    2.54742271504751
C         0.23661292007587    2.98676576341483    1.79710097223301
C        -3.39849346230154    0.72632122995156    0.57044781178249
C        -3.38478478986185   -0.70648305906929    0.57106181554379
C        -2.75389547558422   -1.13124667510663    1.81330720956904
C        -2.40422325367499   -0.01281159329903    2.55466978603936
C        -2.77395539927763    1.15648348702707    1.79845750064983
C        -1.71405387207254   -3.00085313072532    0.56883439539912
C        -0.35137697902284   -3.45187913775946    0.56560538666969
C         0.24835030908450   -2.99162426130098    1.79291605319034
C        -0.73365794340134   -2.27306681794472    2.53755180875690
C        -1.92051085904298   -2.27491884738732    1.80629350356830
C        -0.23752191701868   -3.01128051816760   -1.83886100743771
C         0.74987295826178   -2.28525699624217   -2.59915185069475
C         1.98198459936788   -2.28689928090382   -1.84912720808001
C         1.75210503805355   -3.01404859402629   -0.62515248669542
C         0.37560622606668   -3.45939177123486   -0.61999917555591
C         2.79581384008206   -1.16281434593929   -1.84902654145299
C         2.41109556414102    0.00869356376801   -2.59871357707163
C         2.78973342230504    1.17054011764513   -1.83740507653032
C         3.40836229995465    0.72292923570313   -0.61806205071763
C         3.41147871198441   -0.71959766764958   -0.62451546708401
C         1.96992437008358    2.29560006230661   -1.83207210708447
C         0.74342181130399    2.29542315701240   -2.58620573478301
C        -0.25032044988318    3.01653392671611   -1.82880893173970
C         0.36098430420359    3.45506800780235   -0.60041187847605
C         1.73553951449171    3.01046744599148   -0.60390557184518
C        -1.57254094769179    2.58987654245736   -1.83250560649965
C        -1.94974789354416    1.42507906497593   -2.59187504669542
C        -2.94371565568296    0.70440609959911   -1.83437101046710
C        -3.18168269541622    1.42507119503894   -0.61121246464103
C        -2.33640909634272    2.59112793666217   -0.60999534966517
C        -2.93536633701379   -0.68525741081681   -1.82924064829078
C        -1.94245134916556   -1.40792451151938   -2.58584592524681
C        -1.56177374280677   -2.57587213963116   -1.83122918658243
C        -2.30667860532278   -2.57452623610517   -0.60472305556153
C        -3.16022151231764   -1.39888925580716   -0.60105700418389
C        -0.99028677434753   -0.71330964195305   -3.31632932942306
C        -0.99209970263009    0.72848790702424   -3.31630793559413
C         0.37834412195935    1.17319361399815   -3.31724480219105
C         1.22643375754420    0.00845047471293   -3.32131418491717
C         0.38130168169709   -1.15945260685691   -3.32086072848829
Cl       -2.10594436031559    0.33389998007450    5.19639506505739
Cl       -0.55787248602863   -2.22939595400142    5.16252480151394
Cl        1.98110613056423   -0.87044763895582    5.11330684310093
63
 energy: -142.099592185942 gnorm: 0.018797930734 xtb: 6.4.1 (a3dbbd7)
C        -1.31641201934221    0.00150674377461    3.58059697629056
C        -0.39719961315286   -1.29071475938380    3.62019755045535
C         1.09413187699687   -0.77067296473494    3.55679275218758
C         0.96324834072649    0.69871905402855    3.23849203217839
C        -0.36546260770200    1.12449267184563    3.25807453689965
C         2.34634891182340   -2.57416432822499    0.54876553829359
C         3.18813559533354   -1.41336404820674    0.54673345246201
C         2.92719513457667   -0.69937819599695    1.77631540598850
C         1.96431793880370   -1.43015993587871    2.53507448639007
C         1.58535282171088   -2.54803683798112    1.78710185687872
C         3.18312848399581    1.41145912276259    0.56221429797135
C         2.33065151643140    2.57704351162627    0.56545234852759
C         1.56503878145313    2.55637633335914    1.78542535621353
C         1.92617640752742    1.39190820345070    2.52511264883015
C         2.95048456412513    0.68837355928149    1.78077670850565
C        -0.37332581208793    3.44845349119781    0.57413755811344
C        -1.74728981066063    3.00990065525417    0.57556339681406
C        -1.97945737113594    2.28811319311134    1.79733975095624
C        -0.73401147409352    2.25499738136192    2.54095236979079
C         0.23823358986056    2.98093472831023    1.79168840992368
C        -3.39884958101214    0.72368728285754    0.57057960621244
C        -3.38770043623465   -0.70881960681278    0.56979418199784
C        -2.75344103807119   -1.13300754725798    1.81082441382877
C        -2.40174024142682   -0.01378148794124    2.55479097889860
C        -2.77092278730813    1.15236482074186    1.79912655060067
C        -1.71371249261064   -2.99717931983443    0.56913521968029
C        -0.34876272801527   -3.44228356762984    0.56632748931463
C         0.25145809377297   -2.97935970667095    1.79450719750073
C        -0.72033182534597   -2.25747724637441    2.52958836528019
C        -1.91823993640445   -2.26999599783038    1.80365762925898
C        -0.23882287336649   -3.00772810328305   -1.83797923622320
C         0.74794443072120   -2.28271837656209   -2.59988317100220
C         1.98173447291857   -2.28278412510201   -1.85191240906271
C         1.75254975408092   -3.00246344214466   -0.62409721189464
C         0.37498713835864   -3.45097345784477   -0.61871924280676
C         2.79745832057000   -1.15940107734800   -1.85516374575209
C         2.41001857153032    0.01070364238139   -2.60628391333126
C         2.78920847449235    1.17296367884236   -1.84547048118378
C         3.41240577213198    0.72589644768968   -0.62733859284527
C         3.41523073447997   -0.71545616705587   -0.63125996244202
C         1.96756016373113    2.29624247472110   -1.83883036243842
C         0.73892427071335    2.29510936672431   -2.59054901153681
C        -0.25377909225940    3.01516516069483   -1.83167382105066
C         0.35873361834406    3.45376103296124   -0.60424533730710
C         1.73375750270108    3.00864978347502   -0.60910990339057
C        -1.57677168121510    2.58810216279604   -1.83402899954447
C        -1.95428460419235    1.42409238467162   -2.59353175554866
C        -2.94774387147437    0.70247344385491   -1.83532068909283
C        -3.18376579946164    1.42278720761758   -0.61093057335249
C        -2.33879725164711    2.58959974112912   -0.61093158533510
C        -2.94009742813958   -0.68681105616490   -1.83162937785164
C        -1.94637638454973   -1.40911742947213   -2.58819861160217
C        -1.56493675177949   -2.57605935065655   -1.83250802292645
C        -2.30998503142551   -2.57539686897431   -0.60633258194245
C        -3.16469399121187   -1.40159873061448   -0.60305101236871
C        -0.99433392003353   -0.71390287002029   -3.31826776092914
C        -0.99670344238182    0.72778486175041   -3.31863797495199
C         0.37343165685007    1.17304432791342   -3.32138215644007
C         1.22305238457028    0.00910110474865   -3.32571042842774
C         0.37797786293486   -1.15872177909780   -3.32317980650523
Cl       -2.06698294372798    0.30816826470340    5.20536835289121
Cl       -0.67131045119037   -2.21783500167236    5.15934098745226
Cl        1.95592410144623   -0.90220712770316    5.18201540432381
63
 energy: -142.099862481484 gnorm: 0.015076338706 xtb: 6.4.1 (a3dbbd7)
C        -1.31108151062533    0.00338054469494    3.58571193792931
C        -0.39517596838351   -1.29716948156020    3.63152912007893
C         1.10547289677258   -0.77512879673233    3.58730880636221
C         0.97343854178723    0.68990563930830    3.25014077328585
C        -0.35498830316286    1.11472606168666    3.25074526028502
C         2.34696411752964   -2.56258766961751    0.54954198919104
C         3.19096269017612   -1.40578511796084    0.54750652662947
C         2.93640793813932   -0.69542661667801    1.78319753650914
C         1.96794176422780   -1.42400126971620    2.54421884755495
C         1.59029244314800   -2.53480051205557    1.79410716307123
C         3.18550707285202    1.41171552091061    0.55829195962044
C         2.32942626198682    2.57336227249471    0.56157239527277
C         1.56468558965790    2.54590935641969    1.78197248079792
C         1.93150475331219    1.38689509787258    2.52856360038686
C         2.95962745154334    0.69016254397344    1.78009225436530
C        -0.37371700965818    3.44731539103932    0.57214229664410
C        -1.74769576916758    3.00781665371473    0.57524733296651
C        -1.97547833005980    2.28415290062841    1.79641647507408
C        -0.72825237439485    2.24658866440572    2.53527918197041
C         0.23986960289588    2.97437134664024    1.78761775327024
C        -3.39799700646558    0.72022976796503    0.57228619932431
C        -3.38833735754329   -0.71186748195296    0.57174449816799
C        -2.75179950387124   -1.13505325567298    1.81246595019894
C        -2.39691798255996   -0.01384973555921    2.55783249420103
C        -2.76663783238431    1.14772853627129    1.80047022887999
C        -1.71261584872443   -2.99473858745998    0.57130282874947
C        -0.34640045476327   -3.43566328595976    0.56675020942931
C         0.25438464618731   -2.97045099151432    1.79526242910785
C        -0.70955740685545   -2.24798844494943    2.52538231502669
C        -1.91666558836133   -2.26765521916790    1.80457449691089
C        -0.23944507225480   -3.00525004547767   -1.83693726954719
C         0.74692221375057   -2.28072646712826   -2.59958945417878
C         1.98138103388554   -2.27869446034190   -1.85207168847362
C         1.75262542311816   -2.99251102125618   -0.62189719788825
C         0.37484523154862   -3.44447217762978   -0.61719506752479
C         2.79845868884887   -1.15570906876781   -1.85741597416085
C         2.40929951120419    0.01299485225244   -2.61030298710366
C         2.78873852239214    1.17593788405721   -1.85028576591835
C         3.41529879564271    0.72954729527065   -0.63266000865015
C         3.41760659524410   -0.71106819905862   -0.63423407578282
C         1.96538047689237    2.29737361137651   -1.84283176368174
C         0.73515252169854    2.29523935933347   -2.59313512357967
C        -0.25698516621142    3.01420450034798   -1.83344615333660
C         0.35662474876872    3.45255753108170   -0.60659824094897
C         1.73191062942645    3.00753743385270   -0.61189928586835
C        -1.58040241520161    2.58627422352418   -1.83432652196778
C        -1.95792830343204    1.42227057866115   -2.59346025640940
C        -2.95071169754341    0.69966620162523   -1.83442037111689
C        -3.18516367053430    1.41969331370116   -0.60919907184864
C        -2.34085837954307    2.58757583884049   -0.61069137970436
C        -2.94346453466198   -0.68933896578853   -1.83146476599666
C        -1.94924246187188   -1.41089675498712   -2.58868629430205
C        -1.56686392591039   -2.57703699288137   -1.83221713754289
C        -2.31178748461019   -2.57693887720239   -0.60577914760374
C        -3.16724414554199   -1.40488986943751   -0.60220151205761
C        -0.99735259537014   -0.71499931785171   -3.31861451895232
C        -1.00028596735347    0.72664273862522   -3.31912483877736
C         0.36964135413446    1.17291249774426   -3.32350871390253
C         1.22070319524599    0.00993343337593   -3.32770255833255
C         0.37574040824368   -1.15812869744611   -3.32399992086832
Cl       -2.08107426580995    0.41423053074524    5.18481824000428
Cl       -0.69964919247309   -2.31081158439816    5.11410874165694
Cl        1.93351840009566   -0.92480783106759    5.21340081492814
63
 energy: -142.100490012284 gnorm: 0.007608323772 xtb: 6.4.1 (a3dbbd7)
C        -1.31150144396616    0.00317972017759    3.58216230342496
C        -0.39873175228830   -1.29513217410973    3.62582908352055
C         1.09763027285175   -0.77326184041180    3.57098050766118
C         0.97186563692976    0.69020743470058    3.24578873335969
C        -0.35695130960078    1.11734769805514    3.25086174509055
C         2.34514493883890   -2.56412539452983    0.55040625715591
C         3.18973520961985   -1.40723265890958    0.54834199361194
C         2.93553064642853   -0.69543215927148    1.78209834120936
C         1.96610989090575   -1.42397874137942    2.54366689680818
C         1.58864959846529   -2.53912443350726    1.79406455329392
C         3.18675688450774    1.41294719319919    0.55914376935849
C         2.33022643235121    2.57428376573732    0.56278190412872
C         1.56531653882021    2.54872308925625    1.78308857021421
C         1.93130816800268    1.38854081248496    2.52675725020542
C         2.95859740120250    0.69066386591884    1.77980077376266
C        -0.37308437004006    3.44709541301131    0.57278496807839
C        -1.74699554497866    3.00741754867171    0.57616109169919
C        -1.97628974455314    2.28392452009958    1.79697921913395
C        -0.72939543895013    2.24785388630498    2.53623585243688
C         0.24036559648265    2.97575526467559    1.78851211005261
C        -3.39858941652046    0.72044975037099    0.57232544078876
C        -3.38889103700096   -0.71176470234635    0.57145772346261
C        -2.75336174469283   -1.13566656158770    1.81185516514292
C        -2.40043428827939   -0.01437622106154    2.55845579579449
C        -2.76857189012292    1.14799660864640    1.80117891091609
C        -1.71373868046900   -2.99646403039685    0.57075135319234
C        -0.34789394590091   -3.43836166397472    0.56621819503784
C         0.25275107755696   -2.97333670427384    1.79486331575713
C        -0.71374282588118   -2.25225633086093    2.52633075396058
C        -1.91922997782585   -2.26973516747456    1.80407990413730
C        -0.23945929435894   -3.00604369214667   -1.83732293476318
C         0.74730228519802   -2.28124776007107   -2.59903559264367
C         1.98088747960155   -2.27922591988185   -1.85022480949520
C         1.75185855084756   -2.99446245415776   -0.62128018703637
C         0.37429175394157   -3.44608694730633   -0.61721628640161
C         2.79792653518040   -1.15629025153610   -1.85497557693907
C         2.40991329730215    0.01255559925358   -2.60809979024551
C         2.78955857632162    1.17569931891026   -1.84856169070429
C         3.41539979910887    0.72918074764227   -0.63071245274766
C         3.41719396296173   -0.71199255927657   -0.63230854892490
C         1.96655246260952    2.29741188751316   -1.84128371266565
C         0.73659703227630    2.29558464778375   -2.59206241883157
C        -0.25573167719336    3.01470335552053   -1.83277807538723
C         0.35766336744093    3.45267566226829   -0.60567330612087
C         1.73301045343108    3.00824768339183   -0.61085236338711
C        -1.57902744696148    2.58669943008885   -1.83342493499193
C        -1.95645238862744    1.42247977503381   -2.59255582654841
C        -2.94948551319779    0.70000572603221   -1.83388174878555
C        -3.18451684653975    1.42000188235562   -0.60886387046878
C        -2.33990708120837    2.58768669539730   -0.60996963531085
C        -2.94249101533468   -0.68907017848989   -1.83121363603649
C        -1.94838434036188   -1.41063333305366   -2.58848930490891
C        -1.56641697950797   -2.57725001617822   -1.83239454461050
C        -2.31189733621801   -2.57736790432305   -0.60613838694964
C        -3.16681478970389   -1.40482514810944   -0.60238618397993
C        -0.99618636340692   -0.71478688765976   -3.31811066137140
C        -0.99884133814355    0.72690844422930   -3.31815794224420
C         0.37122875507313    1.17303372000684   -3.32224818010752
C         1.22186264035176    0.00986124791331   -3.32624137613707
C         0.37672191153738   -1.15819660113525   -3.32320869818324
Cl       -2.06210082339133    0.37567755332388    5.19646792952658
Cl       -0.69627123108161   -2.27374399053598    5.12112971186372
Cl        1.93198671521257   -0.91292219485474    5.19381862496588
63
 energy: -142.100581541889 gnorm: 0.003838376873 xtb: 6.4.1 (a3dbbd7)
C        -1.31037671798520    0.00295696803890    3.58045743978578
C        -0.40019800386483   -1.29532127686171    3.62527448783672
C         1.09648346787745   -0.77367758379880    3.56986907072346
C         0.97226552642743    0.68855978538831    3.24390075696105
C        -0.35638556940540    1.11704394225492    3.24846756617664
C         2.34460896158480   -2.56326839502060    0.55069077617076
C         3.18960338024763   -1.40700336817692    0.54863456495760
C         2.93638613705390   -0.69496627561450    1.78204849599675
C         1.96580996338869   -1.42342881794529    2.54444160884268
C         1.58884682366461   -2.53858844592272    1.79494452713490
C         3.18770574046292    1.41379103983474    0.55899889530704
C         2.33042998601904    2.57440617422420    0.56293706378639
C         1.56528629583146    2.54877081561840    1.78322272140962
C         1.93143036809411    1.38863207160068    2.52588412497856
C         2.95917542102559    0.69098074666683    1.77933843206915
C        -0.37298527951777    3.44720954973174    0.57276539123700
C        -1.74686636575165    3.00708159148098    0.57660643206302
C        -1.97628370811317    2.28356738027699    1.79710266410517
C        -0.72944036361450    2.24762739668631    2.53567357815241
C         0.24065986941355    2.97610513138098    1.78831751732303
C        -3.39860543560174    0.72005282808001    0.57256918964365
C        -3.38900521398832   -0.71209657078811    0.57156318531554
C        -2.75350614341390   -1.13620783204533    1.81141925103096
C        -2.40190342031846   -0.01424602586428    2.55974226328268
C        -2.76893004756147    1.14740223405740    1.80201894141053
C        -1.71453274433988   -2.99726735752607    0.57062947273167
C        -0.34851511221971   -3.43883040532004    0.56576013554560
C         0.25220738542580   -2.97275316730552    1.79437434251042
C        -0.71353846864748   -2.25233821479026    2.52500940253529
C        -1.92059087507944   -2.27024264847132    1.80318678162615
C        -0.23956935704349   -3.00629939593714   -1.83752322233031
C         0.74738054774865   -2.28135088203576   -2.59867240667831
C         1.98060277816794   -2.27894482698809   -1.84922470436416
C         1.75168484662910   -2.99414039058622   -0.62066731086561
C         0.37384723474028   -3.44606019596982   -0.61699823095899
C         2.79784841821361   -1.15603337437859   -1.85406440257070
C         2.41009169674899    0.01262444446600   -2.60760406546844
C         2.78988629766779    1.17603915472387   -1.84846423136201
C         3.41580686438093    0.72957627563433   -0.63051823878931
C         3.41744203327701   -0.71181328732709   -0.63196686640571
C         1.96680251788091    2.29755010111850   -1.84095226822675
C         0.73672919331117    2.29573755982550   -2.59185522998194
C        -0.25550881578636    3.01480949346527   -1.83272877517320
C         0.35782109755008    3.45271102795979   -0.60555073955111
C         1.73331523300632    3.00866863784015   -0.61063483137630
C        -1.57883989501814    2.58655092470846   -1.83295299373307
C        -1.95610695915063    1.42222048530878   -2.59202032545418
C        -2.94907776221099    0.69961109650678   -1.83334705764456
C        -3.18423625306432    1.41965039891252   -0.60837455391969
C        -2.33973883163550    2.58753437680506   -0.60964794003179
C        -2.94236645073635   -0.68938572785150   -1.83106616067180
C        -1.94830972105401   -1.41088908953334   -2.58851958322945
C        -1.56652249561140   -2.57773615589107   -1.83259660294458
C        -2.31256707558753   -2.57813357456898   -0.60655125060521
C        -3.16683360444581   -1.40547215898002   -0.60241398265856
C        -0.99595696421186   -0.71496194250948   -3.31784918695095
C        -0.99857357376987    0.72676946850768   -3.31769926048324
C         0.37150652117655    1.17296412827327   -3.32182204119859
C         1.22210741399580    0.00984559647521   -3.32575951999230
C         0.37693847757165   -1.15825378270447   -3.32288523542266
Cl       -2.04825450651715    0.36662101321326    5.20276342512357
Cl       -0.70442868066670   -2.26355040124669    5.11754199711664