108
 energy: -323.442797194367 gnorm: 1.208843224302 xtb: 6.4.1 (a3dbbd7)
C        -1.23626340000000    0.00000000000000    3.32997640000000
C        -0.38202640000000   -1.17575640000000    3.32997640000000
C         1.00015810000000   -0.72665740000000    3.32997640000000
C         1.00015810000000    0.72665740000000    3.32997640000000
C        -0.38202640000000    1.17575640000000    3.32997640000000
C         2.34433560000000   -2.60145750000000    0.59464210000000
C         3.19857260000000   -1.42570110000000    0.59464210000000
C         2.96246730000000   -0.69904370000000    1.83090550000000
C         1.96230920000000   -1.42570110000000    2.59495830000000
C         1.58028280000000   -2.60145750000000    1.83090550000000
C         3.19857260000000    1.42570110000000    0.59464210000000
C         2.34433560000000    2.60145750000000    0.59464210000000
C         1.58028280000000    2.60145750000000    1.83090550000000
C         1.96230920000000    1.42570110000000    2.59495830000000
C         2.96246730000000    0.69904370000000    1.83090550000000
C        -0.36750900000000    3.48258920000000    0.59464210000000
C        -1.74969350000000    3.03349030000000    0.59464210000000
C        -1.98579880000000    2.30683290000000    1.83090550000000
C        -0.74953540000000    2.30683290000000    2.59495830000000
C         0.25062270000000    3.03349030000000    1.83090550000000
C        -3.42570570000000    0.72665740000000    0.59464210000000
C        -3.42570570000000   -0.72665740000000    0.59464210000000
C        -2.80757400000000   -1.17575640000000    1.83090550000000
C        -2.42554760000000    0.00000000000000    2.59495830000000
C        -2.80757400000000    1.17575640000000    1.83090550000000
C        -1.74969350000000   -3.03349030000000    0.59464210000000
C        -0.36750900000000   -3.48258920000000    0.59464210000000
C         0.25062270000000   -3.03349030000000    1.83090550000000
C        -0.74953540000000   -2.30683290000000    2.59495830000000
C        -1.98579880000000   -2.30683290000000    1.83090550000000
C        -0.25062270000000   -3.03349030000000   -1.83090550000000
C         0.74953540000000   -2.30683290000000   -2.59495830000000
C         1.98579880000000   -2.30683290000000   -1.83090550000000
C         1.74969350000000   -3.03349030000000   -0.59464210000000
C         0.36750900000000   -3.48258920000000   -0.59464210000000
C         2.80757400000000   -1.17575640000000   -1.83090550000000
C         2.42554760000000    0.00000000000000   -2.59495830000000
C         2.80757400000000    1.17575640000000   -1.83090550000000
C         3.42570570000000    0.72665740000000   -0.59464210000000
C         3.42570570000000   -0.72665740000000   -0.59464210000000
C         1.98579880000000    2.30683290000000   -1.83090550000000
C         0.74953540000000    2.30683290000000   -2.59495830000000
C        -0.25062270000000    3.03349030000000   -1.83090550000000
C         0.36750900000000    3.48258920000000   -0.59464210000000
C         1.74969350000000    3.03349030000000   -0.59464210000000
C        -1.58028280000000    2.60145750000000   -1.83090550000000
C        -1.96230920000000    1.42570110000000   -2.59495830000000
C        -2.96246730000000    0.69904370000000   -1.83090550000000
C        -3.19857260000000    1.42570110000000   -0.59464210000000
C        -2.34433560000000    2.60145750000000   -0.59464210000000
C        -2.96246730000000   -0.69904370000000   -1.83090550000000
C        -1.96230920000000   -1.42570110000000   -2.59495830000000
C        -1.58028280000000   -2.60145750000000   -1.83090550000000
C        -2.34433560000000   -2.60145750000000   -0.59464210000000
C        -3.19857260000000   -1.42570110000000   -0.59464210000000
C        -1.00015810000000   -0.72665740000000   -3.32997640000000
C        -1.00015810000000    0.72665740000000   -3.32997640000000
C         0.38202640000000    1.17575640000000   -3.32997640000000
C         1.23626340000000    0.00000000000000   -3.32997640000000
C         0.38202640000000   -1.17575640000000   -3.32997640000000
C        -1.76086815247998    0.00000000000000    4.78849957557021
F        -0.76911826531252    0.00000000000000    5.67468926254662
F        -2.50968386795825   -1.06794314680471    5.04863888333743
F        -2.50968386795825    1.06794314680471    5.04863888333743
C         1.42457227037960   -1.03501233722714    4.78849957248258
F         0.62223011468481   -0.45207589682711    5.67468926529602
F         1.40265511061956   -2.33913928186680    5.04863905501621
F         2.65809836182651   -0.61117154425495    5.04863869666890
C         0.53602450593361   -4.99908416128281   -0.86730591619822
F         1.22448605650957   -5.23152837615597   -1.98125850960180
F        -0.63540201352706   -5.61404743764837   -1.00324736766175
F         1.18149064144157   -5.61404773804446    0.11965571789346
C         3.37204091334889   -3.72927672645244    0.86730596148276
F         4.06564647311729   -3.51265957144658    1.98125763710227
F         4.25569947457670   -3.84739838595791   -0.11965645964809
F         2.78580317558591   -4.91533944031226    1.00324916143780
C         4.03961820246674    1.67468514775899   -2.62817407948106
F         4.96930660042402    0.73147479244129   -2.75037763231441
F         3.71458666614022    2.05683907990832   -3.85992603200073
F         4.62303373288711    2.71686348978894   -2.04303253910982
C         1.08016271022039    3.32439912180418   -3.71645041587937
F         1.46215754230407    4.50005299330749   -3.22571838851551
F         2.06425285383526    2.89718320022386   -4.50255037491024
F         0.03290491502765    3.55721032900471   -4.50254840735999
C        -2.28376457660886    3.72927671755932   -2.62817408867206
F        -3.59030321655004    3.51265997057978   -2.75037870097715
F        -1.79618325340526    3.84739782561576   -3.85992562899768
F        -2.14318168460923    4.91533956626621   -2.04303190988614
C        -1.08016271022039    3.32439912180418    3.71645041587937
F        -1.46215754230407    4.50005299330749    3.22571838851551
F        -2.06425285383526    2.89718320022386    4.50255037491024
F        -0.03290491502765    3.55721032900471    4.50254840735999
C        -4.25247495652193   -1.01957928511255   -2.62817407757680
F        -4.45020405360858   -2.32910962270745   -2.75037677428972
F        -4.21414295278388   -0.51936236815950   -3.85992636334023
F        -5.33704498641440   -0.51936149478961   -2.04303305824600
C        -1.42457227037960   -1.03501233722714   -4.78849957248258
F        -0.62223011468481   -0.45207589682711   -5.67468926529602
F        -2.65809836182651   -0.61117154425495   -5.04863869666891
F        -1.40265511061956   -2.33913928186680   -5.04863905501621
C         1.76086815247998    0.00000000000000   -4.78849957557021
F         0.76911826531252    0.00000000000000   -5.67468926254662
F         2.50968386795825    1.06794314680471   -5.04863888333743
F         2.50968386795825   -1.06794314680471   -5.04863888333743
C        -1.08016271022039   -3.32439912180418    3.71645041587937
F        -1.46215754230407   -4.50005299330749    3.22571838851551
F        -0.03290491502764   -3.55721032900471    4.50254840735999
F        -2.06425285383526   -2.89718320022386    4.50255037491024
108
 energy: -323.921091945725 gnorm: 0.501994653625 xtb: 6.4.1 (a3dbbd7)
C        -1.23939258447005    0.00073488083279    3.33507067274326
C        -0.38074015967552   -1.16910497508350    3.33704208364114
C         1.00465000842383   -0.72825528320405    3.33492133692215
C         0.99638149818890    0.74007269682390    3.33380146375403
C        -0.35831705164530    1.16246921054522    3.33054071453283
C         2.36906906223142   -2.60739713380178    0.59927303174744
C         3.19974573058261   -1.40515343477533    0.59668702509301
C         2.95995107501876   -0.69978874736078    1.82563558391417
C         1.96813581104877   -1.43718937538879    2.56403143048471
C         1.57409990579949   -2.60003777616726    1.83368772057994
C         3.19415521651551    1.42307408868369    0.59973327764204
C         2.34599044436396    2.59971913207622    0.59829747078061
C         1.58607997728870    2.59849062377884    1.82380987936208
C         1.96510635896144    1.43039933799982    2.59017881713535
C         2.95842502796677    0.70279858644042    1.83116548755671
C        -0.36656372145355    3.47818133357489    0.60028919552497
C        -1.74731092382166    3.02920652873748    0.60000458333658
C        -1.99220575834776    2.31093151309790    1.81597396030161
C        -0.75522776133797    2.32332953877070    2.61098048933589
C         0.25604897317806    3.03162579097923    1.80991093799218
C        -3.42665440903161    0.72530186718001    0.59526554692954
C        -3.42428063407036   -0.72489596014006    0.59637536641977
C        -2.80729129958392   -1.17320491017438    1.82497969726868
C        -2.43880466390268    0.00030117731049    2.57207473325784
C        -2.80727447533612    1.17297454905975    1.82286990679147
C        -1.74777677822752   -3.02944172596161    0.59831973956360
C        -0.37642565449244   -3.48770353199579    0.61561412933417
C         0.25089334394789   -3.03019337833156    1.81152363409805
C        -0.75956385056791   -2.32277865313601    2.61003773472403
C        -1.99406677988663   -2.31011773830098    1.81486436911359
C        -0.25564481002672   -3.01919805839702   -1.83901349742013
C         0.74441397715725   -2.30302913743134   -2.59142809323511
C         1.97995908727658   -2.30868287414868   -1.82498127498812
C         1.74720784418618   -3.00934647652631   -0.61976221390572
C         0.36884207156522   -3.49248558960758   -0.60327406594975
C         2.80561862372081   -1.16639041870699   -1.82867064519329
C         2.43040744469107   -0.01872525852945   -2.56573309927479
C         2.83364908827079    1.18164023512576   -1.83047748795236
C         3.42046644790129    0.71840371636386   -0.57456658460313
C         3.42531472516559   -0.72089295863343   -0.59035653068399
C         1.97894084175329    2.32210364760601   -1.81693440521489
C         0.75442154138403    2.32080021988161   -2.60888428331250
C        -0.23964266025273    3.03369468464832   -1.81411272809591
C         0.36531526533692    3.47602215248285   -0.60171562367090
C         1.74705633457950    3.02672242821555   -0.59873209748796
C        -1.59957876027766    2.61186965930733   -1.83441732645671
C        -1.96725476927379    1.41023578800171   -2.58669898086776
C        -2.96367978793547    0.72142404852780   -1.83796718676470
C        -3.19030450626506    1.43039086053157   -0.59363131537099
C        -2.35085061830533    2.60290368643952   -0.57886092487673
C        -2.97253426193066   -0.70837987932939   -1.83281601188933
C        -1.95531533563077   -1.44003151270706   -2.57136259426825
C        -1.58138432878410   -2.59407127301692   -1.82779015234962
C        -2.34688000886072   -2.59642225453773   -0.59282030390419
C        -3.18630970512311   -1.43133974811114   -0.57654686256123
C        -0.99824989554470   -0.73267941122408   -3.33345355125331
C        -0.99322322403141    0.73499504016613   -3.33516704968386
C         0.35675164191213    1.16001500372218   -3.33155783155440
C         1.24017228329929   -0.00580187306362   -3.33528817332732
C         0.38738652606649   -1.19192433862488   -3.33826717956442
C        -1.79593127751690    0.00649099222851    4.79143084528932
F        -0.90287938208699    0.05271117939681    5.70405458652909
F        -2.53089257021695   -1.05179195389261    5.05606763307705
F        -2.53982501763045    1.05666644029465    5.05039374505484
C         1.46053262588674   -1.04753616343244    4.79019437275250
F         0.76088710129333   -0.48711677643556    5.70462576123656
F         1.43203508511989   -2.33736472251589    5.05657141178622
F         2.68305308809646   -0.61246836102828    5.04150901711313
C         0.53418104516929   -5.01274956320463   -0.87411496561976
F         1.22584331843411   -5.23545460615146   -1.98559152384160
F        -0.64067768727888   -5.61604364932343   -1.00662638075956
F         1.16045841844785   -5.62995382173842    0.11150779326722
C         3.38707969685071   -3.73690318234059    0.87169518403654
F         4.07218782026587   -3.51231821416917    1.98551731130468
F         4.26039715865371   -3.84862331822019   -0.12206120889048
F         2.80733823337736   -4.91391464936658    1.01787279116878
C         4.05951331662201    1.67736830919866   -2.62930489510503
F         4.97769948485916    0.72801522312056   -2.74962543267743
F         3.75361518501247    2.06376294751750   -3.84636240409708
F         4.62860658572433    2.71954576510179   -2.03821941235970
C         1.08273167856377    3.34086723623266   -3.72413462066518
F         1.46292033942420    4.50900222202210   -3.22457870422797
F         2.04870372476423    2.93061097059081   -4.51169761540320
F         0.05151762175265    3.55701325323824   -4.51750084108525
C        -2.29617366837841    3.74022214139801   -2.63229328230637
F        -3.59823241721010    3.51517946747688   -2.74989159397277
F        -1.82215423440991    3.85384282944044   -3.85880934444496
F        -2.14416381211634    4.91966418197603   -2.04139740520366
C        -1.08054894859563    3.34039275142170    3.72458522175060
F        -1.46177086753516    4.50895160647014    3.22511463573939
F        -2.06419713622832    2.92482557357178    4.50075968343893
F        -0.02908223830590    3.56002643960600    4.50579067259750
C        -4.26674650433398   -1.02462146063633   -2.63052086319440
F        -4.45434083523732   -2.33342353760913   -2.75167628708113
F        -4.24088814628881   -0.51474483199420   -3.84853518011177
F        -5.34193405317335   -0.51935883185533   -2.03871567650102
C        -1.45250999536210   -1.05277017593765   -4.79216602758639
F        -0.75943939654961   -0.48945625621465   -5.70431723066779
F        -2.66156643791587   -0.61512499629662   -5.06126844486002
F        -1.40857199611023   -2.35167587117175   -5.04732034301980
C         1.79433923647340   -0.00203229183478   -4.79192341572675
F         0.90075362635355    0.05026062868449   -5.70538649587742
F         2.52630715003473    1.04594977184653   -5.06844385302661
F         2.52091705413529   -1.07841993493103   -5.04727578973822
C        -1.08613657527450   -3.34243157428609    3.72304529175162
F        -1.46560485277507   -4.50927918297990    3.22262033711459
F        -0.04745818947918   -3.57987266279044    4.50063924598761
F        -2.06624262797945   -2.92429817513426    4.50082867943489
108
 energy: -324.164674785041 gnorm: 0.268620629798 xtb: 6.4.1 (a3dbbd7)
C        -1.24782947810124    0.00192292989850    3.36531740640648
C        -0.37736242259625   -1.16322551269072    3.32088940587971
C         1.02087595158995   -0.73379827056942    3.38767148469150
C         0.98020188523948    0.75146863685591    3.29332863573120
C        -0.33425027576397    1.15319271718492    3.30447736908148
C         2.40883710977533   -2.64295398629695    0.60787236563340
C         3.19548864592396   -1.38617254417036    0.59435133038917
C         2.95065953285385   -0.69634322089118    1.81413470881677
C         1.97056813665341   -1.43893147057671    2.53686874401038
C         1.56373796416032   -2.56639243697121    1.82819435263219
C         3.18992156497269    1.42061937713506    0.60761930918995
C         2.35153386823703    2.59934654486677    0.60406283432496
C         1.59437245691731    2.59711879012303    1.81224248017565
C         1.97046830481516    1.43963912263234    2.57682928238638
C         2.95781144294785    0.70957046440529    1.83534736084450
C        -0.36731327680609    3.47463950156728    0.60939601306608
C        -1.74460972661826    3.01397757789467    0.60768186996551
C        -1.99523284034918    2.29521761342680    1.79821337688834
C        -0.76581496281117    2.36769745277984    2.63617667635338
C         0.26096799949756    3.03196785590006    1.78170926661297
C        -3.43143315394782    0.72174663242735    0.59503665107688
C        -3.42544670197996   -0.72250101554686    0.59678234922802
C        -2.80773122784918   -1.16296991683571    1.81665753576309
C        -2.45128814017944    0.00174852169048    2.55243554744223
C        -2.80748646880538    1.16298242348838    1.81097669517002
C        -1.74740042497730   -3.01323006607980    0.60337123027308
C        -0.38133631644714   -3.45002430337059    0.62989960206267
C         0.25166208531452   -3.01601569236627    1.78718742314868
C        -0.77545310185415   -2.36335437998768    2.63605770605869
C        -2.00026450235771   -2.29253005486265    1.79392001616357
C        -0.26109357209031   -3.00902409539773   -1.84753590372709
C         0.73731999473999   -2.30054250687211   -2.57553597127208
C         1.97356082975607   -2.31133167724556   -1.81303700892797
C         1.74205346437323   -2.98402567002130   -0.64088873224812
C         0.37191171899691   -3.54182215943716   -0.62092185842285
C         2.80076827395715   -1.15337127945653   -1.82490911015295
C         2.42897045237326   -0.04114025593720   -2.53838296068553
C         2.87528989946444    1.18859390169624   -1.84546566961685
C         3.41567982704213    0.71040951189839   -0.55297906073193
C         3.42043975159401   -0.71267255600420   -0.58435135159049
C         1.96983323306017    2.31821631176464   -1.78296670934216
C         0.76372050848993    2.35789764546878   -2.62436137232557
C        -0.23128258218869    3.03556097505712   -1.77541195593571
C         0.36161915510512    3.46456712830399   -0.60286284722760
C         1.74400730728341    3.01219246805691   -0.59852451097498
C        -1.62892020174712    2.65404825836421   -1.85340685232103
C        -1.96579634035268    1.39695900186695   -2.56352675150346
C        -2.92690558435257    0.73694576429129   -1.82246229054839
C        -3.17844682539741    1.42987307090403   -0.58577826677880
C        -2.35200734753868    2.58145336401527   -0.56199047650770
C        -3.01822779797513   -0.72325266371617   -1.85513466380532
C        -1.95095744381007   -1.45182630499481   -2.55193991074300
C        -1.58220049302356   -2.57831200106248   -1.81931346107987
C        -2.35345634105780   -2.59229208796339   -0.58920160177436
C        -3.17289846990237   -1.43678221403467   -0.55978898761326
C        -1.00987800254196   -0.74623279873007   -3.38449391475393
C        -0.97105631791423    0.73778882122581   -3.29539672865850
C         0.33267508287834    1.14476626251020   -3.30120107095309
C         1.25325122498161   -0.01180714690947   -3.38777581959678
C         0.38834187993684   -1.20169117519325   -3.30445127086397
C        -1.82218011225086    0.01072238630180    4.81463757417671
F        -0.95534894448524    0.07973295878908    5.74193362396843
F        -2.56098600678407   -1.03637886850007    5.06838948713718
F        -2.58315360089663    1.04370938861767    5.05486515021569
C         1.49205937906320   -1.05288924325416    4.81984040090183
F         0.82160592102842   -0.49325321395554    5.74613504446509
F         1.47510050145927   -2.33824918770583    5.07268122674078
F         2.71811531282742   -0.60874943042792    5.03458309128715
C         0.53110434784579   -5.04629793422163   -0.88630017420753
F         1.22944233700472   -5.24976072715260   -1.99535945920527
F        -0.65282228801684   -5.62542804437743   -1.01730325657015
F         1.13403189967889   -5.66202526588120    0.10321846194864
C         3.41700732894347   -3.75465003819953    0.88068913351649
F         4.09133643405619   -3.51142306108223    1.99473869842833
F         4.27548988214967   -3.85418465839722   -0.12552086316376
F         2.84133622071554   -4.92183678607563    1.04115979612912
C         4.09584356337384    1.68413135190203   -2.63191581569310
F         4.99950838848803    0.72311716076715   -2.74733889342535
F         3.81114863860205    2.08033194259378   -3.83602075450505
F         4.64516360453619    2.72606846754738   -2.02558157469833
C         1.08798221057245    3.37038103460483   -3.73949110342326
F         1.46263888295527    4.53075079104871   -3.22422311341355
F         2.04041391178092    2.97498027827789   -4.52942136427471
F         0.07068824717038    3.56354152095538   -4.54346996662828
C        -2.32211212446985    3.76484174925020   -2.64297074881657
F        -3.61970471642562    3.52336628546706   -2.74850686632960
F        -1.86320597521684    3.86898059422494   -3.86590380977870
F        -2.15153038223777    4.93342898509663   -2.04012280722367
C        -1.08230008168805    3.37232898320601    3.73999499144302
F        -1.46015018238721    4.53268325315281    3.22595971644289
F        -2.06895644452173    2.96918774920100    4.50479061969036
F        -0.02253001034036    3.57071777964152    4.51420226160254
C        -4.30188281268152   -1.03354568011369   -2.63760254023284
F        -4.46814118339558   -2.34381437835836   -2.75652724192221
F        -4.28977764407838   -0.50658024249604   -3.83807835633056
F        -5.35985083879107   -0.52276712158521   -2.02741532482690
C        -1.46918704318419   -1.06903117492548   -4.82500301373566
F        -0.81259153465310   -0.50399918821175   -5.74927097470986
F        -2.66756166635175   -0.62211151844875   -5.08790523662745
F        -1.41453055675823   -2.37220699972552   -5.04943469342455
C         1.81851149765393   -0.01002572176580   -4.82422174937976
F         0.95314627766707    0.06868648710506   -5.75089084164258
F         2.55519628608051    1.02000220373603   -5.10173045013841
F         2.53429511311982   -1.09992777312360   -5.04775420743246
C        -1.09709879689833   -3.37932622324116    3.73557281457545
F        -1.47359562398191   -4.53472350726599    3.21609836711839
F        -0.06330862197671   -3.61982643033633    4.50387415817492
F        -2.07627147888043   -2.96844861032967    4.50394557159320
108
 energy: -324.305163605378 gnorm: 0.148413070425 xtb: 6.4.1 (a3dbbd7)
C        -1.26109242289785    0.00265525930826    3.40249821453143
C        -0.37689787453382   -1.16165745434825    3.31355680636240
C         1.03406495812081   -0.74115027260971    3.43907107525149
C         0.96994359547519    0.75480343600392    3.26918449848320
C        -0.32269304151548    1.14758883008279    3.27921275627391
C         2.44604772835954   -2.67652408752759    0.61609804062709
C         3.19336161922982   -1.37592512063481    0.59405085494626
C         2.94287536827756   -0.69009669409042    1.80585992089735
C         1.96160197153678   -1.43444826435449    2.51442105346806
C         1.55835529173035   -2.54388996546754    1.81950072831175
C         3.19134387394787    1.42110665470395    0.61374684725237
C         2.35908209244831    2.60134548766087    0.61038572837958
C         1.60080846635291    2.59585554827871    1.80470197781174
C         1.97723020273384    1.44814521629393    2.57206687663363
C         2.95746461723359    0.71527261773402    1.83915581495282
C        -0.36698509341162    3.47171081344093    0.61948810914677
C        -1.74319211624621    3.00570092141067    0.61405356174944
C        -1.99419336099249    2.28749447680040    1.79124594970951
C        -0.77676736807532    2.40636156882401    2.66548094740642
C         0.26050928749836    3.03040257893518    1.76540863191351
C        -3.43626363600739    0.71993667267820    0.59353042059939
C        -3.43013953772667   -0.72078326338025    0.59533403630627
C        -2.80753914721445   -1.15615360699921    1.81253792453491
C        -2.45543363360869    0.00405607978544    2.54091803853276
C        -2.80579296359561    1.15821733174990    1.80398095963220
C        -1.74556082539753   -2.99940255411936    0.60652855658844
C        -0.38088709247409   -3.42433296297200    0.63120182202832
C         0.24847013398593   -3.00453945222715    1.77002730821041
C        -0.78972102874012   -2.39797582860900    2.66872649455895
C        -2.00254683649101   -2.28183806158355    1.78659242995624
C        -0.26393275971497   -3.00595819456954   -1.85017632347666
C         0.72894186542636   -2.29170422937827   -2.56763520886618
C         1.96777026672863   -2.30982585811507   -1.80197228258398
C         1.73557301313479   -2.96038998631896   -0.64582756101111
C         0.37638258913883   -3.59070598997018   -0.63481666875931
C         2.79664909247772   -1.14138746113396   -1.81977194251719
C         2.41960671399910   -0.04917079337943   -2.51471333526938
C         2.91871260619760    1.20215584409487   -1.86406775299758
C         3.41389033792290    0.71012853211221   -0.53951447288891
C         3.41930927687811   -0.70542110603312   -0.57647382884125
C         1.96576290190500    2.31012586804819   -1.76184287524275
C         0.77483363443935    2.39085606426374   -2.64844080574924
C        -0.23204276584896    3.02694634687195   -1.75119797351484
C         0.35564962214105    3.45168036172127   -0.60527643034727
C         1.74311149481056    2.99645387041942   -0.59880116910166
C        -1.65895725499089    2.69396019759671   -1.87423920789584
C        -1.96687021967813    1.38671937371982   -2.54440559491854
C        -2.90370503430630    0.73807180356603   -1.81077822590105
C        -3.16937626761660    1.43019983950929   -0.57860523230322
C        -2.35376797231184    2.57292969129590   -0.55202762002323
C        -3.06333041197678   -0.73656325415445   -1.87724844144270
C        -1.94442086825028   -1.45242184773689   -2.53521852739437
C        -1.58074827130793   -2.56453011689094   -1.81006165099829
C        -2.35889451742568   -2.58667573301192   -0.58400906131832
C        -3.16573639709919   -1.43841309100648   -0.55094680018881
C        -1.02304608119404   -0.75970197782183   -3.43742081903779
C        -0.95631864374155    0.73321843738339   -3.26958987554030
C         0.32472329487993    1.13334241541044   -3.27390438820188
C         1.27199511953435   -0.01358541415754   -3.44327570396244
C         0.38928840543776   -1.20255109526433   -3.29370637368579
C        -1.86001422100686    0.01943895085191    4.84190144566607
F        -0.99224306843908    0.10711863703155    5.79290625661949
F        -2.60092768024174   -1.03238874272739    5.07855324420264
F        -2.65094765312266    1.04507272257233    5.04606882877653
C         1.53386540355372   -1.05808919403937    4.84858299325783
F         0.87194032410119   -0.49052680184304    5.80186781493672
F         1.52653707133376   -2.34907485329505    5.08593495987888
F         2.77392308749305   -0.61032997257404    5.01652218402078
C         0.52645275201602   -5.08115328772252   -0.89661594767916
F         1.23232045100438   -5.27204658403567   -2.00474057467669
F        -0.66801950731121   -5.64039739229339   -1.03458717587100
F         1.11287022477682   -5.70259480875731    0.09865068163064
C         3.44795845523424   -3.77371634807053    0.89020232154581
F         4.11962488317917   -3.51212688304191    2.00423856973889
F         4.29737293896067   -3.86554224383470   -0.12666073494525
F         2.87572308876830   -4.94051121485791    1.06408636750949
C         4.13922423274361    1.69393359150381   -2.63336346192049
F         5.03198284980226    0.71906360067861   -2.74194285001326
F         3.87597721204373    2.10669792336223   -3.83524250766995
F         4.67479659129690    2.73310551478607   -2.00495934935730
C         1.09427461650885    3.40005593855437   -3.75999514049082
F         1.45869331654840    4.55778226511583   -3.22538650049291
F         2.05131884224677    3.01531138119372   -4.55183497544307
F         0.07865053860756    3.57703011008153   -4.57187828268314
C        -2.35130480962502    3.79092724988662   -2.65377625548369
F        -3.64996488478682    3.53928744239232   -2.74423616130672
F        -1.90691008068678    3.89003766623269   -3.88144558169193
F        -2.16492552770535    4.95460296410037   -2.04234522676626
C        -1.08393829540176    3.40700697826361    3.75753692605674
F        -1.45291563903517    4.56588650067785    3.22920907563118
F        -2.07848580403622    3.01884750586318    4.51898236795803
F        -0.01590995177350    3.58840459892003    4.52750292884582
C        -4.34136468450648   -1.03984886699937   -2.64131502737942
F        -4.49029589752844   -2.35347736700756   -2.76351679056566
F        -4.35149165240580   -0.49569974501229   -3.83232084275835
F        -5.38834670847047   -0.53152050919160   -2.00820894342174
C        -1.49489190451526   -1.08600504665439   -4.85951096461508
F        -0.84883987965948   -0.51599544408110   -5.81432699742511
F        -2.70333541229575   -0.64232518930413   -5.10290819968802
F        -1.42949874313775   -2.39805940820397   -5.05117176825915
C         1.85266858621841   -0.01503466198115   -4.85933237056640
F         0.99235073213329    0.08044248422225   -5.81555058470669
F         2.61893038942859    1.00364142765344   -5.12360349642892
F         2.55520224049250   -1.12711296191897   -5.04745786865302
C        -1.10918182005570   -3.42108339981059    3.74999434052006
F        -1.48301487671944   -4.56884670363695    3.20645506501089
F        -0.07299150030497   -3.66457139208537    4.51407331949654
F        -2.09384789629693   -3.01754532696528    4.51510158515918
108
 energy: -324.388884765265 gnorm: 0.098675409643 xtb: 6.4.1 (a3dbbd7)
C        -1.27678963528762    0.00310197951380    3.44430162143432
C        -0.37917252048775   -1.16438453372746    3.32071205817031
C         1.04012094557190   -0.74653392722061    3.48102313975669
C         0.96313832527745    0.75183336865763    3.25715231827876
C        -0.32778490751277    1.14782951301822    3.26414806132421
C         2.47213813081196   -2.70291359708266    0.62398961180870
C         3.19335181363910   -1.37586022954976    0.59531332023633
C         2.93634517116185   -0.68324305024516    1.80232958096750
C         1.94922309418859   -1.42398276909363    2.50841134097595
C         1.55753016626169   -2.53324072095775    1.81315186941625