63
 energy: -142.084862870202 gnorm: 0.135706418184 xtb: 6.4.1 (a3dbbd7)
C        -1.30524132879597    0.00000000000538    3.57807329023422
C        -0.38198622120159   -1.16615737488772    3.28622995044209
C         0.97316446785684   -0.71953336628746    3.26852105894251
C         0.97316446785530    0.71953336630216    3.26852105894473
C        -0.38198622120459    1.16615737490379    3.28622995045274
C         2.33525790565848   -2.58178581715533    0.58265918378867
C         3.18402429064640   -1.41551052449968    0.58305164633927
C         2.94575551469093   -0.69331830539435    1.80727245276214
C         1.94633616722705   -1.41428833030776    2.55691587181014
C         1.57537284635923   -2.57710002453835    1.80571263196464
C         3.18402429064568    1.41551052450295    0.58305164633618
C         2.33525790565840    2.58178581715875    0.58265918378237
C         1.57537284635929    2.57710002454614    1.80571263195897
C         1.94633616722623    1.41428833031814    2.55691587180842
C         2.94575551468950    0.69331830540176    1.80727245276124
C        -0.36286725388684    3.43716117593932    0.57905462418204
C        -1.73307079475598    2.99275061625332    0.57524951534827
C        -1.97752320629156    2.27496221823572    1.79457083857807
C        -0.73661625909686    2.27496497778529    2.56523814188962
C         0.24797249911112    2.99276091828423    1.80557303834060
C        -3.36590164017822    0.71953732333088    0.57375248902312
C        -3.36590164017888   -0.71953732332215    0.57375248902510
C        -2.78105190250946   -1.16617827543313    1.79633080427055
C        -2.63331800734743    0.00000000000824    2.75326019131418
C        -2.78105190250706    1.16617827544612    1.79633080426590
C        -1.73307079475815   -2.99275061624643    0.57524951535621
C        -0.36286725388906   -3.43716117593443    0.57905462419038
C         0.24797249911082   -2.99276091827599    1.80557303834608
C        -0.73661625909661   -2.27496497777287    2.56523814188986
C        -1.97752320629363   -2.27496221822376    1.79457083858313
C        -0.24045690066217   -3.00743782548085   -1.83034246730529
C         0.75231661586805   -2.28840993805800   -2.58424128273324
C         1.97824017738855   -2.28845527885670   -1.82288383798471
C         1.74258918722144   -3.00745695556584   -0.59875134393160
C         0.36899288245124   -3.44813425118672   -0.59934302533638
C         2.79566620008723   -1.16591822783908   -1.82325695863853
C         2.41697359109874   -0.00000000000271   -2.58108531976838
C         2.79566620008779    1.16591822783556   -1.82325695864148
C         3.40959680691412    0.72110795434846   -0.59778286565664
C         3.40959680691433   -0.72110795434857   -0.59778286565546
C         1.97824017738961    2.28845527885345   -1.82288383799084
C         0.75231661586926    2.28840993805322   -2.58424128273948
C        -0.24045690066036    3.00743782547884   -1.83034246731341
C         0.36899288245285    3.44813425118749   -0.59934302534530
C         1.74258918722258    3.00745695556589   -0.59875134393955
C        -1.56217286029713    2.58178679356912   -1.83784975797872
C        -1.93879975252934    1.41553008402889   -2.59849355392507
C        -2.93052386427469    0.69331652856981   -1.84222173469045
C        -3.15943698990261    1.41427069975303   -0.61403881020582
C        -2.32163160591617    2.57707956787764   -0.61452432163280
C        -2.93052386427455   -0.69331652856949   -1.84222173468868
C        -1.93879975252999   -1.41553008403179   -2.59849355392122
C        -1.56217286029877   -2.58178679357009   -1.83784975797151
C        -2.32163160591823   -2.57707956787401   -0.61452432162573
C        -3.15943698990344   -1.41427069974849   -0.61403881020168
C        -0.98033776527170   -0.72109715720207   -3.32415755726590
C        -0.98033776527144    0.72109715719620   -3.32415755726739
C         0.39032106020777    1.16579648770428   -3.31706046827290
C         1.23757908177170   -0.00000000000348   -3.31355725238661
C         0.39032106020722   -1.16579648771087   -3.31706046826971
Cl       -1.60949318930206   -0.00000000015797    5.36443419001363
Cl       -4.09957109178614    0.00000000004209    3.81802953081684
Cl        2.38521637923473   -3.89550118790449    2.74489942099787
63
 energy: -142.108895929867 gnorm: 0.057861563040 xtb: 6.4.1 (a3dbbd7)
C        -1.30618422677794    0.00030239629656    3.57601660125382
C        -0.38437790063540   -1.16579303641913    3.28675369540295
C         0.97304022763101   -0.71157775236664    3.26293662587023
C         0.97048706528539    0.72468639370014    3.26347970403756
C        -0.38426779897402    1.16785856480449    3.28378561765835
C         2.33671936594672   -2.57249718387283    0.57027522799662
C         3.17648802614317   -1.41015087257562    0.57778319511502
C         2.94006998169808   -0.68791168948668    1.80588006469201
C         1.94854465494578   -1.39988957843637    2.55769093601110
C         1.62548558819734   -2.65721261897732    1.86233628159817
C         3.18246752345571    1.42019922462588    0.57948614671481
C         2.33507977339256    2.58679700685015    0.58014175916108
C         1.57445027456703    2.58172660946836    1.80271244651209
C         1.94537072085529    1.42009768844269    2.55352385453388
C         2.94023208575748    0.70103249068892    1.80318677236376
C        -0.36386098298567    3.43961535210982    0.57781188213374
C        -1.73370590990039    2.99409103380111    0.57424943397918
C        -1.97886452886821    2.27677738650506    1.79378585363416
C        -0.73839794549169    2.27694865716095    2.56353894863578
C         0.24661415900743    2.99515189799080    1.80367316689920
C        -3.36783489656817    0.72215768173427    0.57320701058621
C        -3.37070689550654   -0.71631150420652    0.57248761731240
C        -2.78778136909107   -1.16324988185550    1.79544692594573
C        -2.63549603375362    0.00178256428986    2.75280285480792
C        -2.78267821118703    1.16793770786235    1.79581719320811
C        -1.74511890481125   -2.99041036022447    0.57280962286482
C        -0.37113065926780   -3.42595268222452    0.57851462415517
C         0.22750427778429   -3.00683500680163    1.80858353443642
C        -0.74325343770702   -2.27117489639877    2.55402315197963
C        -1.98825143679383   -2.27319760909330    1.79140809532839
C        -0.24086577214596   -3.00457040871182   -1.82893743092778
C         0.75289328810787   -2.28559080494619   -2.58500063689728
C         1.98041629112829   -2.28486843488063   -1.82902295357438
C         1.73956785608294   -2.99435093953658   -0.60319223760696
C         0.36550616506727   -3.44607243392004   -0.60236495301322
C         2.79970023433032   -1.16200964772285   -1.82820182606413
C         2.41811236710926    0.00363571025444   -2.58387753619184
C         2.79660300549079    1.16982201144426   -1.82647112573997
C         3.40943852588615    0.72533507428397   -0.60151014001744
C         3.41103280331936   -0.71692819361739   -0.60401685034441
C         1.97786199409213    2.29173211385542   -1.82502960403559
C         0.75220684588343    2.29066572273519   -2.58565105143308
C        -0.24058617735703    3.00921732286697   -1.83164918287962
C         0.36841368716332    3.45039208532610   -0.60096171435470
C         1.74189161985614    3.01124258020988   -0.60118253130053
C        -1.56202494521496    2.58266475153448   -1.83893183156663
C        -1.93852502179487    1.41707628775912   -2.59937667550898
C        -2.93072156885143    0.69514455296495   -1.84268657023800
C        -3.16028545236589    1.41632777528531   -0.61488585798137
C        -2.32183847207613    2.57818796329311   -0.61531578306181
C        -2.93191622531030   -0.69105586990480   -1.84321825529609
C        -1.94009350014834   -1.41449377700764   -2.59878808737778
C        -1.56582460716490   -2.57945389290809   -1.83914597025678
C        -2.32925540866416   -2.57546578135641   -0.61687766455135
C        -3.16414007603603   -1.41132993103885   -0.61542119291544
C        -0.98020749644881   -0.71952556905689   -3.32507264647818
C        -0.98028654963454    0.72211561303601   -3.32520129266641
C         0.39051058636278    1.16750591036326   -3.31827489211393
C         1.23790560494916    0.00243461720879   -3.31477856038905
C         0.39023705807703   -1.16352827327318   -3.31771800658830
Cl       -1.60791114604130   -0.00012119241023    5.36350288256099
Cl       -4.10047409501271    0.00068601239030    3.81869707327222
Cl        2.46062063970529   -4.00532012581652    2.82083683618482
63
 energy: -142.114875422623 gnorm: 0.012778461421 xtb: 6.4.1 (a3dbbd7)
C        -1.30655234689941    0.00073781866025    3.57139638554000
C        -0.38632339810547   -1.16744926228702    3.28854646471831
C         0.97214153436690   -0.71193793456346    3.25008051055154
C         0.97005799977702    0.72445870355702    3.26064715019981
C        -0.38465682765074    1.16872175249973    3.28033334030159
C         2.33952466771591   -2.57553469648116    0.56823286797293
C         3.16163221322660   -1.41062981553061    0.57302271743086
C         2.92073933709312   -0.68755425037926    1.79976753979354
C         1.94857073676822   -1.39961608845445    2.55681751811632
C         1.67061093767026   -2.72653200700276    1.90947912457112
C         3.18100008050801    1.42368016907872    0.57980599152231
C         2.33446901222210    2.59132892050895    0.57898252701710
C         1.57425741943148    2.58659223667551    1.80188314633221
C         1.94577347921676    1.42344552741437    2.55222441807152
C         2.93921210518976    0.70492085637677    1.80443858092945
C        -0.36523474959558    3.44240231670603    0.57571345588614
C        -1.73512752963620    2.99650795737771    0.57175477697992
C        -1.98010390478572    2.27965158481894    1.79161086072691
C        -0.73941490557307    2.27895822147199    2.56108195266747
C         0.24563056327449    2.99825250252414    1.80145130291427
C        -3.37069796636358    0.72539366640299    0.57147843000739
C        -3.37492886145646   -0.71306356779603    0.57098917248813
C        -2.78886065970954   -1.15875515017699    1.79322975430948
C        -2.63746616921220    0.00548653737005    2.75079475681554
C        -2.78487728971997    1.17139478677320    1.79378719975807
C        -1.74469300644456   -2.98444335719914    0.57124336144481
C        -0.36738695034694   -3.41683442519279    0.58229250790030
C         0.22379472125800   -3.00754520036384    1.80691524895198
C        -0.73858300331094   -2.26920226702749    2.54553358958747
C        -1.98681940824461   -2.26751952311504    1.78769033002611
C        -0.24083479147670   -3.00190148464355   -1.82477038172480
C         0.75173898811115   -2.28206718362410   -2.58356623077848
C         1.97667865092266   -2.27917404591894   -1.82575655901369
C         1.74003201414043   -2.99087261827560   -0.59980176195560
C         0.36514071413634   -3.44906766867839   -0.60392300775446
C         2.79776096418851   -1.15721902763083   -1.82933586619980
C         2.41810769555976    0.00775701367622   -2.58697817032998
C         2.79569113198571    1.17381603402264   -1.82795476684338
C         3.40678192850353    0.72857361230609   -0.60216665313377
C         3.40567871423403   -0.71428762610793   -0.60702879124339
C         1.97638534334384    2.29578703170061   -1.82703616100272
C         0.75100244693370    2.29363085776268   -2.58753772916894
C        -0.24210562354082    3.01203474953250   -1.83395468982048
C         0.36700834015875    3.45355708942150   -0.60339765088616
C         1.74037690345204    3.01529109560464   -0.60305268421400
C        -1.56324740872452    2.58441216549087   -1.84122525534977
C        -1.93971435559118    1.41910597835217   -2.60086153328108
C        -2.93243649581607    0.69713264048516   -1.84418264410875
C        -3.16235757951205    1.41897883032593   -0.61695313660700
C        -2.32341267604754    2.58030743851151   -0.61742748074966
C        -2.93412838773686   -0.68878071461337   -1.84483646968011
C        -1.94135921343271   -1.41323089227622   -2.59925276664977
C        -1.56830331842440   -2.57698582966855   -1.84031659657937
C        -2.33102608567122   -2.57198608195392   -0.61773780957471
C        -3.16775933843754   -1.40881708634017   -0.61696356899665
C        -0.98146918934949   -0.71766384724809   -3.32694993184341
C        -0.98134851095283    0.72343620016476   -3.32579575037895
C         0.38945469066493    1.16961473032901   -3.31952311801486
C         1.23720263775041    0.00527355819541   -3.31674026845424
C         0.38902915466621   -1.16123728061538   -3.31808792843101
Cl       -1.60750195171609   -0.00217541042641    5.36003079010933
Cl       -4.10036541549406    0.00316555425159    3.81892785093817
Cl        2.51221683720021   -4.08722498266264    2.87735431366420
63
 energy: -142.115191063602 gnorm: 0.007851455738 xtb: 6.4.1 (a3dbbd7)
C        -1.30678776037545   -0.00022338614678    3.57063820606518
C        -0.38569293339138   -1.16912260439781    3.29209241915097
C         0.97445946929488   -0.71709657233866    3.25219315590124
C         0.96810430490472    0.72013939181989    3.25462660756835
C        -0.38568029855556    1.16667938140079    3.27613675668346
C         2.34435393555956   -2.58383184165735    0.57295281686395
C         3.15866378281249   -1.41374748036847    0.57410386798705
C         2.91653736665883   -0.69072082264217    1.80054086338496
C         1.95328757648294   -1.40777295875729    2.56335808328620
C         1.68341670585013   -2.74269923652950    1.92116102064706
C         3.17775258810415    1.42324302611151    0.57863968770126
C         2.33266899462110    2.59207988720997    0.57746906343492
C         1.57244837697079    2.58714622432440    1.80020171180861
C         1.94263767890874    1.42151496906795    2.54794908688912
C         2.93601828757306    0.70286347167082    1.80253614632792
C        -0.36658099587716    3.44404765572380    0.57441370465960
C        -1.73661839120557    2.99834956686217    0.57052286835356
C        -1.98163615813466    2.28119068824800    1.79041798793533
C        -0.74065470008753    2.27847770234341    2.55908977244375
C         0.24403068627293    2.99888356254487    1.79978313334921
C        -3.37231534209186    0.72723290348005    0.57061551762476
C        -3.37520036441087   -0.71138354009623    0.57054091799604
C        -2.78690600667934   -1.15667348721079    1.79206563318212
C        -2.63775268342192    0.00695918900047    2.74992342171933
C        -2.78643641566456    1.17316150213152    1.79292965204582
C        -1.74051053702608   -2.98054209498597    0.57083905528516
C        -0.36260955683248   -3.41575354633495    0.58466345144285
C         0.22899412034744   -3.00647548765253    1.80701415073202
C        -0.73342445078677   -2.27047902206158    2.54577626543806
C        -1.98204600742297   -2.26394279382091    1.78636720092232
C        -0.24065372747604   -3.00064828170847   -1.82294522172501
C         0.75111656229792   -2.27951139074318   -2.58118836125519
C         1.97465279572085   -2.27694672658042   -1.82154175535673
C         1.74227985872264   -2.99404466282036   -0.59655408821191
C         0.36613709417999   -3.45176667169032   -0.60463801702973
C         2.79577003181954   -1.15567634827698   -1.82802820336271
C         2.41729994804680    0.00917181422051   -2.58766005542750
C         2.79438244520960    1.17526024119532   -1.82864665212311
C         3.40385635963556    0.72870991697550   -0.60254369327994
C         3.40218199355620   -0.71428053955229   -0.60544721960011
C         1.97548398646955    2.29789895252783   -1.82853382324534
C         0.75009737463770    2.29605933679255   -2.58913194974217
C        -0.24326004564981    3.01442715694479   -1.83552592517105
C         0.36589756647571    3.45576006517092   -0.60479899283147
C         1.73923263024325    3.01742490764963   -0.60452955599951
C        -1.56438898050795    2.58644193768480   -1.84255908315211
C        -1.94082248799215    1.42123043602308   -2.60211974030067
C        -2.93350808686408    0.69893407615856   -1.84517814133666
C        -3.16385891594074    1.42091891250256   -0.61800030589731
C        -2.32490355495664    2.58233936140974   -0.61866110297007
C        -2.93485960398408   -0.68699661278107   -1.84556618016846
C        -1.94135433665510   -1.41146490602965   -2.59930646893343
C        -1.56823347837503   -2.57497777567648   -1.84058504285643
C        -2.32937964419617   -2.56915088404792   -0.61745620703460
C        -3.16777841678864   -1.40706081617063   -0.61737949825438
C        -0.98194581888974   -0.71567714106188   -3.32745691267725
C        -0.98222756967194    0.72538450043537   -3.32676184387772
C         0.38862588317533    1.17160306580447   -3.32065313353702
C         1.23639950430483    0.00713511905431   -3.31722432031581
C         0.38845374674361   -1.15949649559085   -3.31732500562956
Cl       -1.60456675989431    0.00175737915897    5.36045988542240
Cl       -4.10156650942929    0.00428801643057    3.81653918917496
Cl        2.51752352832685   -4.10405137825207    2.88580777535072
63
 energy: -142.115284646956 gnorm: 0.004603665849 xtb: 6.4.1 (a3dbbd7)
C        -1.30692799717588    0.00030620146657    3.56974895579694
C        -0.38602996388874   -1.16942270742431    3.29492395704611
C         0.97544857101033   -0.71974944465186    3.25400931355799
C         0.96736541459344    0.71781383974765    3.25120119105934
C        -0.38564315286323    1.16577892270905    3.27364847757514
C         2.34660336691871   -2.58856925545580    0.57567789665745
C         3.15657648981506   -1.41509168832248    0.57447409943384
C         2.91377445978739   -0.69221395766098    1.80086547488084
C         1.95558831646702   -1.41268972368113    2.56727136713944
C         1.68939992555443   -2.74976458469149    1.92626794580323
C         3.17604317509657    1.42297278334409    0.57790018633811
C         2.33207800294898    2.59259830974524    0.57691366230838
C         1.57176419192957    2.58756811864873    1.79946845909558
C         1.94107115415138    1.42060940793157    2.54577627808218
C         2.93384758312506    0.70157647414444    1.80097380342640
C        -0.36707384617656    3.44494564092783    0.57400266385774
C        -1.73717825786919    2.99917747799370    0.57027900563089
C        -1.98215387944719    2.28182424739078    1.79022416321754
C        -0.74091970026009    2.27851588725695    2.55846845700227
C         0.24347572238450    2.99924145686619    1.79904726504248
C        -3.37309192847534    0.72770228881836    0.57074352836142
C        -3.37506655308107   -0.71108254614877    0.57050926801992
C        -2.78596896210853   -1.15630461787385    1.79157843691050
C        -2.63726299456107    0.00682500898460    2.74942134833465
C        -2.78706005598480    1.17380098239453    1.79306720503211
C        -1.73762391110182   -2.97811278276504    0.57026517898983
C        -0.35934716823939   -3.41511252029878    0.58551892711328
C         0.23264958745403   -3.00399853891034    1.80597466859031
C        -0.73017028763141   -2.27080761233567    2.54597534225417
C        -1.97883765696002   -2.26180265281599    1.78520869825409
C        -0.24054268813711   -3.00061812787207   -1.82271643352370
C         0.75088458050377   -2.27820149734277   -2.57991115746593
C         1.97374407289650   -2.27570562539687   -1.81929277112189
C         1.74333126888456   -2.99577997849986   -0.59522211569533
C         0.36661645256091   -3.45383830062634   -0.60613372031867
C         2.79482308295299   -1.15494859303527   -1.82752894301848
C         2.41700271279262    0.00987639982694   -2.58820083567909
C         2.79394076847444    1.17592361994053   -1.82920317764908
C         3.40226719795462    0.72879891813358   -0.60278798641155
C         3.39992197382592   -0.71402080677812   -0.60441126422382
C         1.97538491240001    2.29894270265169   -1.82930349696590
C         0.74987463286594    2.29709879957668   -2.58980833221751
C        -0.24360364434146    3.01527896253314   -1.83597034854232
C         0.36564783618711    3.45679295314549   -0.60523508277311
C         1.73904969742838    3.01858147582031   -0.60511924757729
C        -1.56466552959529    2.58691844678443   -1.84273678804393
C        -1.94112080709639    1.42182348551440   -2.60234776556636
C        -2.93380972073500    0.69929700740913   -1.84527570071298
C        -3.16438338211825    1.42134539223129   -0.61800645833708
C        -2.32542342714049    2.58288534008041   -0.61880922884002
C        -2.93507354956974   -0.68661842953723   -1.84588242098831
C        -1.94121073379218   -1.41097554578792   -2.59953909744355
C        -1.56804973678290   -2.57437237330710   -1.84117983926976
C        -2.32821383586640   -2.56802167458597   -0.61748452428325
C        -3.16744405522229   -1.40663477229132   -0.61747295834741
C        -0.98205854111079   -0.71500045977495   -3.32782299276077
C        -0.98249704734381    0.72607674720348   -3.32714887284405
C         0.38833650161267    1.17245779629968   -3.32123246967804
C         1.23604365451963    0.00795173565395   -3.31743907048925
C         0.38832046220987   -1.15886483654892   -3.31708248064694
Cl       -1.61069489095681    0.00683545578027    5.35891481080683
Cl       -4.09741472416499    0.00371471152182    3.82066882069168
Cl        2.51429150518360   -4.10903453196079    2.88573930059998
63
 energy: -142.115306239429 gnorm: 0.003162806321 xtb: 6.4.1 (a3dbbd7)
C        -1.30728048740381    0.00082390270024    3.57160004314172
C        -0.38667126650185   -1.16886090578275    3.29686227931557
C         0.97570263577548   -0.72066458199143    3.25464503488803
C         0.96730044502845    0.71668483589285    3.24965190057040
C        -0.38543605289329    1.16475436351260    3.27233210385843
C         2.34707486719130   -2.59033360699306    0.57674515978304
C         3.15515850233015   -1.41530614136154    0.57432966031615
C         2.91208846368158   -0.69255233990168    1.80077221081156
C         1.95623963445583   -1.41471934427103    2.56871922734103
C         1.69196555087436   -2.75288711163040    1.92848576969831
C         3.17542444431515    1.42293159790589    0.57766806457146
C         2.33196030767723    2.59289629859991    0.57704713105651
C         1.57151730355274    2.58776237967185    1.79947271183960
C         1.94057243787058    1.42033985448541    2.54512246520204
C         2.93290057316463    0.70106417450719    1.80015348833707
C        -0.36733262439999    3.44503153249504    0.57425555351158
C        -1.73740918832107    2.99907306827046    0.57063579379513
C        -1.98242903249082    2.28164302098112    1.79066460731187
C        -0.74108774529318    2.27827454888344    2.55876587174180
C         0.24317097105795    2.99907485976690    1.79909207195862
C        -3.37322474228953    0.72758785687082    0.57103558347101
C        -3.37464852682827   -0.71113357698893    0.57060713543595
C        -2.78538170567503   -1.15585990710265    1.79162883002575
C        -2.63857762057438    0.00647807727458    2.75068257870078
C        -2.78725783717345    1.17353065153128    1.79355373127583
C        -1.73620273032096   -2.97663953383794    0.57013439271941
C        -0.35764836260093   -3.41428133457822    0.58584960020223
C         0.23450381680748   -3.00103969356398    1.80470788000562
C        -0.72853414128471   -2.27021581667702    2.54604526612033
C        -1.97717994177821   -2.26031956789730    1.78471104481649
C        -0.24047140386809   -3.00109162050486   -1.82293218594520
C         0.75086685958481   -2.27780691380524   -2.57936289096079
C         1.97347799156243   -2.27513871964995   -1.81830764936290
C         1.74356047978335   -2.99625013442405   -0.59485959687148
C         0.36667222893914   -3.45502413234170   -0.60729863758934
C         2.79456347878394   -1.15469177781016   -1.82747935465245
C         2.41701682360376    0.01016280651337   -2.58851829657969
C         2.79390745834847    1.17615581109388   -1.82947732946212
C         3.40165329627658    0.72890074252948   -0.60284689186842
C         3.39885297359214   -0.71369289153404   -0.60394034453146
C         1.97546980847527    2.29928703097396   -1.82942100320389
C         0.74986182783280    2.29727286113802   -2.58977644487537
C        -0.24366187902018    3.01527428412165   -1.83575101895986
C         0.36557958786918    3.45690667219403   -0.60497900552966
C         1.73906782536248    3.01898140274838   -0.60503914915307
C        -1.56461517746914    2.58665080841960   -1.84241169838551
C        -1.94105152582269    1.42167369033443   -2.60214553536594
C        -2.93377206466367    0.69902364908741   -1.84509378895266
C        -3.16439547805477    1.42108179441754   -0.61776676650329
C        -2.32548069708813    2.58262719479192   -0.61848137636299
C        -2.93505771944059   -0.68684536501141   -1.84595361344361
C        -1.94105961959833   -1.41116592063859   -2.59967257824393
C        -1.56792145105800   -2.57445749435023   -1.84156815151726
C        -2.32761378609722   -2.56777732607654   -0.61739845381686
C        -3.16702739879696   -1.40669735119761   -0.61734514503718
C        -0.98200524899944   -0.71505058102338   -3.32796682016456
C        -0.98248686449807    0.72605469269181   -3.32715304867353
C         0.38828599463916    1.17259591548267   -3.32129259050648
C         1.23594596244134    0.00813224700395   -3.31739702709483
C         0.38839375986736   -1.15889538272463   -3.31705560819779
Cl       -1.59824285598372    0.01149474238181    5.36360882293857
Cl       -4.10683429232826    0.00232709052739    3.81100416196481
Cl        2.50784780256341   -4.10865657403501    2.88252440056070
63
 energy: -142.115337248015 gnorm: 0.001910380204 xtb: 6.4.1 (a3dbbd7)
C        -1.30699195683905    0.00076532819871    3.57082099400749
C        -0.38676928718883   -1.16898337270093    3.29683052031392
C         0.97538761070553   -0.71996454717012    3.25421578698212
C         0.96767888515534    0.71723538696974    3.25068436474727
C        -0.38521198542782    1.16505250728271    3.27283297619476
C         2.34627666522442   -2.58888221380730    0.57585662248723
C         3.15534398236455   -1.41468386558056    0.57400508531197
C         2.91238782256288   -0.69195831903886    1.80054208691224
C         1.95545213871048   -1.41341471567818    2.56758069745728
C         1.69090532614076   -2.75183166581912    1.92752788599028
C         3.17597501134534    1.42304314854536    0.57792340121898
C         2.33226569463099    2.59282753328659    0.57735297471084
C         1.57184036269806    2.58775242094350    1.79980806719459
C         1.94111772993176    1.42071966354993    2.54594053283517
C         2.93349071401803    0.70144942816507    1.80052047212544
C        -0.36711175413612    3.44476211760067    0.57437836229265
C        -1.73718146592317    2.99880883937308    0.57068950399165
C        -1.98224233026383    2.28154823116781    1.79073823693777
C        -0.74089979517975    2.27845065765596    2.55904714142411
C         0.24344273365056    2.99902824207067    1.79929093070290
C        -3.37310382648622    0.72737520635203    0.57120351803560
C        -3.37463645945750   -0.71138912798340    0.57075994975650
C        -2.78557827745072   -1.15626440844450    1.79185435410789
C        -2.63763700840862    0.00640271726563    2.75032233376165
C        -2.78726599838495    1.17362128287608    1.79370273140926
C        -1.73674747109476   -2.97728656485258    0.57011429767754
C        -0.35811021376203   -3.41415398776168    0.58537710959591
C         0.23395071309114   -3.00048555052715    1.80409613052844
C        -0.72897359625487   -2.26994216472319    2.54563332796596
C        -1.97769575779318   -2.26088064214749    1.78473540978275
C        -0.24036565679887   -3.00145682814921   -1.82332713522995
C         0.75109007843010   -2.27827080746966   -2.57983256187187
C         1.97389636783762   -2.27541094794898   -1.81896314213173
C         1.74331052333338   -2.99559270164800   -0.59543783758321
C         0.36663250378540   -3.45480930771504   -0.60746694038783
C         2.79500178825224   -1.15488350289740   -1.82778230544033
C         2.41726730873093    0.00999245886707   -2.58850134480094
C         2.79418866247642    1.17595590305739   -1.82940913600967
C         3.40215655133332    0.72892913282907   -0.60277308939586
C         3.39945752129900   -0.71360366327270   -0.60423019163182
C         1.97562824550774    2.29894451621143   -1.82918665493577
C         0.75002025623882    2.29681706612636   -2.58950114618387
C        -0.24348470991728    3.01483014155061   -1.83555053975643
C         0.36577529863416    3.45649448788885   -0.60481944789331
C         1.73925169966198    3.01862426733958   -0.60479621077640
C        -1.56442213969833    2.58624173628305   -1.84225895744770
C        -1.94084638155482    1.42123739424154   -2.60192918052122
C        -2.93357785029324    0.69865315594732   -1.84489152069335
C        -3.16419913658868    1.42074883088367   -0.61763283265287
C        -2.32525772995478    2.58225289602409   -0.61837630385692
C        -2.93490875318159   -0.68719421283535   -1.84577403640387
C        -1.94100982687493   -1.41154568986453   -2.59962614487291
C        -1.56787679955737   -2.57485965625555   -1.84161388282043
C        -2.32784513064594   -2.56833269450766   -0.61746170056077
C        -3.16698828398013   -1.40701735980910   -0.61718284166804
C        -0.98188276015259   -0.71544755320805   -3.32789347997844
C        -0.98232113032669    0.72565599356506   -3.32697856992287
C         0.38843873254926    1.17220490930966   -3.32108490445153
C         1.23613370577978    0.00781759812990   -3.31731111476500
C         0.38856085510108   -1.15925216321219   -3.31725148380828
Cl       -1.60669713836989    0.01219783756667    5.36124088699397
Cl       -4.10057641948269    0.00155115246392    3.81768004763438