63
 energy: -142.070763528091 gnorm: 0.149149022743 xtb: 6.4.1 (a3dbbd7)
C        -1.32333194775417    0.00617886347970    3.59125188963251
C        -0.38909456310608   -1.27772716531095    3.58793274117145
C         0.98734837171535   -0.72675165446744    3.28582848483634
C         0.97037352147027    0.69420630050098    3.25749094477592
C        -0.37633960723915    1.14742685553706    3.29074190055216
C         2.33092254703306   -2.58746567485154    0.56610397604514
C         3.16875994483946   -1.41579758165486    0.56774606192583
C         2.91978889080344   -0.69314490348597    1.79074016083681
C         1.93018806170321   -1.40549148670748    2.54814074589443
C         1.57476788296703   -2.59634073810083    1.79100274817011
C         3.18328087896891    1.41909085132624    0.57258499213333
C         2.33432229320876    2.58580968143883    0.57559918777772
C         1.57332139543398    2.57095369604789    1.79851755002390
C         1.94352282881158    1.40414426944103    2.54285112768194
C         2.93804115459266    0.69543633516321    1.79366637265872
C        -0.36752716666001    3.44413435035873    0.58029879258012
C        -1.74013210357057    3.00741588983283    0.58054459941955
C        -1.97818665379860    2.28654468588757    1.80361199533287
C        -0.73393250395930    2.25581684802015    2.55761528373596
C         0.24647420110131    2.98080949443068    1.80023381740862
C        -3.39591089216029    0.72883802558845    0.57533866561121
C        -3.37932885665645   -0.70504006359254    0.57786353554246
C        -2.74934612856665   -1.12865052488571    1.82052481704193
C        -2.40026274086307   -0.01382700939334    2.55826017594831
C        -2.77435746218519    1.16021035149421    1.80187148511327
C        -1.70577977915925   -3.00504292266898    0.57191390059864
C        -0.34657433486683   -3.46193150719564    0.56452064530943
C         0.25810980605866   -3.00738238851431    1.79111395103090
C        -0.74203335365356   -2.29289841924391    2.55243835495534
C        -1.91196172287597   -2.27950749485726    1.81757326885181
C        -0.23558165862281   -3.01371296632646   -1.83961821271520
C         0.75175047781152   -2.28700579367404   -2.59867644532734
C         1.98089777627659   -2.28868303835222   -1.84308617931945
C         1.74918768154887   -3.01946296828987   -0.62050040464920
C         0.38088379041600   -3.46658963937948   -0.62079308111870
C         2.79204993046375   -1.16413556659148   -1.83875967224219
C         2.41002754086118    0.00666527739579   -2.59106683151125
C         2.78807241943814    1.16926264052202   -1.83130610074559
C         3.40298548527550    0.72369088805355   -0.60835037131266
C         3.40110069057525   -0.71955382898331   -0.60923004493565
C         1.96912615256614    2.29475463280888   -1.82840259178522
C         0.74474441569639    2.29528025280401   -2.58515694980539
C        -0.24988429155059    3.01642431380723   -1.82795956514323
C         0.36353023978106    3.45499162487799   -0.59844520421847
C         1.73735095077191    3.01278425815446   -0.60243935985793
C        -1.56944867307335    2.59059487249377   -1.83048045584010
C        -1.94787757007795    1.42311330884846   -2.58910001301826
C        -2.94122296022124    0.70465889669871   -1.83002690890673
C        -3.17947337159538    1.42642572884929   -0.60816005298080
C        -2.33307692209202    2.59081264516620   -0.60600270171083
C        -2.93172079240255   -0.68656028280689   -1.82266620418654
C        -1.94059925011627   -1.40887980593779   -2.58138532694875
C        -1.55636984787224   -2.57670213587000   -1.82754179967090
C        -2.29848528094837   -2.57416283302738   -0.59738768824741
C        -3.15456863482430   -1.39758782868201   -0.59434922362650
C        -0.98936986995949   -0.71482485845558   -3.31408037280858
C        -0.99159024528376    0.72723605185279   -3.31429029098428
C         0.38014149579772    1.17201579903766   -3.31523274930469
C         1.22728121177112    0.00778684511203   -3.31823795360647
C         0.38205649969615   -1.16057927312445   -3.31917058806611
Cl       -2.09995733548554    0.29360223981566    5.20530702406437
Cl       -0.35034641589922   -2.11046483688082    5.19906768498811
Cl       -4.18268003095413   -1.73884417053670    2.74210912630172
63
 energy: -142.096988527551 gnorm: 0.070886361529 xtb: 6.4.1 (a3dbbd7)
C        -1.31626164556913    0.01589992618011    3.58882562033068
C        -0.38933518557072   -1.27120076788956    3.58318205945753
C         0.98832280371848   -0.72294939991147    3.28202382210490
C         0.97512818421424    0.69838819471419    3.25552958563534
C        -0.36932763065074    1.15538342085198    3.29068298462465
C         2.33154748775365   -2.58653358182718    0.56591278406606
C         3.16919447526870   -1.41408127772731    0.56830565839982
C         2.92251238174299   -0.69237192438370    1.79098737203101
C         1.93087151531538   -1.40424906116401    2.54681026888699
C         1.57714321821590   -2.59772015277116    1.79030300103293
C         3.18524953601140    1.42000342950748    0.57188974046479
C         2.33795835481118    2.58788683010615    0.57457179640760
C         1.57868458294194    2.57510764755587    1.79793757690806
C         1.94919454187408    1.40772292349479    2.54257009692635
C         2.94083521781178    0.69687193634657    1.79356905251517
C        -0.36127857800607    3.44851840395287    0.58117518513077
C        -1.73459696347276    3.00811961329076    0.58518102477608
C        -1.96835375781349    2.29867199602020    1.80937350603523
C        -0.72819590809604    2.26660547006931    2.55896578525668
C         0.25393069149938    2.98882905468237    1.79968806907992
C        -3.37898657499734    0.71898716972102    0.57152315085252
C        -3.37496498261298   -0.70728010449356    0.56174838602820
C        -2.84089487662851   -1.17269744821773    1.86652867271756
C        -2.39763685416296    0.00626061353963    2.56701014397205
C        -2.75564043872033    1.15159729531561    1.80437978501613
C        -1.69744085513339   -3.00517491507679    0.56347215471213
C        -0.33987470336684   -3.46381404597793    0.55996854445924
C         0.26242698837103   -3.01105167667529    1.78871456512870
C        -0.73738764404414   -2.27657643450105    2.53474349556540
C        -1.90372521495688   -2.28514821588906    1.80829422022984
C        -0.23255395350439   -3.01561867343394   -1.84322428097246
C         0.75400892085600   -2.28715220306164   -2.60055973398145
C         1.98275207046457   -2.28855337055762   -1.84403808649819
C         1.75170641556296   -3.01930346507838   -0.62265235336597
C         0.38544993441096   -3.46966511277184   -0.62526702307072
C         2.79288437113213   -1.16236538483393   -1.83854594036308
C         2.41065365851560    0.00764746064370   -2.59090559930792
C         2.78891824446286    1.17075079330277   -1.83162264180385
C         3.40403216774814    0.72471921827263   -0.60874806804438
C         3.40175553788374   -0.71836912464443   -0.60941262794151
C         1.97075586049054    2.29583578805101   -1.82869703198674
C         0.74468070029329    2.29663951388099   -2.58407892063913
C        -0.24761956482444    3.01725399283441   -1.82735034677891
C         0.36720321640525    3.45701185745645   -0.59882489411827
C         1.74051312198801    3.01470674469380   -0.60320964226005
C        -1.56934737098570    2.59055152191745   -1.82789660554360
C        -1.94732497117435    1.42273318422212   -2.58819269212979
C        -2.94229205312167    0.70369908716271   -1.83392837904776
C        -3.17359635417230    1.42221536518674   -0.61064761303324
C        -2.32921403899530    2.58960379911702   -0.60496370134118
C        -2.93334035421398   -0.68883364048126   -1.83143898766969
C        -1.93938631708015   -1.41064936222540   -2.58610012721909
C        -1.55383569965083   -2.57895576726031   -1.83292083907441
C        -2.29565117232876   -2.57823116323119   -0.60456308550867
C        -3.14963919158320   -1.40008156273925   -0.60572407535249
C        -0.98795260484957   -0.71484629049657   -3.31582366857518
C        -0.99094376988256    0.72747241524651   -3.31404412486750
C         0.38015267662572    1.17235799346982   -3.31492393418798
C         1.22768015810709    0.00894874927027   -3.31807018838340
C         0.38334560918212   -1.16029443491838   -3.31992250134731
Cl       -2.09483514211778    0.30566440315698    5.20655987596523
Cl       -0.34881424719878   -2.11201031020645    5.19050610123709
Cl       -4.30518845479241   -1.78451952779109    2.81386629181580
63
 energy: -142.105745629724 gnorm: 0.018968153891 xtb: 6.4.1 (a3dbbd7)
C        -1.31209914825252    0.01843776428080    3.57630331995224
C        -0.38724256662408   -1.26253019253313    3.57713817562016
C         0.99278202707260   -0.71705205505802    3.27932356420889
C         0.98145058443968    0.70407586259871    3.25418260578032
C        -0.36317938854012    1.15854615946007    3.28975618809327
C         2.33344781823051   -2.58387148203634    0.56509607795171
C         3.17148959817528   -1.41094612515224    0.56786022648057
C         2.92754532987052   -0.68906812999886    1.79025668846210
C         1.93487486997086   -1.39926251593488    2.54629145624205
C         1.57515005396805   -2.58907754148806    1.78554737259671
C         3.18992290081500    1.42282487795428    0.57018683810904
C         2.34392619212125    2.59182914818700    0.57305975019638
C         1.58638849632139    2.58127847683089    1.79749328927817
C         1.95724494049094    1.41326552446786    2.54253585118281
C         2.94615617055253    0.70091253596461    1.79290118956038
C        -0.35362347254311    3.45203739330567    0.58168474879068
C        -1.72665463532615    3.00410735668169    0.58959796560191
C        -1.95546773384087    2.30040237202696    1.81154962404234
C        -0.72185857409785    2.27276665638257    2.55896917787035
C         0.26274269548684    2.99654492801374    1.79971485110553
C        -3.36385710475546    0.70240265133716    0.56871417939758
C        -3.38519087420887   -0.71536867583332    0.55818144740159
C        -2.93836317589457   -1.21555675513429    1.91284089893442
C        -2.39627701391306    0.01200913792962    2.56334121142928
C        -2.73073510540526    1.12813305408798    1.80378686066040
C        -1.69878342287966   -2.99889369148359    0.56092463890035
C        -0.34055163187710   -3.45633768785619    0.55734859537246
C         0.25955053404441   -2.99852407753657    1.78262795663610
C        -0.74523838986803   -2.25298771048373    2.51918413622262
C        -1.90611671738354   -2.27517657476923    1.80074793602943
C        -0.23066763854148   -3.01649242214978   -1.84589376264282
C         0.75611821993184   -2.28682359725535   -2.60203119773966
C         1.98487388409304   -2.28752875592701   -1.84501478687373
C         1.75350530347632   -3.01741615220258   -0.62436335971739
C         0.38699712567182   -3.46787521471699   -0.62727889372876
C         2.79436962970078   -1.15991429507861   -1.83875249684701
C         2.41276376733524    0.00903960551112   -2.59148897316492
C         2.79155153468313    1.17284945776049   -1.83287783236656
C         3.40729905699462    0.72693204690459   -0.60999882254761
C         3.40403498214544   -0.71614208817673   -0.61059008305804
C         1.97460081943135    2.29770779608708   -1.82992152926913
C         0.74659192464440    2.29814959451492   -2.58362164102723
C        -0.24267654543975    3.01837381897229   -1.82731706729172
C         0.37275016992695    3.46002046671832   -0.59983960500497
C         1.74583289833549    3.01804079804855   -0.60476842492463
C        -1.56612995983269    2.58897703291001   -1.82417227442619
C        -1.94492298867822    1.42164435575761   -2.58711743558746
C        -2.93796514027372    0.70070541214076   -1.83293789163054
C        -3.16435068395023    1.41360454459255   -0.60944885235787
C        -2.32143798350200    2.58517185148864   -0.60334701849080
C        -2.93010706689137   -0.69238796975408   -1.82968394951139
C        -1.93746157623255   -1.41259147555652   -2.58744233707658
C        -1.55313044941792   -2.58150146906653   -1.83484156845476
C        -2.29953290103708   -2.58396540845203   -0.60843320919017
C        -3.15513982428172   -1.40544808115068   -0.60663922072684
C        -0.98602349068228   -0.71539658343473   -3.31654473042778
C        -0.98887501128169    0.72741679011342   -3.31399832281077
C         0.38179205794034    1.17261698478110   -3.31463388555810
C         1.22928587791976    0.01017532848105   -3.31812328403527
C         0.38535621238394   -1.15989898139147   -3.32097724523080
Cl       -2.09145180356707    0.30395656370160    5.20088291232241
Cl       -0.35485399483026   -2.11463728147101    5.17598979126498
Cl       -4.40637409292341   -1.82991594391433    2.87658283937877
63
 energy: -142.106440906618 gnorm: 0.011926597672 xtb: 6.4.1 (a3dbbd7)
C        -1.31388804654075    0.01976867251737    3.57831899007402
C        -0.38842875363610   -1.25843199624654    3.57455368338206
C         0.99286842877203   -0.71313235557333    3.27772995129759
C         0.98323037887129    0.70770791660225    3.25455821657033
C        -0.36237534627296    1.15921723360451    3.29017682549571
C         2.33308319898675   -2.58048097778653    0.56448164610310
C         3.17298772653164   -1.40858577216176    0.56752876010708
C         2.92992518909769   -0.68603350710455    1.78976679423281
C         1.93522741309482   -1.39444839951210    2.54480635313405
C         1.57177697197508   -2.58140688833049    1.78220345497328
C         3.19388030736003    1.42518460473452    0.56936807137176
C         2.34868989287922    2.59491603514634    0.57228411630488
C         1.59162889892799    2.58526690629843    1.79760654428895
C         1.96104292345505    1.41659476644529    2.54310959793010
C         2.94949966859749    0.70409193712819    1.79283202216469
C        -0.34878193734010    3.45315173027705    0.58155685609615
C        -1.72062155932716    2.99954686276560    0.59009160355760
C        -1.94913353256644    2.29586525171343    1.80992964405122
C        -0.71824426917078    2.27341976736394    2.55772020098571
C         0.26789133133892    3.00001473948049    1.80014211028134
C        -3.36191553367707    0.69392302590809    0.56942279164558
C        -3.40032476621729   -0.72354590784755    0.56402612815553
C        -2.96784809918517   -1.22764970557169    1.92610433476123
C        -2.40264449274550    0.00653863485216    2.56788544148480
C        -2.72286596425320    1.11729018850330    1.80354397901374
C        -1.70490545132318   -2.99559619403231    0.56119510301689
C        -0.34437026810887   -3.44862996841996    0.55589557574430
C         0.25508443622690   -2.98612760495637    1.77730056113031
C        -0.75332704481808   -2.24280835619214    2.51417098406620
C        -1.91542576564883   -2.26835335367022    1.80005908041063
C        -0.23125607668967   -3.01634508052393   -1.84723897639196
C         0.75644294722561   -2.28666683450191   -2.60281091846279
C         1.98532534830599   -2.28662497201041   -1.84562907037189
C         1.75255399495249   -3.01474312354785   -0.62464136494229
C         0.38567806606786   -3.46443552075427   -0.62764423627053
C         2.79538545511401   -1.15896123828098   -1.83904263337508
C         2.41460761489099    0.00959227891053   -2.59212386977769
C         2.79428040540216    1.17382464996446   -1.83396491969731
C         3.41027198484234    0.72848670333040   -0.61078316931007
C         3.40590076993468   -0.71472437120836   -0.61130180675528
C         1.97806162763498    2.29893745606233   -1.83112581835380
C         0.74916785384698    2.29853982266193   -2.58406195251728
C        -0.23908566656078    3.01844252098764   -1.82745208677295
C         0.37684810544503    3.46163493865074   -0.60064134970240
C         1.75025474689836    3.02036839797139   -0.60594333755258
C        -1.56242826222834    2.58632718545092   -1.82215779752145
C        -1.94238226259837    1.41965029111290   -2.58579112410751
C        -2.93435664025322    0.69761049057835   -1.83055626508361
C        -3.15835158431108    1.40715056262687   -0.60632273893295
C        -2.31529372627352    2.58001090518893   -0.60189719464127
C        -2.92869459290425   -0.69503306519358   -1.82555930126290
C        -1.93691162725303   -1.41357159251901   -2.58621452122479
C        -1.55474840398772   -2.58364374926969   -1.83548010584412
C        -2.30552878585596   -2.58832843500761   -0.61044739703037
C        -3.16388679762808   -1.41024639028944   -0.60411725361359
C        -0.98518497330413   -0.71618794621638   -3.31587507003814
C        -0.98683944340055    0.72662300474815   -3.31341436598313
C         0.38372166201438    1.17253552353630   -3.31469905280108
C         1.23075740486292    0.01030516885225   -3.31842505832450
C         0.38630667671258   -1.15985465487867   -3.32175594866412
Cl       -2.09644696397588    0.31796087027311    5.20265588533505
Cl       -0.34769392138052   -2.12927513092521    5.16109725382807
Cl       -4.42413530142905   -1.85425853871848    2.88349880768924
63
 energy: -142.106589777666 gnorm: 0.007025325289 xtb: 6.4.1 (a3dbbd7)
C        -1.31218450013072    0.01939390954015    3.57767184949461
C        -0.38865070234028   -1.25389907443664    3.57128992062742
C         0.99412118931365   -0.70961724032230    3.27767378913683
C         0.98490035052848    0.71106257117285    3.25470214309292
C        -0.36151371405273    1.16046989081234    3.29086849669076
C         2.33240266487956   -2.57820869904632    0.56483634179939
C         3.17404352504271   -1.40736726167483    0.56784753355404
C         2.93197255438417   -0.68401342624408    1.78994716238227
C         1.93631849268113   -1.39109185532481    2.54488277499579
C         1.56967379406596   -2.57609326377785    1.78105665044810
C         3.19624987556940    1.42672449868987    0.56855512653002
C         2.35174001853423    2.59713354549429    0.57124289463830
C         1.59506191144763    2.58832020989215    1.79721998135872
C         1.96397106913698    1.41945600173777    2.54335718959513
C         2.95180402851850    0.70636308447665    1.79278965365903
C        -0.34575118458556    3.45419286855833    0.58102540172604
C        -1.71641056644682    2.99619610171312    0.58940529953974
C        -1.94463369651956    2.29186048127439    1.80755297419877
C        -0.71588552680816    2.27402340123762    2.55660104891512
C         0.27116412032214    3.00282277481357    1.80016956602583
C        -3.36109491954597    0.68902349971014    0.56912338056489
C        -3.41178539441012   -0.72861760960275    0.56843833618745
C        -2.98493875152465   -1.23368077476243    1.93281300204193
C        -2.40817016358664    0.00197878792725    2.57206924755590
C        -2.71811890341703    1.11039746585462    1.80273703461223
C        -1.70951046224773   -2.99197328253756    0.56114982524470
C        -0.34733726981567   -3.44177285760622    0.55518782483319
C         0.25197645834665   -2.97612305012059    1.77350235151818
C        -0.75894517653231   -2.23454748668159    2.51039070364768
C        -1.92159845121193   -2.25964631335646    1.79830555666393
C        -0.23222418205139   -3.01634263512506   -1.84807126311662
C         0.75608384054315   -2.28701205244294   -2.60324639973741
C         1.98493574843676   -2.28652546565732   -1.84563529892182
C         1.75114536331871   -3.01289818876583   -0.62402000782224
C         0.38429118825167   -3.46189027572474   -0.62746722414308
C         2.79541414820112   -1.15894655813553   -1.83889357147636
C         2.41529933547092    0.00929058108312   -2.59245044423476
C         2.79553169185096    1.17389273989882   -1.83474713536698
C         3.41173501111062    0.72907632227553   -0.61134234635848
C         3.40666014990433   -0.71429814080479   -0.61146507069438
C         1.98001669330671    2.29942013299911   -1.83230918635667
C         0.75065183377450    2.29859123455416   -2.58491152606024
C        -0.23695261586518    3.01877285242034   -1.82834481751252
C         0.37922243463408    3.46282168335306   -0.60176698897649
C         1.75290084224854    3.02188668229552   -0.60725670299302
C        -1.56009329225669    2.58472230568101   -1.82174137370764
C        -1.94082576129650    1.41864625463901   -2.58590297476893
C        -2.93213760312067    0.69614704264066   -1.82977525803184
C        -3.15399780834768    1.40321256218312   -0.60460765871315
C        -2.31086255694911    2.57664731612544   -0.60167444618664
C        -2.92805673485325   -0.69608934885440   -1.82295883247825
C        -1.93675907730850   -1.41389818255222   -2.58519211540092
C        -1.55640581765371   -2.58526695232964   -1.83639480651778
C        -2.31024955153497   -2.59124834271172   -0.61256584748670
C        -3.16963833794510   -1.41232267211167   -0.60274493417628
C        -0.98500827107345   -0.71684346237549   -3.31565883638010
C        -0.98561840107433    0.72603081651808   -3.31348859968693
C         0.38489078360319    1.17225024161221   -3.31525122393849
C         1.23134325603365    0.00990299164524   -3.31877236843860
C         0.38642310047423   -1.16021765838911   -3.32236739742403
Cl       -2.07680708673364    0.29011891259990    5.21732081684544
Cl       -0.37041973302239   -2.11284913894170    5.16127254585249
Cl       -4.42530369027129   -1.87518108201602    2.87852089648699
63
 energy: -142.106737748967 gnorm: 0.004021588429 xtb: 6.4.1 (a3dbbd7)
C        -1.31318641406307    0.01956791035001    3.58132571430941
C        -0.38851477055766   -1.25505524317762    3.57503176350561
C         0.99361315743590   -0.70980815911625    3.27903276672187
C         0.98364274415249    0.71094315030175    3.25616127219985
C        -0.36309524169357    1.16016807220359    3.29164227469864
C         2.33205513931361   -2.57838713219151    0.56548002948770
C         3.17396974880580   -1.40777918055820    0.56868961269755
C         2.93169029686423   -0.68424036025367    1.79078245793192
C         1.93589092131298   -1.39086976516007    2.54555589098787
C         1.56964077417116   -2.57581443957741    1.78170037472671
C         3.19551093127032    1.42633086058001    0.56928484168322
C         2.35127756347971    2.59690277942030    0.57170765355322
C         1.59447262310265    2.58801136746724    1.79766431896728
C         1.96290642135360    1.41904302598916    2.54431034032312
C         2.95083987480251    0.70612448744054    1.79370686528192
C        -0.34577645293254    3.45448343155656    0.58091059323833
C        -1.71603165053064    2.99570016101562    0.58844663713676
C        -1.94411362165358    2.29066681348707    1.80595503695490
C        -0.71629277977040    2.27314962863297    2.55579287017623
C         0.27081368513081    3.00293877487987    1.80028356852244
C        -3.36083093630645    0.68881072462616    0.56845063978704
C        -3.41363938057662   -0.72882763771204    0.57007480674374
C        -2.98590369357349   -1.23308820108897    1.93383881018979
C        -2.40921265053895    0.00158502188698    2.57404883832051
C        -2.71714723586137    1.10944035414297    1.80178142584288
C        -1.71006564089402   -2.98934914491322    0.56156050844687
C        -0.34800337164312   -3.43923438964995    0.55532732648414
C         0.25164839533900   -2.97300893027075    1.77239021866143
C        -0.75874796252421   -2.23116068325213    2.50960857636869
C        -1.92132409046887   -2.25377341880496    1.79766569202605
C        -0.23288878392856   -3.01647301873004   -1.84804648643708
C         0.75553375212795   -2.28747733129995   -2.60307839754720
C         1.98433888124754   -2.28703508951020   -1.84519084948575
C         1.75037706367289   -3.01296322658139   -0.62333241702354
C         0.38368637792249   -3.46157072845143   -0.62712350435686
C         2.79485806420443   -1.15951653007404   -1.83820474902912
C         2.41491085651255    0.00870452916888   -2.59186611763897
C         2.79506769384495    1.17330940217844   -1.83410039945582
C         3.41106272341327    0.72856597314676   -0.61054453303370
C         3.40616640266024   -0.71483972335705   -0.61073419197138
C         1.97987253763306    2.29906773574894   -1.83200934683085
C         0.75067699238446    2.29838807240660   -2.58496017300164
C        -0.23691647925739    3.01907985086120   -1.82881383990406
C         0.37907489688901    3.46296964312668   -0.60195856104139
C         1.75269913167866    3.02168915449761   -0.60699860745263
C        -1.56000920669569    2.58475567021032   -1.82242295349181
C        -1.94082679326841    1.41884786032316   -2.58668404500425
C        -2.93206191451352    0.69648591685795   -1.83023258969787
C        -3.15320173701542    1.40301511809746   -0.60466011645172
C        -2.31025314617227    2.57645476410743   -0.60236177840719
C        -2.92816779481239   -0.69563956937654   -1.82222261904401
C        -1.93694966732105   -1.41368482349400   -2.58453362137071
C        -1.55715817992381   -2.58563239853414   -1.83656178294985
C        -2.31121906810060   -2.59133933266060   -0.61289841650930
C        -3.16991758848010   -1.41138458231455   -0.60216770132673
C        -0.98533714584659   -0.71706044148775   -3.31552594818377
C        -0.98555096655317    0.72590979728931   -3.31361775356674
C         0.38498309454975    1.17202003694541   -3.31532245246849
C         1.23112192874223    0.00946712008141   -3.31850166798601
C         0.38599673961466   -1.16055680486877   -3.32222688564399
Cl       -2.08611129884877    0.31509756263118    5.21396150374499
Cl       -0.35050195264264   -2.13694057483022    5.15212795214467
Cl       -4.41538622726332   -1.88281649736532    2.87110398780363
63
 energy: -142.106775822734 gnorm: 0.002481533762 xtb: 6.4.1 (a3dbbd7)
C        -1.31311742971083    0.01967208226009    3.58055811138546
C        -0.38834123802423   -1.25538051555344    3.57524912015196
C         0.99394956073377   -0.71069412193349    3.27968859185446
C         0.98344294511861    0.71003125802493    3.25595821474198
C        -0.36317204104735    1.15988726656520    3.29138586805572
C         2.33231878292194   -2.57952490556909    0.56564101817409
C         3.17358638544799   -1.40852471452004    0.56869469334686
C         2.93116319776121   -0.68515918660768    1.79086940164070
C         1.93604211133815   -1.39216984457141    2.54616404270508
C         1.57080181266766   -2.57804526393729    1.78275657263542
C         3.19458159326651    1.42557096120159    0.56935539251963
C         2.35017203219046    2.59595584382307    0.57179518846003
C         1.59332765695047    2.58688211889228    1.79751847515607
C         1.96218591597922    1.41810886011559    2.54403550842406
C         2.95005966647438    0.70518615142926    1.79359401736123
C        -0.34683456807080    3.45423461999945    0.58106990903239
C        -1.71747540836320    2.99695171012921    0.58861854373435
C        -1.94546650863826    2.29181087936832    1.80660000076993
C        -0.71694430426124    2.27289896070283    2.55602782231664
C         0.26977508231403    3.00202195838829    1.80017483793752
C        -3.36086799736339    0.69080355938192    0.56844708672837
C        -3.40973163410130   -0.72659020391731    0.56849029047891
C        -2.98117166986872   -1.23133617768712    1.93205997640927
C        -2.40797337602537    0.00337971184225    2.57294410100976
C        -2.71861766128265    1.11176631500040    1.80211921986537
C        -1.70789250780888   -2.98934514777797    0.56127415607108
C        -0.34684671440943   -3.44125170219598    0.55570342983869
C         0.25300554788331   -2.97631598251413    1.77372464307660
C        -0.75624752989294   -2.23295867501679    2.51030755063531
C        -1.91772747337124   -2.25383266203596    1.79698772252334
C        -0.23279689419590   -3.01655472700233   -1.84775128205962
C         0.75537190914184   -2.28754587162567   -2.60281630891195
C         1.98421247826609   -2.28734542556093   -1.84501999007684
C         1.75070375618790   -3.01385241138293   -0.62329330099932
C         0.38411173265170   -3.46271272271986   -0.62712070374845
C         2.79456498165763   -1.15982902582421   -1.83816734875989
C         2.41435790989795    0.00848754433571   -2.59171005202359
C         2.79432345792453    1.17296033898978   -1.83386370531616
C         3.41030502373806    0.72803368413472   -0.61045288917668
C         3.40562120093615   -0.71532494940042   -0.61064038781422
C         1.97900158473869    2.29865369796233   -1.83171790020290
C         0.74996684279495    2.29827633436154   -2.58475619230325
C        -0.23779992001910    3.01910404836932   -1.82868674747218
C         0.37812123091811    3.46250539292552   -0.60169383994667
C         1.75163420597502    3.02096995388010   -0.60672940653650
C        -1.56104775437453    2.58560163040413   -1.82280065739042
C        -1.94164387243239    1.41954225885971   -2.58691269749261
C        -2.93309733767845    0.69746250805437   -1.83064945382398
C        -3.15478076854324    1.40481632338330   -0.60524074569415
C        -2.31183806786425    2.57796183637331   -0.60254683230733
C        -2.92857131215104   -0.69487674448177   -1.82304666787547
C        -1.93726024638189   -1.41344442085810   -2.58488140696743
C        -1.55686915750199   -2.58511445569757   -1.83652883858485
C        -2.30955973223398   -2.58997407264292   -0.61241206890528
C        -3.16761738890837   -1.40990683326718   -0.60274419001691
C        -0.98569796320302   -0.71684993703744   -3.31566101973010
C        -0.98620740860179    0.72618069370234   -3.31357056651066
C         0.38437488787463    1.17201284507879   -3.31518465672463
C         1.23063349365584    0.00941180114760   -3.31835080246309
C         0.38561743837764   -1.16056011892730   -3.32189761735223
Cl       -2.08602998729045    0.31282374857300    5.21326303036186
Cl       -0.35487518821494   -2.13183503762303    5.15522130548787