62
 energy: -137.474557215575 gnorm: 0.181776008346 xtb: 6.4.1 (a3dbbd7)
C        -1.23626340000000    0.00000000000000    3.32997640000000
C        -0.38202640000000   -1.17575640000000    3.32997640000000
C         1.00015810000000   -0.72665740000000    3.32997640000000
C         1.00015810000000    0.72665740000000    3.32997640000000
C        -0.38202640000000    1.17575640000000    3.32997640000000
C         2.34433560000000   -2.60145750000000    0.59464210000000
C         3.19857260000000   -1.42570110000000    0.59464210000000
C         2.96246730000000   -0.69904370000000    1.83090550000000
C         1.96230920000000   -1.42570110000000    2.59495830000000
C         1.58028280000000   -2.60145750000000    1.83090550000000
C         3.19857260000000    1.42570110000000    0.59464210000000
C         2.34433560000000    2.60145750000000    0.59464210000000
C         1.58028280000000    2.60145750000000    1.83090550000000
C         1.96230920000000    1.42570110000000    2.59495830000000
C         2.96246730000000    0.69904370000000    1.83090550000000
C        -0.36750900000000    3.48258920000000    0.59464210000000
C        -1.74969350000000    3.03349030000000    0.59464210000000
C        -1.98579880000000    2.30683290000000    1.83090550000000
C        -0.74953540000000    2.30683290000000    2.59495830000000
C         0.25062270000000    3.03349030000000    1.83090550000000
C        -3.42570570000000    0.72665740000000    0.59464210000000
C        -3.42570570000000   -0.72665740000000    0.59464210000000
C        -2.80757400000000   -1.17575640000000    1.83090550000000
C        -2.42554760000000    0.00000000000000    2.59495830000000
C        -2.80757400000000    1.17575640000000    1.83090550000000
C        -1.74969350000000   -3.03349030000000    0.59464210000000
C        -0.36750900000000   -3.48258920000000    0.59464210000000
C         0.25062270000000   -3.03349030000000    1.83090550000000
C        -0.74953540000000   -2.30683290000000    2.59495830000000
C        -1.98579880000000   -2.30683290000000    1.83090550000000
C        -0.25062270000000   -3.03349030000000   -1.83090550000000
C         0.74953540000000   -2.30683290000000   -2.59495830000000
C         1.98579880000000   -2.30683290000000   -1.83090550000000
C         1.74969350000000   -3.03349030000000   -0.59464210000000
C         0.36750900000000   -3.48258920000000   -0.59464210000000
C         2.80757400000000   -1.17575640000000   -1.83090550000000
C         2.42554760000000    0.00000000000000   -2.59495830000000
C         2.80757400000000    1.17575640000000   -1.83090550000000
C         3.42570570000000    0.72665740000000   -0.59464210000000
C         3.42570570000000   -0.72665740000000   -0.59464210000000
C         1.98579880000000    2.30683290000000   -1.83090550000000
C         0.74953540000000    2.30683290000000   -2.59495830000000
C        -0.25062270000000    3.03349030000000   -1.83090550000000
C         0.36750900000000    3.48258920000000   -0.59464210000000
C         1.74969350000000    3.03349030000000   -0.59464210000000
C        -1.58028280000000    2.60145750000000   -1.83090550000000
C        -1.96230920000000    1.42570110000000   -2.59495830000000
C        -2.96246730000000    0.69904370000000   -1.83090550000000
C        -3.19857260000000    1.42570110000000   -0.59464210000000
C        -2.34433560000000    2.60145750000000   -0.59464210000000
C        -2.96246730000000   -0.69904370000000   -1.83090550000000
C        -1.96230920000000   -1.42570110000000   -2.59495830000000
C        -1.58028280000000   -2.60145750000000   -1.83090550000000
C        -2.34433560000000   -2.60145750000000   -0.59464210000000
C        -3.19857260000000   -1.42570110000000   -0.59464210000000
C        -1.00015810000000   -0.72665740000000   -3.32997640000000
C        -1.00015810000000    0.72665740000000   -3.32997640000000
C         0.38202640000000    1.17575640000000   -3.32997640000000
C         1.23626340000000    0.00000000000000   -3.32997640000000
C         0.38202640000000   -1.17575640000000   -3.32997640000000
Cl       -1.84886636902500    0.00000000000000    5.03315507598844
Cl        0.57133112665374    1.75837643626476   -5.03315507935499
62
 energy: -137.514747923270 gnorm: 0.118590570803 xtb: 6.4.1 (a3dbbd7)
C        -1.24982941888285    0.00460817571771    3.35782883354058
C        -0.36445363061100   -1.17919474886488    3.32949647540873
C         1.00116023062658   -0.72349776476388    3.31483859936185
C         1.00242853047026    0.72605268949041    3.31574642311474
C        -0.36200625565084    1.18591324417285    3.32876045802963
C         2.33371632758282   -2.58864339171004    0.59130062741836
C         3.18333283537979   -1.41762306858204    0.58825618516217
C         2.95329826112484   -0.69569374487432    1.81897848019812
C         1.95940008745188   -1.42075871036974    2.58100990536656
C         1.57934567181552   -2.58835208621481    1.82299255916203
C         3.18682222477190    1.42021323182836    0.59177391588547
C         2.34348910853658    2.59424467705799    0.60041582145335
C         1.58426900369141    2.59312398169066    1.82843576487861
C         1.96311754519557    1.42165419136101    2.58405258749191
C         2.95404587221252    0.69541274691545    1.82147697971249
C        -0.35971883927793    3.46750917741804    0.60139301579258
C        -1.73845765766705    3.01852864427492    0.59749531016693
C        -1.96770558622821    2.29941502260419    1.81425726505315
C        -0.73131288370072    2.29643925671400    2.58252799158005
C         0.26094093330857    3.02503016134591    1.83009548944378
C        -3.41937073607944    0.71993022145515    0.57595374604987
C        -3.41940856314574   -0.72646127569511    0.57711903765005
C        -2.79667185991623   -1.16779159914959    1.80168505717629
C        -2.43051824075959    0.00751218315485    2.54380185157984
C        -2.79183615234609    1.16577299341526    1.80252551700916
C        -1.74052167147019   -3.01639110257240    0.59480093060177
C        -0.36429995760458   -3.46267414804171    0.59682449878056
C         0.25338002256142   -3.01935874705978    1.82651634344548
C        -0.73505667406784   -2.28996991202946    2.58387701456436
C        -1.97506947548539   -2.29124170923256    1.81896707458847
C        -0.25112601107820   -3.02450236433446   -1.81927024010375
C         0.74593467860019   -2.30298146722097   -2.58082326196227
C         1.97451304321592   -2.30278924374186   -1.82345365233268
C         1.74000986451968   -3.01937868299304   -0.59146104095438
C         0.36425162283956   -3.46635911458266   -0.58852911762072
C         2.79315300120980   -1.17376689658000   -1.82664777110438
C         2.40543261232233   -0.00761895409386   -2.58392949533251
C         2.78939446759408    1.17149111725009   -1.81895021415798
C         3.40623367778007    0.72342865212477   -0.59484707840157
C         3.40583443802368   -0.72351200188674   -0.59697019862042
C         1.97543304926048    2.30066573093346   -1.80203923796360
C         0.74385507843784    2.31160543180864   -2.54298811865641
C        -0.24565993935134    3.01548900539577   -1.80287487082207
C         0.37202082687402    3.47346394697687   -0.57589554899641
C         1.74819038889644    3.02852239159162   -0.57708589018990
C        -1.57847645809608    2.58173088651899   -1.81418575922001
C        -1.95850723866491    1.40525949128440   -2.58250763320754
C        -2.95855912953720    0.68712803801995   -1.83015165838154
C        -3.18724662938717    1.41419001803377   -0.60132263650533
C        -2.33333257363397    2.58638798026223   -0.59744049230464
C        -2.95540014944405   -0.70490127416414   -1.82830706772187
C        -1.95838806443257   -1.42714126550747   -2.58402368939494
C        -1.57375055885515   -2.59344822001718   -1.82121272179034
C        -2.33534660855711   -2.59210063693785   -0.59178545065310
C        -3.19073561180932   -1.42683049276366   -0.60034783541940
C        -0.99964205215567   -0.72908839985356   -3.31571646224157
C        -1.01663775593541    0.71046479817846   -3.32879418503144
C         0.38179145222448    1.18850215967688   -3.35759704450480
C         1.23450951683619   -0.01915554014470   -3.32979015946691
C         0.37898261018149   -1.17656723099897   -3.31489386582608
Cl       -1.88484499495962    0.00275930483068    5.10312035540989
Cl        0.57806915287427    1.79372067974287   -5.10248171955483
62
 energy: -137.534849219222 gnorm: 0.079359344532 xtb: 6.4.1 (a3dbbd7)
C        -1.28572020201031    0.00704672251099    3.47142593847702
C        -0.34478674814003   -1.18021348535828    3.28391532819651
C         0.99506492027882   -0.72202502934277    3.27965847450209
C         0.99710464654664    0.72141246611275    3.28102471667087
C        -0.33983465768839    1.18870525371228    3.28465083058259
C         2.32317028263392   -2.57538942796101    0.58827495902117
C         3.16977436512739   -1.40975111637437    0.58586640912933
C         2.94553262220376   -0.69354679178309    1.80881423812865
C         1.95544183531215   -1.42036005531746    2.56145335855216
C         1.57755635182344   -2.57687694763043    1.81131120048306
C         3.17538369011205    1.41636268924351    0.59248067146787
C         2.34151164008896    2.58509453725215    0.60504719639233
C         1.58706903630196    2.58389190285920    1.82314572614670
C         1.96204646878959    1.41772259682559    2.56797509003147
C         2.94323658377762    0.69041134830159    1.81233906717237
C        -0.35107682761362    3.45067297839120    0.60120950860368
C        -1.72908270067463    3.00192659606770    0.60538763086369
C        -1.95398430705101    2.29954271671538    1.79387497811319
C        -0.71320867631234    2.28259085311028    2.55359342002611
C         0.26954229151448    3.01652936588749    1.82239046579939
C        -3.40774115220249    0.71024755719334    0.56253252906451
C        -3.41009277446138   -0.72721736109001    0.56356458680266
C        -2.77956492797276   -1.15721518681610    1.77505918327105
C        -2.43595393981409    0.01814091880902    2.50415125255630
C        -2.76959736251635    1.14509051963801    1.78566354356142
C        -1.73385523906925   -3.00006270004825    0.59067186963111
C        -0.36383922798359   -3.44608873543686    0.59291272367261
C         0.25207411503180   -3.00771004684748    1.81274550671095
C        -0.72164028061592   -2.27323836657126    2.55373519448318
C        -1.97203557540397   -2.28036976174638    1.80169600473894
C        -0.25075755836920   -3.01643220133179   -1.80910462403817
C         0.74662874159247   -2.29888457855229   -2.56133067931868
C         1.96390607448403   -2.29730109083411   -1.81159287935267
C         1.73078076086862   -3.00508896833724   -0.58827982261209
C         0.36106252588829   -3.45080226196070   -0.58602173280080
C         2.78233431664000   -1.16892853487471   -1.81275158657102
C         2.38530233696396   -0.01536285032934   -2.55380729814532
C         2.77803780505533    1.17139018459569   -1.80150298414368
C         3.38895946284474    0.72200129608654   -0.59065519808884
C         3.38999731988844   -0.71891703345358   -0.59298197882830
C         1.96004802440783    2.28726006008152   -1.77529276984432
C         0.73559780172354    2.32049208958947   -2.50343468956324
C        -0.23290380086629    2.98793277078326   -1.78592406820659
C         0.37757832501361    3.45982324328170   -0.56255593839014
C         1.74581633848680    3.01921489741816   -0.56359114567501
C        -1.58287505562360    2.56850154360681   -1.79374625618676
C        -1.95082245818151    1.38370356310819   -2.55365549894035
C        -2.95301048827927    0.67611887088762   -1.82257311027290
C        -3.17366490739742    1.40050857989823   -0.60124608383133
C        -2.32059553935375    2.57224152073879   -0.60542811471804
C        -2.94755959928981   -0.71062608351571   -1.82308630401313
C        -1.95445425874431   -1.42757013505798   -2.56798054088954
C        -1.56575420775008   -2.58495330280748   -1.81215608893354
C        -2.32815150878853   -2.58232556481653   -0.59252785545866
C        -3.18178647551762   -1.42794674815987   -0.60506485943778
C        -0.99371950247875   -0.72539178496071   -3.28099975607189
C        -1.02592982089144    0.69036688196257   -3.28464668414484
C         0.39074297702328    1.22401503708312   -3.47128986226162
C         1.22924594753365   -0.03790320046509   -3.28410195498838
C         0.37932274980129   -1.17007107715039   -3.27977715914837
Cl       -1.93790059698737    0.00317237148527    5.26336996378436
Cl        0.59449477791933    1.84481493195860   -5.26283404512787
62
 energy: -137.540858174173 gnorm: 0.039578362552 xtb: 6.4.1 (a3dbbd7)
C        -1.28501370219402    0.00709162025360    3.48090581173665
C        -0.35903626457535   -1.17644763661172    3.31315225058030
C         0.99032269366152   -0.72120170369964    3.29280413666991
C         0.99396050394165    0.72230172460879    3.29524165393103
C        -0.35308920832821    1.18587108502076    3.31486966861171
C         2.32604179135006   -2.57842569901707    0.58923819371978
C         3.17317279053301   -1.41095509540882    0.58599000037306
C         2.94845715994450   -0.69430113064606    1.81272514786504
C         1.95274338259703   -1.41702506525715    2.56716509678970
C         1.57614252228315   -2.57532808637245    1.81417019993230
C         3.18343617160624    1.41748088238649    0.59460154891595
C         2.34810465483171    2.58799230715194    0.60684910109478
C         1.59201470784494    2.58527729298606    1.82986258538774
C         1.96290217412549    1.41599332436542    2.57639082867587
C         2.94911221179194    0.69123880484478    1.81730287839436
C        -0.34826629818842    3.44834354848528    0.60322235334166
C        -1.72704490798541    2.99892696291643    0.60519739690072
C        -1.95478820190030    2.29766783433822    1.80235899951688
C        -0.71880095772928    2.28310639902126    2.57170119799875
C         0.27002524896316    3.01157819392732    1.82885190777887
C        -3.40346792590167    0.70799324012694    0.56638348595146
C        -3.40936048264945   -0.73123985466586    0.56816878581444
C        -2.78114885668966   -1.15873533243223    1.78840680806922
C        -2.42949722903272    0.01484422498434    2.53328981987439
C        -2.77020647340157    1.14521789288268    1.79710500407780
C        -1.73648400265722   -3.00294098243270    0.59230785655895
C        -0.36493375462674   -3.44725383460181    0.59495774171975
C         0.24872351691620   -3.00030581765836    1.81639127440456
C        -0.72974710849051   -2.27224857621224    2.56971903672436
C        -1.97410467209975   -2.28185539573367    1.80878071141440
C        -0.25086002008768   -3.01940569051008   -1.81300234946422
C         0.74437222530303   -2.29544707829940   -2.56713285123264
C         1.96280069753059   -2.29542808032488   -1.81445935597458
C         1.73293322024542   -3.00888517338121   -0.58929943511680
C         0.36121215173351   -3.45444534653399   -0.58616377068691
C         2.77641305804063   -1.16353407447416   -1.81644082347878
C         2.38682158735917   -0.00752510088743   -2.56977242170804
C         2.78022361410023    1.17285465888104   -1.80869402668707
C         3.39250725572473    0.72364688453687   -0.59231755942133
C         3.39134576142921   -0.71818421907778   -0.59504904524873
C         1.96201718660059    2.28808100796553   -1.78863178270433
C         0.73670211800693    2.31347318817846   -2.53257826934636
C        -0.23282430724570    2.98841145914928   -1.79729795089329
C         0.37850464188309    3.45507428950839   -0.56641420395581
C         1.74951806015613    3.01723848334973   -0.56820537954002
C        -1.58085386767462    2.56874386161147   -1.80226161052707
C        -1.94953645663181    1.38913825582943   -2.57174164576865
C        -2.94836449944922    0.67414356259110   -1.82900819323345
C        -3.17236405200447    1.39718367819401   -0.60327494041468
C        -2.31837653936689    2.56939266532073   -0.60524636877891
C        -2.95042783439199   -0.71488805330068   -1.82981449956367
C        -1.95305417839250   -1.42897541326228   -2.57635529628650
C        -1.56834551119645   -2.59046395522210   -1.81713371654277
C        -2.33164995894424   -2.58960001573648   -0.59463123946033
C        -3.18646283756870   -1.43323166467385   -0.60683974714195
C        -0.99364769016445   -0.72222262710008   -3.29522500150004
C        -1.01908086161523    0.70200077399320   -3.31480921828237
C         0.39041835396883    1.22338361029538   -3.48066469564968
C         1.23009565072970   -0.02306382318879   -3.31335702577784
C         0.38005467890331   -1.16534380192044   -3.29292514864175
Cl       -1.93982692855449    0.00603588429496    5.25418829997498
Cl        0.59203055526176    1.84755716290828   -5.25355221313733
62
 energy: -137.542656158805 gnorm: 0.025788308870 xtb: 6.4.1 (a3dbbd7)
C        -1.28962303780659    0.00712416062767    3.50303674100442
C        -0.36832459336809   -1.17285912155636    3.32128338926529
C         0.98491290077388   -0.72054051385069    3.29432743170037
C         0.98998245285703    0.72244692522405    3.29744766100638
C        -0.36130916408528    1.18291055777553    3.32422305325591
C         2.32734867983924   -2.57977930542772    0.58962453641665
C         3.17499107843973   -1.41176037479158    0.58674227962872
C         2.94908722020792   -0.69472376643448    1.81465905026489
C         1.94980054847344   -1.41509674421143    2.56818765958759
C         1.57469656499701   -2.57416522750981    1.81453280251370
C         3.18856251247341    1.41859422146421    0.59611201756273
C         2.35152019843189    2.58883891333061    0.60635188114526
C         1.59424954238799    2.58543613042165    1.83123253827096
C         1.96220534672234    1.41473824117484    2.57863542031975
C         2.95115612664466    0.69136452528720    1.81932392535778
C        -0.34619680999823    3.44399193765436    0.60226380761238
C        -1.72623755973681    2.99603671177435    0.60608286231729
C        -1.95574689742583    2.29819503641394    1.80554591631529
C        -0.72125592328629    2.28221103903967    2.57816370931846
C         0.27013997131671    3.00710983669873    1.82987433307892
C        -3.39659312286327    0.70510199560856    0.56970039109115
C        -3.40579295804277   -0.73372388672416    0.57223859781119
C        -2.78080248499214   -1.16041179201088    1.79669200056349
C        -2.42202457443389    0.01365787638913    2.54865158672143
C        -2.76737004211379    1.14208746466495    1.80607117855219
C        -1.73896675785895   -3.00570308911512    0.59213365908511
C        -0.36608792496835   -3.44709070543101    0.59471811652325
C         0.24605272467235   -2.99474669340566    1.81610367631455
C        -0.73427229431208   -2.27022805159721    2.57408631987390
C        -1.97745434820994   -2.28526894773629    1.81155666147614
C        -0.25059821097579   -3.01992387257818   -1.81484973403691
C         0.74344047951373   -2.29199136721123   -2.56820088656422
C         1.96193233103437   -2.29348483441966   -1.81471231991259
C         1.73403184653361   -3.01061638003860   -0.58965753825288
C         0.36147516291877   -3.45625813597353   -0.58684713271206
C         2.77202909163523   -1.15936659372347   -1.81612990589561
C         2.38619232304307   -0.00286877852091   -2.57410467245887
C         2.78455554474850    1.17474889136495   -1.81150371440572
C         3.39596108530684    0.72511508365455   -0.59213077849645
C         3.39150374804994   -0.71703756133166   -0.59476798340900
C         1.96338567960194    2.28678586372602   -1.79683479274985
C         0.73552302980466    2.30652867527356   -2.54815404000721
C        -0.23079002039777    2.98468029536623   -1.80617184525675
C         0.37914982721203    3.44785788196028   -0.56974636614921
C         1.75066986042855    3.01284926317142   -0.57228176576372
C        -1.58113964835468    2.56991046885279   -1.80549830621116
C        -1.94781215362441    1.39116943798630   -2.57821285581130
C        -2.94391045538691    0.67255571953076   -1.83000759734550
C        -3.16877263129795    1.39378646176373   -0.60234200918427
C        -2.31592742662532    2.56768729764908   -0.60615845879677
C        -2.95134710311797   -0.71706453266378   -1.83120662600147
C        -1.95169488568584   -1.42882511543449   -2.57858759471184
C        -1.56920615006915   -2.59265617413644   -1.81920381046927
C        -2.33431497024827   -2.59409280737516   -0.59611947680018
C        -3.18843997014993   -1.43624837356977   -0.60633941434245
C        -0.99269459758599   -0.71839682945777   -3.29743308710063
C        -1.01356455421640    0.70893281313004   -3.32415210050141
C         0.39179169075782    1.22813227516315   -3.50284989036866
C         1.22949919128787   -0.01277559747271   -3.32147167495893
C         0.38107915963071   -1.15981376162974   -3.29442396049194
Cl       -1.94706858179291    0.00974176474296    5.26010903761046
Cl        0.59087869091509    1.85556760471902   -5.25961190576533
62
 energy: -137.543673412448 gnorm: 0.014906551507 xtb: 6.4.1 (a3dbbd7)
C        -1.29493921396237    0.00672941677090    3.52572967448150
C        -0.37466800633253   -1.16981705596460    3.31813640901080
C         0.98054563758040   -0.72036844975301    3.29048778311567
C         0.98646142648168    0.72220393709509    3.29399476048209
C        -0.36709308447076    1.17978101814547    3.32202603696406
C         2.32882033671739   -2.58117196977783    0.58967629888308
C         3.17723064511228   -1.41298526717725    0.58767797839675
C         2.94964914877105   -0.69518694265578    1.81579978833848
C         1.94796513170156   -1.41451056001199    2.56728984161796
C         1.57395544111772   -2.57459726492835    1.81392675854659
C         3.19210093966864    1.41965106292165    0.59710922862442
C         2.35321039878585    2.58944029413551    0.60487390107113
C         1.59458821977984    2.58564810342981    1.82991642131539
C         1.96104657599605    1.41403447254632    2.57787713385876
C         2.95210141801546    0.69130179467755    1.82009775031756
C        -0.34579455200353    3.44177558236712    0.60019889868854
C        -1.72761227656605    2.99600723629590    0.60703738220427
C        -1.95810844005970    2.30092483551464    1.80659292176905
C        -0.72307576636063    2.28211043310923    2.57909942211047
C         0.26954053909984    3.00443391612746    1.82812845755029
C        -3.39121002273096    0.70342082471465    0.57258366810548
C        -3.40266062436691   -0.73461862001291    0.57560525561199
C        -2.78015655168920   -1.16202108833765    1.80182579349968
C        -2.41463111039817    0.01319108825499    2.55727618020028
C        -2.76467664162830    1.13911214385442    1.81316755525598
C        -1.74142494102326   -3.00954066265100    0.59121285393876
C        -0.36720571792931   -3.44818142509800    0.59360078856989
C         0.24449269514636   -2.99218191326788    1.81433449259245
C        -0.73701218609372   -2.26983412781843    2.57350501605308
C        -1.98098417747915   -2.28968745649573    1.81212698768109
C        -0.25029999890740   -3.02025863832414   -1.81584606969486
C         0.74339038814542   -2.28987182878555   -2.56731069794332
C         1.96229182134359   -2.29261800979900   -1.81394700577237
C         1.73514799456110   -3.01249196862653   -0.58965705716719
C         0.36200458553495   -3.45848271000507   -0.58767973019851
C         2.77015971181736   -1.15717528071519   -1.81431972460708
C         2.38652528823234   -0.00044602908638   -2.57348602009153
C         2.78984354279663    1.17646629340358   -1.81209756417784
C         3.40041481560653    0.72620019934887   -0.59119134345435
C         3.39287287941951   -0.71632603451891   -0.59358981095884
C         1.96445898756799    2.28511400617160   -1.80184749776990
C         0.73366315214046    2.30012220272962   -2.55710665972028
C        -0.22892183970267    2.98122426688293   -1.81318779384629
C         0.37904239670541    3.44251041707599   -0.57263710041165
C         1.75031307212076    3.00924838191129   -0.57563667832867
C        -1.58313844886961    2.57317235545813   -1.80662238065414
C        -1.94701538540286    1.39286985644534   -2.57916789551984
C        -2.94083032149519    0.67214531207569   -1.82821356564429
C        -3.16660367791082    1.39255236330023   -0.60028175806731
C        -2.31552115469134    2.56891527867394   -0.60712503280515
C        -2.95177392471267   -0.71747213920514   -1.82991347504127
C        -1.95075607347564   -1.42808260488008   -2.57782830920949
C        -1.56962297126829   -2.59391284435284   -1.82004168185240
C        -2.33650462021997   -2.59712552272844   -0.59709257216531
C        -3.18976628813499   -1.43776765270741   -0.60486529101326
C        -0.99157759537994   -0.71507295842630   -3.29398356119057
C        -1.00861240623504    0.71357327356750   -3.32198722949267
C         0.39378408324574    1.23355101469551   -3.52566975552516
C         1.22846093153198   -0.00533227113898   -3.31827511362809
C         0.38219759564296   -1.15530414227617   -3.29053519843544
Cl       -1.95151121237159    0.01284536455220    5.26238749718532
Cl        0.58989418911446    1.86054312953816   -5.26215936502033
62
 energy: -137.543954800223 gnorm: 0.008127650095 xtb: 6.4.1 (a3dbbd7)
C        -1.29691722844900    0.00636895320318    3.53362293289090
C        -0.37526856589752   -1.16915216210756    3.31180261753509
C         0.97963724880016   -0.72064284826446    3.28702421495356
C         0.98544480685849    0.72190262073486    3.29038949541614
C        -0.36778433396253    1.17868460605700    3.31573572850081
C         2.32933523809505   -2.58160341612093    0.58955436822722
C         3.17806381934240   -1.41349081005017    0.58798040768462
C         2.94976978805957   -0.69539516417549    1.81584805495306
C         1.94780817290056   -1.41501837438827    2.56621490204968
C         1.57396421747837   -2.57560024138071    1.81332980795691
C         3.19218898633807    1.41978348201662    0.59710284345938
C         2.35275406719732    2.58935633462267    0.60400366772216
C         1.59371463282467    2.58566766870714    1.82830112092119
C         1.96029271967016    1.41398450122085    2.57626520530293
C         2.95182523519604    0.69117415050937    1.81978560209673
C        -0.34658512151025    3.44233032921258    0.59908736052905
C        -1.72916837616167    2.99750944779984    0.60733443048860
C        -1.95963695441278    2.30280097480459    1.80615495936349
C        -0.72345754649905    2.28271801087309    2.57717360801631
C         0.26901971667197    3.00445404236552    1.82629487335489
C        -3.39052252639524    0.70360262409367    0.57337171983153
C        -3.40210079915518   -0.73405280435506    0.57624254647616
C        -2.77971541686797   -1.16213638859029    1.80183094593879
C        -2.41271822225810    0.01349550644822    2.55699154155867
C        -2.76410830832177    1.13843667266752    1.81446361036380
C        -1.74214681745735   -3.01112204039510    0.59081004302058
C        -0.36757470749239   -3.44932224489722    0.59297959305422
C         0.24450747925756   -2.99303257660999    1.81326036289139
C        -0.73716194904769   -2.27094103298895    2.57165861572452
C        -1.98207353439770   -2.29121902703702    1.81143461457796
C        -0.25014610230351   -3.02025257202738   -1.81582342099684
C         0.74387380297608   -2.28974957945731   -2.56622131513303
C         1.96312191328990   -2.29280277005215   -1.81328733068417
C         1.73549269017801   -3.01311846890136   -0.58952275309595
C         0.36224304009433   -3.45927983778915   -0.58794607291744
C         2.77100705696796   -1.15747497850358   -1.81323851573786
C         2.38757039376075   -0.00075500820953   -2.57163725479023
C         2.79160904940101    1.17695077529418   -1.81142828967415
C         3.40213659076064    0.72636935099931   -0.59079475401615
C         3.39408319607185   -0.71633142461150   -0.59295225629878
C         1.96425639961754    2.28443064572492   -1.80179982158361
C         0.73274958369425    2.29879469076411   -2.55698927272438
C        -0.22854483881819    2.98055689464802   -1.81445444115513
C         0.37859600757055    3.44204563911730   -0.57340199738005
C         1.74944329490625    3.00871905046817   -0.57625734614128
C        -1.58452870243728    2.57532413183304   -1.80619545154760
C        -1.94740496490290    1.39343087618970   -2.57720521596041
C        -2.94050298728752    0.67256111879382   -1.82632300788208
C        -3.16675730333559    1.39336625840412   -0.59913016669223
C        -2.31647180251207    2.57081924601310   -0.60738130155434
C        -2.95159104382566   -0.71671403047901   -1.82831408665020
C        -1.95053583479545   -1.42743889427625   -2.57625655291017
C        -1.56951993129999   -2.59382642878277   -1.81977928619113
C        -2.33672950464002   -2.59719429976261   -0.59709153072960
C        -3.18967637337937   -1.43743285042924   -0.60400631361129
C        -0.99108423141811   -0.71415791420665   -3.29039621829290
C        -1.00728770400608    0.71397372536883   -3.31571683303614
C         0.39472017342352    1.23551245430742   -3.53363243714744
C         1.22794309679737   -0.00434373865184   -3.31188244747043
C         0.38268370271923   -1.15436817758709   -3.28704142674166
Cl       -1.94941537078679    0.01294386697490    5.25754321413419
Cl        0.58974574074382    1.85827789111572   -5.25748589361443
62
 energy: -137.544039747698 gnorm: 0.003620698366 xtb: 6.4.1 (a3dbbd7)
C        -1.29719623429281    0.00617855735295    3.53450997175080
C        -0.37406152335479   -1.16949186203992    3.30837438152903
C         0.98005801418673   -0.72090913613181    3.28573108153577
C         0.98550816160263    0.72175494398422    3.28884083900580
C        -0.36683322682760    1.17870481174977    3.31207732327723