62
 energy: -137.544063270535 gnorm: 0.000098279334 xtb: 6.4.1 (a3dbbd7)
C        -1.29711115568300    0.00623428392651    3.53402634252168
C        -0.37290591258207   -1.17022153795411    3.30980351453298
C         0.98062831017246   -0.72092594753971    3.28668021582210
C         0.98591258368238    0.72183316417306    3.28970115763313
C        -0.36580652860965    1.17944636905982    3.31343762861237
C         2.32903139337180   -2.58127683426023    0.58948652530507
C         3.17749837026147   -1.41313943908403    0.58769937214165
C         2.94966570987875   -0.69535246998192    1.81537548592484
C         1.94834014364890   -1.41559061506206    2.56589815858603
C         1.57425872927245   -2.57595739573246    1.81328695638337
C         3.19072956657454    1.41949042792567    0.59665733738873
C         2.35172402623754    2.58895395235409    0.60410791018032
C         1.59311821596694    2.58555395984914    1.82807085688599
C         1.96025439618531    1.41423672105304    2.57563922260834
C         2.95123184425749    0.69114416389730    1.81922440550567
C        -0.34724960833477    3.44321215216146    0.59930853918615
C        -1.72944428468662    2.99815199767511    0.60724220202802
C        -1.95979762022608    2.30288801628668    1.80583990985208
C        -0.72311911720103    2.28311882792942    2.57611781154582
C         0.26890549614414    3.00534481816866    1.82604266910601
C        -3.39214936934394    0.70439930844909    0.57276375258970
C        -3.40294677269233   -0.73336499623476    0.57534693073868
C        -2.77959111967321   -1.16121600289118    1.80013930374050
C        -2.41593495814421    0.01391475621979    2.55404982065463
C        -2.76503867668872    1.13931722223518    1.81259632014124
C        -1.74162488600511   -3.01003995811111    0.59122239485301
C        -0.36739675905890   -3.44943137130480    0.59322015936556
C         0.24507334470333   -2.99456022064524    1.81346140112938
C        -0.73627285166232   -2.27194070058373    2.57141797912112
C        -1.98149681925883   -2.29021026401672    1.81120908048549
C        -0.25017745952787   -3.02017458082988   -1.81537549623319
C         0.74423576364042   -2.29042284674322   -2.56589888538017
C         1.96340801562205   -2.29322292996894   -1.81328888726726
C         1.73523071671264   -3.01269849960903   -0.58948870730861
C         0.36207526492343   -3.45866556551624   -0.58770070294074
C         2.77226352506353   -1.15844709793752   -1.81346324553819
C         2.38826474312107   -0.00182991761250   -2.57141952511306
C         2.79043443352036    1.17680363293615   -1.81120899952568
C         3.40090770373445    0.72623123488058   -0.59122166078999
C         3.39413481859336   -0.71651629355448   -0.59322141224145
C         1.96332188883814    2.28471424865389   -1.80014011670308
C         0.73333114809057    2.30199744925428   -2.55405217335755
C        -0.22911253650502    2.98177868707568   -1.81259719138279
C         0.37830773414800    3.44379704599270   -0.57276378954126
C         1.74903912353943    3.00977145018051   -0.57534543882365
C        -1.58456737276382    2.57551168431590   -1.80584210613717
C        -1.94792246255221    1.39325230722460   -2.57612437838594
C        -2.94134973963133    0.67295999103094   -1.82604360812987
C        -3.16738284304197    1.39426540144574   -0.59930862592478
C        -2.31698470310660    2.57127947557938   -0.60724359308338
C        -2.95131014022693   -0.71616370928145   -1.82806752265892
C        -1.95077001655394   -1.42728669864519   -2.57563080804760
C        -1.56929785250966   -2.59321280765440   -1.81922175628758
C        -2.33600623638813   -2.59591800574987   -0.59665549753035
C        -3.18896487569145   -1.43659224272782   -0.60410583187056
C        -0.99116973503871   -0.71459840977209   -3.28969737954386
C        -1.00868042004148    0.71237398307940   -3.31343857663407
C         0.39489843344832    1.23555149544275   -3.53402844289412
C         1.22817803440201   -0.00696166031784   -3.30979968358450
C         0.38260851423102   -1.15540961609081   -3.28667791897676
Cl       -1.94369066925004    0.01042830239567    5.24732328422714
Cl        0.59072626832237    1.85176854082590   -5.24732469032722
