63
 energy: -142.115062002134 gnorm: 0.043588318747 xtb: 6.4.1 (a3dbbd7)
C        -1.32501945293069    0.01335958475176    3.58189431030604
C        -0.38330464360052   -1.13523957770560    3.27937256182922
C         0.94927344699677   -0.70638560369046    3.27176833796460
C         0.96696464132002    0.70168709914010    3.26416915945734
C        -0.40480368799124    1.16231563815837    3.28829959352762
C         2.30787661190286   -2.55661510504833    0.57516328409228
C         3.16311422420562   -1.39783312732146    0.57161017354970
C         2.94367099921189   -0.70115798926173    1.79607910019254
C         2.08322745079295   -1.51050993334848    2.72870489740801
C         1.57940597789574   -2.57520732112384    1.79676049143879
C         3.16959638591592    1.38989664621545    0.56293664791463
C         2.32402930676449    2.54932686458468    0.56788297911296
C         1.56038966165172    2.54751786153790    1.79017442831729
C         1.92604823174488    1.40091233583508    2.54120923383608
C         2.92937646245782    0.66852210784419    1.79030632671818
C        -0.36565123250851    3.41073338355130    0.58042774866182
C        -1.73343445518470    2.96664576132143    0.57308398242502
C        -1.99288037281379    2.26179408749204    1.79473365457144
C        -0.74882387922575    2.26051352585466    2.56830271743823
C         0.23901922999767    2.96614284209413    1.79599459223054
C        -3.37414385337948    0.72083685736723    0.57279175336600
C        -3.36055805739499   -0.71045370411408    0.57691654776408
C        -2.79143303204342   -1.15005594856532    1.80762034247934
C        -2.66434347307415    0.01080912943595    2.76227657905009
C        -2.80486975603041    1.16813858434922    1.80812079028953
C        -1.71450462411452   -2.95049750012880    0.57318751941112
C        -0.35259213568264   -3.38980425847231    0.57226209940358
C         0.26393342831784   -2.95527576607977    1.79753441562336
C        -0.74344319410536   -2.25170221345924    2.56447657346233
C        -1.97064655427078   -2.24644944442875    1.80417421506840
C        -0.23648085411019   -2.98955429935372   -1.85076056006311
C         0.75130618620647   -2.27779630099484   -2.61218598158010
C         1.96621753239942   -2.27185486230520   -1.83733442934111
C         1.72744526456607   -2.97824289965158   -0.61547653495103
C         0.36451660721430   -3.40984511949330   -0.61216833896992
C         2.78337846388994   -1.15360326591857   -1.83837000359655
C         2.41438246307543    0.00630473378338   -2.61367074022429
C         2.79156998531943    1.16518378454325   -1.84987332429180
C         3.39448729241304    0.71880178881696   -0.62293561600635
C         3.38492472042332   -0.71239158400501   -0.61617100591235
C         1.97468688072128    2.28388909046329   -1.84095785886054
C         0.75446732821701    2.28634686632764   -2.59734936952192
C        -0.23633671193305    2.99469582056536   -1.83466617202102
C         0.36443945883566    3.42295462691122   -0.60182042974883
C         1.73570726049510    2.98325097128551   -0.60726130024495
C        -1.55332525668292    2.56807241295211   -1.84215982060287
C        -1.92904286732278    1.41190561524829   -2.60763276588197
C        -2.91619778165976    0.69508564270963   -1.83609085300754
C        -3.14554093249791    1.40423424661009   -0.61082595294950
C        -2.30582048648290    2.56201167948431   -0.61672438968219
C        -2.91447626030549   -0.68894683854636   -1.83366922827528
C        -1.93055300591796   -1.40731425943441   -2.61086680806973
C        -1.55238642880235   -2.56187563193137   -1.84754255943657
C        -2.29542876126240   -2.54963311589359   -0.61330750717370
C        -3.14194573342962   -1.39728169026920   -0.61186793054643
C        -0.97807027387918   -0.71688085401677   -3.33844638854055
C        -0.97679879774681    0.72504093319701   -3.33717528343167
C         0.39136831551099    1.16944639575105   -3.33543306877613
C         1.23827062670111    0.00676980574780   -3.34042611155356
C         0.38937325291390   -1.15984612354964   -3.34181154697196
Cl       -1.64733356105022   -0.01383437210922    5.36675792759808
Cl       -4.11940705069735   -0.00418337696799    3.85251869713179
Cl        3.06309981916111   -2.20516902764043    4.11668794448594
63
 energy: -142.118546900593 gnorm: 0.019618162132 xtb: 6.4.1 (a3dbbd7)
C        -1.31162291669945    0.00979630873705    3.57456944187352
C        -0.37894359181566   -1.15038539866805    3.27670557284401
C         0.95180581364977   -0.70829271740830    3.27112544653116
C         0.96582890894623    0.70919471149266    3.25876077396793
C        -0.39855921687703    1.17349850432266    3.28522953962132
C         2.31045336628379   -2.56560926167501    0.58024773394409
C         3.16190249433574   -1.39947369022260    0.58037695207589
C         2.95183917974114   -0.69378728374872    1.80271990306122
C         2.08048544312404   -1.51235965993181    2.72332804025181
C         1.57732409091273   -2.59047733855420    1.79932687465675
C         3.17208615583896    1.40394906177547    0.57214602068967
C         2.32764159761758    2.56895398027024    0.57371612758105
C         1.56704265761561    2.56620525979233    1.79878830838260
C         1.93689804477454    1.41615442739203    2.55171938771004
C         2.93597079156269    0.68063701241115    1.79683183005171
C        -0.36600205178497    3.43148893296801    0.57821330202272
C        -1.73728061454653    2.98862227048949    0.57204870328364
C        -1.99026079529853    2.27734698722080    1.79310319387326
C        -0.74711640304175    2.27778816633037    2.56617386901728
C         0.24046307835114    2.99034262695499    1.79900738952664
C        -3.37410402003239    0.72357599695899    0.57057832397048
C        -3.36553328518869   -0.71358361728753    0.57313894420176
C        -2.78724018257630   -1.15602056584963    1.79802184708250
C        -2.64871561703806    0.00808919859955    2.75264539730127
C        -2.79711719832331    1.17320984461468    1.80089089087473
C        -1.72400536516145   -2.97504794359504    0.56781019041635
C        -0.35830177165284   -3.41804616486048    0.56850334974257
C         0.25689362152622   -2.97859426638287    1.79376707167571
C        -0.74637708092449   -2.27613882317939    2.56646518410433
C        -1.96905096543019   -2.26128521214582    1.79601322995719
C        -0.24124942136929   -3.00388580347999   -1.84824395330748
C         0.75035237873148   -2.28618180543705   -2.60450078522149
C         1.97188929584148   -2.28298578132095   -1.83561653832818
C         1.73100332274931   -2.99554534212918   -0.61225699766454
C         0.36627813708009   -3.43622793358432   -0.61457439893102
C         2.78926801601695   -1.16101518407334   -1.83449322564422
C         2.41504093091813    0.00358600817146   -2.60033969425594
C         2.79456653312045    1.16772484536624   -1.84054842684604
C         3.40132500084492    0.72114186935022   -0.61343953676130
C         3.39349574803943   -0.71422104181737   -0.60892185628063
C         1.97531312179007    2.28906680554563   -1.83527753656171
C         0.75206296245883    2.29059568652227   -2.59403113203476
C        -0.24079020288893    3.00580083159658   -1.83436500832741
C         0.36558388027750    3.44254849756996   -0.60435658616569
C         1.73766866973834    3.00034787168310   -0.60524285000089
C        -1.56207498243256    2.57989119749944   -1.84260423531305
C        -1.93829277308980    1.41676844461911   -2.60419853534881
C        -2.93007898675135    0.69704806188172   -1.84342623921132
C        -3.15700941132464    1.41322012985775   -0.61588113767368
C        -2.31895863871846    2.57662818530296   -0.61841520454018
C        -2.92889960178336   -0.68991160180521   -1.84186649888901
C        -1.93904214135619   -1.41185749952779   -2.60814173366578
C        -1.56107075527473   -2.57417789375733   -1.84855093560859
C        -2.31226720435049   -2.56619175911186   -0.61891873566132
C        -3.15476905210622   -1.40553716193503   -0.61786602122991
C        -0.98238565180860   -0.71821067719732   -3.33563236458219
C        -0.98184463806485    0.72489777799600   -3.33372728157759
C         0.38807877083405    1.16907790481543   -3.33043257337920
C         1.23543198042155    0.00430640358251   -3.33085290949466
C         0.38689322123218   -1.16327385837066   -3.33475168834029
Cl       -1.59522188313993   -0.01439375439540    5.36460994950278
Cl       -4.12025070493328   -0.00120511247993    3.81614728979949
Cl        3.05952026051731   -2.20987404865763    4.10796228714385
63
 energy: -142.118816768428 gnorm: 0.009226638214 xtb: 6.4.1 (a3dbbd7)
C        -1.30678158511100    0.00794540790611    3.56084481071648
C        -0.37473796341664   -1.15516693431359    3.26966520774206
C         0.95320978840074   -0.70852734264837    3.27037875861881
C         0.96362414269760    0.71404124214252    3.25333892940924
C        -0.39407263058334    1.17845347307137    3.27949022876450
C         2.31137126505002   -2.56898687627358    0.58205374209489
C         3.15979116953920   -1.39980335401462    0.58351489665948
C         2.95425815611569   -0.69061323096671    1.80400302266603
C         2.07907668459054   -1.51261467236980    2.72241137206355
C         1.57669579741264   -2.59597062732610    1.79979884659560
C         3.17271507677478    1.41019009899538    0.57647489461640
C         2.32877185514883    2.57787291100085    0.57712132853792
C         1.57075052947498    2.57518076091672    1.80408292513713
C         1.94368415786683    1.42412357807594    2.55842605989504
C         2.93738038729035    0.68573586315547    1.79807421604234
C        -0.36607858286504    3.44259329124993    0.57678184156249
C        -1.73896221950150    3.00112502785100    0.57099166315349
C        -1.98790315437122    2.28641000428904    1.79101629651883
C        -0.74563005293490    2.28675404543192    2.56250229309872
C         0.24159207901409    3.00356812074086    1.80090569100531
C        -3.37238892209475    0.72505467932148    0.56947167637834
C        -3.36659735652495   -0.71558356920562    0.57166834867853
C        -2.78350609773442   -1.15993754547187    1.79187581234087
C        -2.63633978702638    0.00688798981674    2.74434859366662
C        -2.79080979060710    1.17639095550646    1.79434906145817
C        -1.72757746708344   -2.98809363110628    0.56565159026908
C        -0.35994953998741   -3.43295365283914    0.56709265050414
C         0.25411960080613   -2.99044811164445    1.79158189048419
C        -0.74611793700705   -2.28779645386703    2.56556911349879
C        -1.96642077217984   -2.26914268040292    1.79124222007652
C        -0.24327971490798   -3.01049149690358   -1.84602877232323
C         0.74940909217031   -2.28933448771791   -2.59974702931124
C         1.97380200813845   -2.28727337849711   -1.83461725166312
C         1.73357478391417   -3.00524173516449   -0.61102752365253
C         0.36858086666241   -3.45000419460057   -0.61574201272573
C         2.79054590050463   -1.16373437135455   -1.83297189610354
C         2.41446950182942    0.00230193373177   -2.59318415906672
C         2.79467016395358    1.16836222956437   -1.83481969053781
C         3.40481175119805    0.72120263784366   -0.60864417558701
C         3.39884090945414   -0.71506893288279   -0.60599339711517
C         1.97477802437367    2.29035987068343   -1.83104137070902
C         0.75022649814639    2.29151557601046   -2.59067101296950
C        -0.24329173440193    3.01078126137938   -1.83338307863611
C         0.36638173813767    3.45295078160598   -0.60549055421777
C         1.73829717762616    3.00817662763786   -0.60358936491688
C        -1.56618999998166    2.58536450628366   -1.84211078156345
C        -1.94262459534841    1.41885460909684   -2.60172172171531
C        -2.93497928169185    0.69744178948276   -1.84650393428280
C        -3.16359742383509    1.41865662414312   -0.61828877300281
C        -2.32629929326254    2.58369827403083   -0.61906815964488
C        -2.93404219417229   -0.69053843389783   -1.84500700084032
C        -1.94222587887359   -1.41397340742095   -2.60530010564228
C        -1.56450574402602   -2.58022453210265   -1.84794210926207
C        -2.32038942041665   -2.57436028172283   -0.62088178286465
C        -3.16117385890555   -1.41084839008497   -0.62005983506582
C        -0.98423268914416   -0.71837777747107   -3.33298379284764
C        -0.98421704159885    0.72438606842610   -3.33109232269196
C         0.38609819071171    1.16828693973788   -3.32590862617689
C         1.23353151464126    0.00312728557493   -3.32532379827444
C         0.38567897272934   -1.16421576143259   -3.32986326282427
Cl       -1.62910151394942   -0.01291099271038    5.34129086851013
Cl       -4.07959228956984    0.00111749488542    3.84060099344626
Cl        3.05884909784894   -2.21896949407488    4.10160519791751
63
 energy: -142.119064369574 gnorm: 0.003472183149 xtb: 6.4.1 (a3dbbd7)
C        -1.30841753371587    0.00779093366104    3.56313417827980
C        -0.37363388226976   -1.15226128151870    3.26627591883382
C         0.95330241050671   -0.70809468279726    3.26934403827520
C         0.96252778553112    0.71473181119619    3.25092228458781
C        -0.39322179801149    1.17676157101174    3.27713217681811
C         2.31065439188683   -2.56824951451283    0.58212181632966
C         3.15866294734159   -1.39946566903742    0.58310140852477
C         2.95389589572159   -0.69069653031224    1.80305955047724
C         2.07902332192911   -1.51210025176360    2.72318961757003
C         1.57635566394223   -2.59471693971336    1.79965555718284
C         3.17214125753061    1.41002023559888    0.57650619654603
C         2.32796353017419    2.57761909629314    0.57775519588098
C         1.57054129283820    2.57495696431251    1.80500932004664
C         1.94469816027964    1.42450795496134    2.55939439679399
C         2.93663486926875    0.68545673214194    1.79700009739877
C        -0.36662293940728    3.44270107482791    0.57731816920002
C        -1.73921958211645    3.00138572507121    0.57159589707515
C        -1.98777231747441    2.28635555902654    1.79139436820835
C        -0.74597510153200    2.28637516466695    2.56203455158917
C         0.24109540244453    3.00373832909410    1.80196306687837
C        -3.37070808452577    0.72489815423219    0.56931254182415
C        -3.36520502414462   -0.71563668622742    0.57178685034141
C        -2.78236227751989   -1.15885344080020    1.79132573077536
C        -2.63938774306119    0.00694819533715    2.74675558981502
C        -2.78887653981305    1.17506503444186    1.79265492262587
C        -1.72746142208722   -2.98789326544771    0.56687916801892
C        -0.35993740863680   -3.43313143798949    0.56816906947837
C         0.25364421148132   -2.99020443697459    1.79216120735758
C        -0.74598409227701   -2.28706491841567    2.56567911945875
C        -1.96594878223418   -2.26853987150519    1.79187542764290
C        -0.24343179650276   -3.01020689624299   -1.84482805404335
C         0.74885449345652   -2.28876632866032   -2.59861184493403
C         1.97300343605948   -2.28660270425547   -1.83403565198494
C         1.73358188500460   -3.00607904124071   -0.61067332939793
C         0.36891560078134   -3.45030842670095   -0.61497440905084
C         2.78938196539881   -1.16326569964425   -1.83294669840229
C         2.41376644436836    0.00224584477854   -2.59241888053981
C         2.79366878928275    1.16807545672435   -1.83386473288797
C         3.40482384865282    0.72055968593056   -0.60836173303729
C         3.39959114117964   -0.71497024193438   -0.60607262718844
C         1.97397570766544    2.28961103363211   -1.82974674958006
C         0.74953565753837    2.29077997111615   -2.58924021009587
C        -0.24379819806679    3.01044138042225   -1.83238842480216
C         0.36598753315057    3.45325585620703   -0.60472350342532
C         1.73766693142516    3.00791823052133   -0.60279703189483
C        -1.56628716247600    2.58514524510956   -1.84128422784985
C        -1.94258816415984    1.41868266478017   -2.60111414836233
C        -2.93397615402078    0.69707980141726   -1.84647089827624
C        -3.16417609380442    1.41920884300507   -0.61826436958439
C        -2.32700706592120    2.58329264720612   -0.61843207149827
C        -2.93305298572231   -0.69060351734667   -1.84471380992482
C        -1.94175133562357   -1.41394519305867   -2.60424220965953
C        -1.56424153134381   -2.58023132048584   -1.84684017695571
C        -2.32056667732889   -2.57408745276932   -0.61989196880867
C        -3.16126481081193   -1.41151702701195   -0.61959076624466
C        -0.98421997054675   -0.71810524741223   -3.33221267772377
C        -0.98420290739822    0.72404683549382   -3.33047067440240
C         0.38578872552090    1.16793246608536   -3.32448816807044
C         1.23307323517104    0.00306697149318   -3.32459868863495
C         0.38558281930528   -1.16384703043967   -3.32876424976112
Cl       -1.59459404654639   -0.01332800059227    5.35013059653168
Cl       -4.10601819233460    0.00267493017393    3.81175389208537
Cl        3.05954261570570   -2.22285173605908    4.09988881046264
63
 energy: -142.119089690888 gnorm: 0.001874604874 xtb: 6.4.1 (a3dbbd7)
C        -1.30920241333044    0.00807278908563    3.56350790934250
C        -0.37390942559103   -1.15154212964522    3.26687782686410
C         0.95278533253711   -0.70834962087832    3.26962394153716
C         0.96207802528892    0.71437161901535    3.25137424736662
C        -0.39362406338420    1.17655936858158    3.27809309518553
C         2.30998285992668   -2.56730642704377    0.58184832569819
C         3.15835478662157   -1.39911757363540    0.58261502015080
C         2.95334886045269   -0.69125395301027    1.80284450634108
C         2.07885912632511   -1.51202308144255    2.72352106806206
C         1.57624318975508   -2.59369681849504    1.79941312713269
C         3.17143546991502    1.40869564093090    0.57581080928916
C         2.32726072044958    2.57585845767885    0.57724286236056
C         1.56954536943761    2.57324886231236    1.80420072543519
C         1.94342950157483    1.42329440133302    2.55867320128593
C         2.93593566459591    0.68447694488853    1.79663296458366
C        -0.36676549136974    3.44084115046952    0.57731131242023
C        -1.73891060772761    2.99939317150675    0.57156137273843
C        -1.98829517012152    2.28543787171424    1.79171438170170
C        -0.74650154051305    2.28570955027297    2.56268815889879
C         0.24066066947942    3.00167704377631    1.80174777147846
C        -3.37047799973006    0.72467520371856    0.56955254438445
C        -3.36465419374518   -0.71546719423346    0.57220212312583
C        -2.78307565287864   -1.15862715648986    1.79214801200784
C        -2.63935982588256    0.00723187025762    2.74718602661930
C        -2.78964129486233    1.17485905642855    1.79299852734749
C        -1.72674462795716   -2.98561672178289    0.56721947271102
C        -0.35962088170872   -3.43056373792956    0.56834920711105
C         0.25395262509086   -2.98861707413128    1.79254316806352
C        -0.74611621164533   -2.28575662396961    2.56596308308282
C        -1.96637675953497   -2.26757361871686    1.79267469412591
C        -0.24304673071774   -3.00872819029159   -1.84516410377559
C         0.74902561213034   -2.28784621907744   -2.59932806930119
C         1.97247401114258   -2.28546874117163   -1.83408709403575
C         1.73302541786631   -3.00456472231940   -0.61087860965733
C         0.36864346357960   -3.44776166354728   -0.61486283755971
C         2.78885690726231   -1.16257434572242   -1.83323092150960
C         2.41377763900095    0.00239199072522   -2.59350750003643
C         2.79344784642007    1.16786210569766   -1.83469412906561
C         3.40402968910116    0.72026648717626   -0.60905016490552
C         3.39883733711276   -0.71464223955841   -0.60638816237952
C         1.97390770300074    2.28901520016531   -1.83025769372701
C         0.74978487457630    2.29024790732565   -2.58967795352742
C        -0.24342017028141    3.00925676116809   -1.83257841158431
C         0.36575946171445    3.45140528243324   -0.60458724459420
C         1.73737760586506    3.00629345468009   -0.60302952204009
C        -1.56540470808044    2.58395183211487   -1.84139291881678
C        -1.94160826981971    1.41806009356518   -2.60154812725674
C        -2.93259796499654    0.69685865292582   -1.84609096315649
C        -3.16313438934751    1.41846083410063   -0.61784300606801
C        -2.32582652054778    2.58170023935766   -0.61837749203049
C        -2.93164342066568   -0.69045113305103   -1.84419809560596
C        -1.94086269174222   -1.41336434757376   -2.60460976223716
C        -1.56338829638309   -2.57901322383905   -1.84692207326179
C        -2.31910320641039   -2.57237314778299   -0.61952321994560
C        -3.16010535017177   -1.41082532352211   -0.61907673126671
C        -0.98376333177544   -0.71793763636151   -3.33284441516611
C        -0.98356293371726    0.72393861689803   -3.33108331016458
C         0.38627480947498    1.16795762720501   -3.32528674983149
C         1.23348503668193    0.00322234182037   -3.32568429864407
C         0.38601017541648   -1.16353280669744   -3.32970077992245
Cl       -1.59947192349710   -0.01463983508911    5.34962673202426
Cl       -4.10228062765608    0.00338577812835    3.81667292248519
Cl        3.05987725310423   -2.22173729134793    4.10028296600469
63
 energy: -142.119092769545 gnorm: 0.000360892069 xtb: 6.4.1 (a3dbbd7)
C        -1.30945622228741    0.00799043890102    3.56269159507492
C        -0.37347262606713   -1.15139267328082    3.26617513157426
C         0.95266527645292   -0.70862701890332    3.26950453400205
C         0.96155214844371    0.71477622421856    3.25094602236323
C        -0.39325237737769    1.17675260982297    3.27799763742546
C         2.30963287467353   -2.56699834184337    0.58190430632304
C         3.15798867457590   -1.39889714018361    0.58257867815885
C         2.95341269609079   -0.69124420284260    1.80278977276223
C         2.07877654913340   -1.51202005957240    2.72364355930870
C         1.57617282118338   -2.59361039469306    1.79929732671049
C         3.17112559391338    1.40853118888381    0.57577671068047
C         2.32694269594439    2.57568815302000    0.57725112624041
C         1.56934935126299    2.57314092654248    1.80425444194235
C         1.94343572415922    1.42340852755634    2.55890994092062
C         2.93578423067912    0.68442805200821    1.79643839334046
C        -0.36683014217914    3.44079696143934    0.57723757745557
C        -1.73886545052478    2.99949069830022    0.57161768967661
C        -1.98835567965694    2.28587864671434    1.79196877118695
C        -0.74666324458422    2.28627705612465    2.56285919676480
C         0.24055678014169    3.00171851037766    1.80199215251538
C        -3.36995657794865    0.72464913747059    0.56971004881904
C        -3.36429446095371   -0.71560125936787    0.57247493760790
C        -2.78311388279875   -1.15875006881396    1.79217562369186
C        -2.63892758899418    0.00733520903311    2.74734268245611
C        -2.78923615405535    1.17489173526814    1.79248322361528
C        -1.72664158674621   -2.98556614135192    0.56737098656393
C        -0.35955910886583   -3.43052945968119    0.56843104170792
C         0.25388535926416   -2.98892650187613    1.79269324057769
C        -0.74622824524811   -2.28636349841149    2.56626163532310
C        -1.96632064606689   -2.26776422926235    1.79288325733206
C        -0.24301074919449   -3.00846124739139   -1.84505665508985
C         0.74907035161006   -2.28759469722583   -2.59926350231731
C         1.97239018540943   -2.28522939593164   -1.83401464827702
C         1.73292507931598   -3.00466108513368   -0.61084324012845
C         0.36874766944866   -3.44758019402012   -0.61481120017886
C         2.78870171701845   -1.16246351668778   -1.83336527945692
C         2.41370102816383    0.00230485354972   -2.59349450338213
C         2.79333224101038    1.16782218605919   -1.83472966255239
C         3.40396014981245    0.72007845636504   -0.60905540969798
C         3.39903335245418   -0.71446556426073   -0.60630585321853
C         1.97376842140338    2.28875967443656   -1.83017818601454
C         0.74966269340804    2.29000439831900   -2.58961253578934
C        -0.24350017106681    3.00899863670182   -1.83252113917011
C         0.36567954033441    3.45127523027490   -0.60450372365306
C         1.73728143919212    3.00606583718818   -0.60300968282657
C        -1.56530775150626    2.58377624891959   -1.84128136484931
C        -1.94157464293334    1.41788954858287   -2.60147979692997
C        -2.93231335517338    0.69676043737655   -1.84615221342647
C        -3.16312092908748    1.41861787169808   -0.61768366869473
C        -2.32587083455862    2.58140595854546   -0.61821357010078
C        -2.93130063696214   -0.69040669207663   -1.84413142112376
C        -1.94060839781342   -1.41318137321462   -2.60440755198617
C        -1.56316065189813   -2.57888194576507   -1.84679861207465
C        -2.31901079156501   -2.57212900070108   -0.61932837937323
C        -3.15996619209956   -1.41100149163325   -0.61882645965070
C        -0.98368629419243   -0.71783058512955   -3.33295111692475
C        -0.98359145886640    0.72380949706623   -3.33123178575570
C         0.38626641073080    1.16792664183661   -3.32539720432022
C         1.23349562602222    0.00319107698666   -3.32589972217957
C         0.38619621037764   -1.16347552443012   -3.32985396250820
Cl       -1.60175212234076   -0.01598691137477    5.34807839178802
Cl       -4.10049853924019    0.00482953103214    3.81791586432122
Cl        3.05992497033076   -2.22192433645864    4.09996429931273
63
 energy: -142.119093039318 gnorm: 0.000151043461 xtb: 6.4.1 (a3dbbd7)
C        -1.30947087867087    0.00798807617046    3.56300233356788
C        -0.37350470753619   -1.15137675834508    3.26609402251427
C         0.95261755232959   -0.70862936608623    3.26942133812631
C         0.96157441672405    0.71482608847704    3.25104384591432
C        -0.39331479736957    1.17674648967785    3.27804426696998
C         2.30965159170679   -2.56704903257364    0.58193013664173
C         3.15804263755601   -1.39892974554468    0.58259688168221
C         2.95336828154049   -0.69123795922025    1.80281546976302
C         2.07880857953909   -1.51206675452738    2.72366323823475
C         1.57617819637400   -2.59366503660814    1.79931256868403
C         3.17118250264419    1.40857623931826    0.57583433930120
C         2.32697398354848    2.57573745732617    0.57727107610763
C         1.56933895156415    2.57321005159359    1.80425506631889
C         1.94336688687877    1.42342134945596    2.55887366526842
C         2.93580165567443    0.68445021894702    1.79648971624940
C        -0.36684506007877    3.44082617408865    0.57723095181725
C        -1.73890701036070    2.99952699777815    0.57160282801158
C        -1.98840118569896    2.28591022663726    1.79197386174264
C        -0.74671426204753    2.28628442040896    2.56287832952489
C         0.24053383356852    3.00172406541533    1.80201466211010
C        -3.37000087813006    0.72463249211822    0.56965787330028
C        -3.36434856845659   -0.71563174082324    0.57244933704358
C        -2.78318340747214   -1.15877475004313    1.79219612174303
C        -2.63902815834757    0.00734328386422    2.74741484602800
C        -2.78922937285713    1.17487787507785    1.79244582528873
C        -1.72667257722865   -2.98561464097420    0.56733142930646
C        -0.35957479678074   -3.43057591568361    0.56841756455722
C         0.25387367749661   -2.98895955901219    1.79270648147172
C        -0.74630993794051   -2.28644167672394    2.56626437988646
C        -1.96634317387648   -2.26778676794957    1.79286666659447
C        -0.24302479175172   -3.00850260186695   -1.84508684069957
C         0.74908756068245   -2.28763704017757   -2.59928713867410
C         1.97242849070819   -2.28528595690791   -1.83402241153391
C         1.73291082991450   -3.00465809844443   -0.61083982347004
C         0.36872988795636   -3.44761247161967   -0.61480736403437
C         2.78875716037185   -1.16250725249153   -1.83336737447952
C         2.41373435066720    0.00229832872567   -2.59349297321599
C         2.79338140164227    1.16784388951769   -1.83473964330165
C         3.40397939474959    0.72012110840536   -0.60902327007846
C         3.39900132536135   -0.71445711021135   -0.60626923534957
C         1.97380145552316    2.28880851180417   -1.83019278776048
C         0.74969621869235    2.29005619416442   -2.58964216119136
C        -0.24349410909963    3.00903265680894   -1.83254180343282
C         0.36567048155305    3.45128081376827   -0.60448432846466
C         1.73731012553439    3.00610453785529   -0.60299971369946
C        -1.56532069597586    2.58381199785465   -1.84131790073070
C        -1.94159603041214    1.41790677445544   -2.60151626837518
C        -2.93239948574823    0.69677634290135   -1.84622327849201
C        -3.16310632678216    1.41861243870260   -0.61772979107402
C        -2.32588472212277    2.58144171511094   -0.61824493547455
C        -2.93137607552215   -0.69041187044477   -1.84417577089983
C        -1.94066404716602   -1.41320554822799   -2.60445774869225
C        -1.56319035693804   -2.57891952066837   -1.84684747869338
C        -2.31903911368616   -2.57218341448076   -0.61936194536164
C        -3.15996885334269   -1.41101019273356   -0.61887168700737
C        -0.98372267132053   -0.71785518399213   -3.33299319305813
C        -0.98359912994790    0.72381957837031   -3.33125370550134
C         0.38629219569094    1.16795805422652   -3.32543768374098
C         1.23351724919848    0.00319137266421   -3.32591628285281
C         0.38619443780848   -1.16350352585678   -3.32988059908385
Cl       -1.60034709024878   -0.01622596207442    5.34870543133772
Cl       -4.10105745194053    0.00503970708231    3.81733748073734