63
 energy: -142.067586761116 gnorm: 0.139506377115 xtb: 6.4.1 (a3dbbd7)
C        -1.32333194775417    0.00617886347970    3.59125188963251
C        -0.38909456310608   -1.27772716531095    3.58793274117145
C         0.98734837171535   -0.72675165446744    3.28582848483634
C         0.97037352147027    0.69420630050098    3.25749094477592
C        -0.37633960723915    1.14742685553706    3.29074190055216
C         2.33092254703306   -2.58746567485154    0.56610397604514
C         3.16875994483946   -1.41579758165486    0.56774606192583
C         2.91978889080344   -0.69314490348597    1.79074016083681
C         1.93018806170321   -1.40549148670748    2.54814074589443
C         1.57476788296703   -2.59634073810083    1.79100274817011
C         3.18328087896891    1.41909085132624    0.57258499213333
C         2.33432229320876    2.58580968143883    0.57559918777772
C         1.57332139543398    2.57095369604789    1.79851755002390
C         1.94352282881158    1.40414426944103    2.54285112768194
C         2.93804115459266    0.69543633516321    1.79366637265872
C        -0.36752716666001    3.44413435035873    0.58029879258012
C        -1.74013210357057    3.00741588983283    0.58054459941955
C        -1.97818665379860    2.28654468588757    1.80361199533287
C        -0.73393250395930    2.25581684802015    2.55761528373596
C         0.24647420110131    2.98080949443068    1.80023381740862
C        -3.39591089216029    0.72883802558845    0.57533866561121
C        -3.37932885665645   -0.70504006359254    0.57786353554246
C        -2.74934612856665   -1.12865052488571    1.82052481704193
C        -2.40026274086307   -0.01382700939334    2.55826017594831
C        -2.77435746218519    1.16021035149421    1.80187148511327
C        -1.70577977915925   -3.00504292266898    0.57191390059864
C        -0.34657433486683   -3.46193150719564    0.56452064530943
C         0.25810980605866   -3.00738238851431    1.79111395103090
C        -0.74203335365356   -2.29289841924391    2.55243835495534
C        -1.91196172287597   -2.27950749485726    1.81757326885181
C        -0.23558165862281   -3.01371296632646   -1.83961821271520
C         0.75175047781152   -2.28700579367404   -2.59867644532734
C         1.98089777627659   -2.28868303835222   -1.84308617931945
C         1.74918768154887   -3.01946296828987   -0.62050040464920
C         0.38088379041600   -3.46658963937948   -0.62079308111870
C         2.79204993046375   -1.16413556659148   -1.83875967224219
C         2.41002754086118    0.00666527739579   -2.59106683151125
C         2.78807241943814    1.16926264052202   -1.83130610074559
C         3.40298548527550    0.72369088805355   -0.60835037131266
C         3.40110069057525   -0.71955382898331   -0.60923004493565
C         1.96912615256614    2.29475463280888   -1.82840259178522
C         0.74474441569639    2.29528025280401   -2.58515694980539
C        -0.24988429155059    3.01642431380723   -1.82795956514323
C         0.36353023978106    3.45499162487799   -0.59844520421847
C         1.73735095077191    3.01278425815446   -0.60243935985793
C        -1.56944867307335    2.59059487249377   -1.83048045584010
C        -1.94787757007795    1.42311330884846   -2.58910001301826
C        -2.94122296022124    0.70465889669871   -1.83002690890673
C        -3.17947337159538    1.42642572884929   -0.60816005298080
C        -2.33307692209202    2.59081264516620   -0.60600270171083
C        -2.93172079240255   -0.68656028280689   -1.82266620418654
C        -1.94059925011627   -1.40887980593779   -2.58138532694875
C        -1.55636984787224   -2.57670213587000   -1.82754179967090
C        -2.29848528094837   -2.57416283302738   -0.59738768824741
C        -3.15456863482430   -1.39758782868201   -0.59434922362650
C        -0.98936986995949   -0.71482485845558   -3.31408037280858
C        -0.99159024528376    0.72723605185279   -3.31429029098428
C         0.38014149579772    1.17201579903766   -3.31523274930469
C         1.22728121177112    0.00778684511203   -3.31823795360647
C         0.38205649969615   -1.16057927312445   -3.31917058806611
Cl       -2.09995733548554    0.29360223981566    5.20530702406437
Cl       -0.35034641589922   -2.11046483688082    5.19906768498811
Cl       -0.35680398482438   -4.55466727992748   -2.78135328747067
63
 energy: -142.091534932961 gnorm: 0.062350291137 xtb: 6.4.1 (a3dbbd7)
C        -1.32284856896250    0.00582743361465    3.59031552122669
C        -0.38760308772286   -1.27697136125268    3.58751409771523
C         0.98880644091061   -0.72543823126609    3.28602408911280
C         0.97067008286693    0.69530665805838    3.25692266247523
C        -0.37611140181964    1.14743746151754    3.28982798909606
C         2.33636753174053   -2.58498555646329    0.57559427200655
C         3.17231153103912   -1.41182050052204    0.57144384639935
C         2.92440951031953   -0.68992641088610    1.79395042703829
C         1.93447782219352   -1.40341030324312    2.55095724643762
C         1.58359777624759   -2.59638752391629    1.79835841424596
C         3.18461650295213    1.42205070363616    0.57411091211774
C         2.33507974738312    2.58759618224625    0.57650421537270
C         1.57391623731104    2.57265836593581    1.79911356120015
C         1.94441601247226    1.40639573671793    2.54348999174789
C         2.93976716621558    0.69838590290001    1.79563833264794
C        -0.36648090967348    3.44516180200407    0.58089207519090
C        -1.73941307771944    3.00809323935682    0.58156262083063
C        -1.97781345941740    2.28733888845083    1.80460693130629
C        -0.73389278803688    2.25641461357388    2.55736717415975
C         0.24682474573625    2.98227883732917    1.80000194901303
C        -3.39788072705444    0.73254146806110    0.57711458011924
C        -3.38475101151049   -0.70155724727447    0.57930459647949
C        -2.75111485264695   -1.12831035517384    1.81937750143915
C        -2.39958673541742   -0.01458657503533    2.55663439521112
C        -2.77443850478099    1.16101647675019    1.80318754826797
C        -1.70876283420163   -2.99964912128078    0.57536099594836
C        -0.34080466236715   -3.44797410687527    0.57069155089136
C         0.26273735475622   -3.00588315436927    1.79928711875837
C        -0.73834324925516   -2.29175898618163    2.55230718180819
C        -1.91350800234916   -2.27951413605530    1.81360987658355
C        -0.24289305986594   -3.10488948058217   -1.89377394114174
C         0.75982028482059   -2.27284467735286   -2.59332766250438
C         1.97701130916678   -2.27789879936903   -1.83584469041105
C         1.74705855219165   -3.00986135003180   -0.61265610026711
C         0.38799490621415   -3.45773797332641   -0.60537248156758
C         2.79780892000136   -1.15654261207213   -1.83800415466413
C         2.41656254265941    0.01047729982705   -2.59061292526763
C         2.79159709881304    1.17289362331637   -1.82982977929189
C         3.40628472580953    0.72742637317316   -0.60682802484252
C         3.40439604671874   -0.71533616937009   -0.60710940386503
C         1.97090699757929    2.29659169284198   -1.82737158876508
C         0.74540423540257    2.29670934944477   -2.58368248625617
C        -0.24894916927211    3.01891053904757   -1.82775746335341
C         0.36400446050821    3.45599203994030   -0.59860504094866
C         1.73820546437241    3.01407082123665   -0.60211487614953
C        -1.57003582626821    2.59284529953147   -1.82950964279917
C        -1.94948418340581    1.42643675959947   -2.58628420166269
C        -2.94813557507380    0.71090563859108   -1.82907771635808
C        -3.18228252656971    1.43045327032676   -0.60603379407558
C        -2.33266783670598    2.59305605314118   -0.60478488984115
C        -2.94374997367329   -0.67803454872978   -1.82102814959973
C        -1.94565102242468   -1.40041944882869   -2.57138255552788
C        -1.58306995716972   -2.57255787509894   -1.82859169059514
C        -2.30230208555444   -2.56023705891451   -0.59942231104236
C        -3.16637413812089   -1.39039649811828   -0.59435057421649
C        -0.99105136975256   -0.71018777127273   -3.30997684679570
C        -0.99125285528678    0.72798079645876   -3.31092668712672
C         0.38152813631742    1.17355187610985   -3.31351216565754
C         1.23185306204872    0.01291086250397   -3.31789971702796
C         0.38598642284721   -1.15153917182368   -3.30790622684585
Cl       -2.09975693260839    0.29411136726387    5.20393628222702
Cl       -0.34998324752464   -2.11137473873074    5.19821365960728
Cl       -0.36349637987254   -4.67925138548368   -2.85460357862982
63
 energy: -142.097718825623 gnorm: 0.015147271976 xtb: 6.4.1 (a3dbbd7)
C        -1.32120064384278    0.00782344312472    3.58949392453398
C        -0.38626205068875   -1.27410405453141    3.58461758450804
C         0.99135071274941   -0.72236479837755    3.28784735434861
C         0.97194145082804    0.69843349689046    3.25766275966933
C        -0.37471764618337    1.14975890145335    3.28999839645574
C         2.33571790144398   -2.58040412832861    0.57973925001019
C         3.17331535950904   -1.40746393181072    0.57439781119884
C         2.92823149595176   -0.68531767164251    1.79700101634078
C         1.93883185897119   -1.40040585864960    2.55492712512336
C         1.58778327998834   -2.59140050712641    1.80031794515174
C         3.18628576649859    1.42690249336557    0.57670807756808
C         2.33626395528923    2.59145511071064    0.57868949699653
C         1.57506198065545    2.57656603197221    1.80123175415073
C         1.94615988403729    1.41078045445120    2.54563912816276
C         2.94192831895188    0.70307067760355    1.79863956143085
C        -0.36551072390427    3.44843380933467    0.58296035884146
C        -1.73871770148145    3.01093538790263    0.58353918482325
C        -1.97665575118299    2.28950281544344    1.80633543239071
C        -0.73315878415284    2.25919598810151    2.55848760816015
C         0.24765824635670    2.98567499372731    1.80112151299923
C        -3.39976611154409    0.73704356323717    0.57910995935654
C        -3.38462547775641   -0.69801631867571    0.57969424994204
C        -2.75136872013428   -1.12670118171718    1.81845904511633
C        -2.39756357549669   -0.01373585562843    2.55514278130351
C        -2.77403006540600    1.16350342188927    1.80473595481152
C        -1.71268720838903   -3.00067318678619    0.57791673057782
C        -0.33751951224199   -3.44300559710952    0.56754560538342
C         0.26332959908566   -2.99795701675900    1.79665053220861
C        -0.73524560855215   -2.28805551113546    2.54839998060379
C        -1.91497632793546   -2.27945935810401    1.80602287984038
C        -0.24706546542206   -3.18813277826584   -1.94182753371679
C         0.76090552521921   -2.27391546517603   -2.59321100744082
C         1.96461423429504   -2.27058603352317   -1.83084404837755
C         1.73714434574247   -3.00264009561432   -0.60868108798018
C         0.38908924094061   -3.46005315710837   -0.60156485587860
C         2.79550745218642   -1.15121805415871   -1.83461144912061
C         2.41694886172357    0.01271351640154   -2.58509930575119
C         2.79415095984721    1.17721330369379   -1.82766086773697
C         3.40826940001056    0.73176157142962   -0.60417482713425
C         3.40450254284555   -0.71114189415888   -0.60468930327792
C         1.97218728511306    2.29980416413069   -1.82527769706607
C         0.74513859342126    2.29862637474618   -2.58083535681913
C        -0.24830284882639    3.02275377396938   -1.82593893738089
C         0.36425267774811    3.45890261783942   -0.59725562308585
C         1.73884556176132    3.01696659604993   -0.60049649704619
C        -1.57001203023763    2.59552149355984   -1.82710699571677
C        -1.95027358109007    1.42995990402370   -2.58296277934440
C        -2.94973326038338    0.71500554008000   -1.82675822040071
C        -3.18470833621383    1.43515514036623   -0.60382411466118
C        -2.33238149521285    2.59690188421627   -0.60246274024065
C        -2.94367668159381   -0.67360536239116   -1.81891748191154
C        -1.94219331897452   -1.40096313616777   -2.56375068609835
C        -1.58774638206881   -2.56788181753110   -1.82448046361355
C        -2.29689921822668   -2.55466582210034   -0.60500723221777
C        -3.16520973889774   -1.38600486262612   -0.59406508495392
C        -0.99298949805686   -0.70966699976253   -3.30971106217515
C        -0.99155197779121    0.72631078735878   -3.30553256887185
C         0.38106126365999    1.17402822149957   -3.30828466068334
C         1.22894937126134    0.01266240385061   -3.30828410371408
C         0.38616262137430   -1.15420997468946   -3.29989729976995
Cl       -2.10027476587630    0.29499692106966    5.20186948128861
Cl       -0.35104411476909   -2.11521570223634    5.19250770620996
Cl       -0.37358950940245   -4.77285436799442   -2.90915604773660
63
 energy: -142.098052033166 gnorm: 0.009076413726 xtb: 6.4.1 (a3dbbd7)
C        -1.31976978896596    0.00915990224894    3.58854364893773
C        -0.38550315442271   -1.27209109543405    3.58181048973691
C         0.99263743626266   -0.71998829807020    3.28852405964350
C         0.97316799911425    0.70090576796388    3.25870417290601
C        -0.37357090674165    1.15161600785641    3.29026659378308
C         2.33362857631211   -2.57765717454528    0.57932201602603
C         3.17249264907368   -1.40520182319813    0.57546426053855
C         2.92968927940872   -0.68282261348181    1.79843313024405
C         1.94019268723172   -1.39842460620972    2.55629770222463
C         1.58776350544684   -2.58822969160513    1.79973243098308
C         3.18752698784450    1.42974083113358    0.57806227810393
C         2.33733227098867    2.59419670243247    0.57992620887094
C         1.57600647663049    2.57931315323804    1.80255875059212
C         1.94759718839134    1.41369920981396    2.54720451629526
C         2.94350632083692    0.70576667432236    1.80034163465609
C        -0.36513794692904    3.45064805307802    0.58398576986217
C        -1.73840837870940    3.01260666637977    0.58430396061242
C        -1.97598893907567    2.29068125953879    1.80700440524230
C        -0.73252825773466    2.26115271273090    2.55912100236508
C         0.24830409628229    2.98799452311270    1.80195514041757
C        -3.39970626569470    0.73823436511920    0.57953772581787
C        -3.38318449178926   -0.69713527715657    0.57936824619515
C        -2.75077346983123   -1.12599875720624    1.81805006599019
C        -2.39615571543409   -0.01305687343051    2.55441535953831
C        -2.77348434283043    1.16459770568047    1.80511697986681
C        -1.71532009615027   -3.00415993902030    0.57939465225958
C        -0.33802211586048   -3.44610194671749    0.56482479285245
C         0.26265322690992   -2.99377089610584    1.79277039116050
C        -0.73410381678576   -2.28544934792284    2.54498239446718
C        -1.91613530722290   -2.28013913044535    1.80325171393144
C        -0.24690995624617   -3.20805425597722   -1.95255157416380
C         0.75961687791415   -2.28165387095311   -2.59742386429752
C         1.95968707063140   -2.27043008852523   -1.83019146970820
C         1.73312411689029   -3.00223325842932   -0.60839989685438
C         0.38769130866516   -3.46827416551900   -0.60467950088655
C         2.79193382823701   -1.15039046633531   -1.83174587705902
C         2.41499779498488    0.01289211240308   -2.58155647692385
C         2.79424972501348    1.17882800351343   -1.82621550154411
C         3.40863921671770    0.73382428067980   -0.60274107988843
C         3.40291535828831   -0.70926128633477   -0.60320412563938
C         1.97226488842240    2.30126973958721   -1.82373945407338
C         0.74475139412783    2.29891711253191   -2.57890964060346
C        -0.24808598362714    3.02451452993783   -1.82486695453653
C         0.36450726424543    3.46095612694297   -0.59637281147200
C         1.73936111637428    3.01918696316176   -0.59942884087903
C        -1.56962109254481    2.59651106896933   -1.82607593482091
C        -1.95017097282200    1.43100205418246   -2.58193484901296
C        -2.94871166013964    0.71545697806984   -1.82575124725798
C        -3.18476890352607    1.43638787724800   -0.60322915181564
C        -2.33221603696302    2.59845184968025   -0.60163732119459
C        -2.94057339039002   -0.67351692340499   -1.81816748612352
C        -1.94004635770567   -1.40405460757547   -2.56375301768917
C        -1.58419144060936   -2.56904391530110   -1.82365209412091
C        -2.29430123458257   -2.55705417613073   -0.60756100072062
C        -3.16153916252473   -1.38557101543447   -0.59384964567069
C        -0.99404298850129   -0.71026614632100   -3.31152642388886
C        -0.99212075914049    0.72548635500526   -3.30378032299622
C         0.38021045850892    1.17310190599616   -3.30447914259063
C         1.22606181803156    0.01061598781356   -3.30251967378989
C         0.38501099163901   -1.15860167661865   -3.30010974794162
Cl       -2.09818054285272    0.29292710998464    5.20155561891076
Cl       -0.35484588674498   -2.11867646989532    5.18723299301570
Cl       -0.37947095079666   -4.78678949344582   -2.91696872829942
63
 energy: -142.098173565998 gnorm: 0.004646632982 xtb: 6.4.1 (a3dbbd7)
C        -1.31926960967945    0.00972159988816    3.58851888671500
C        -0.38504867173000   -1.27107066969533    3.58020947515563
C         0.99333840292694   -0.71880263055913    3.28915158068687
C         0.97378801056129    0.70212169587591    3.25959619074691
C        -0.37308674870202    1.15224252200913    3.29020397630311
C         2.33215222838626   -2.57554637513591    0.57890459542528
C         3.17203791096558   -1.40379731960038    0.57616413474113
C         2.93074206210912   -0.68161593933636    1.79955540539799
C         1.94103113328550   -1.39741037231412    2.55740283292156
C         1.58776029943671   -2.58640769079256    1.79964839965681
C         3.18839634566372    1.43118727057127    0.57874326690332
C         2.33794589727041    2.59545422353535    0.58044588490798
C         1.57644288935166    2.58043293127930    1.80312320072935
C         1.94834925594726    1.41502968464724    2.54812198992550
C         2.94453842591617    0.70703570222124    1.80139028987702
C        -0.36501747634536    3.45147757216433    0.58418138388727
C        -1.73831337841310    3.01307615724854    0.58430936087071
C        -1.97565129352550    2.29082933686595    1.80699803453665
C        -0.73227594461268    2.26173071903170    2.55904566475997
C         0.24856993648281    2.98878105024409    1.80205222755598
C        -3.39947065845311    0.73835466747350    0.57953551457518
C        -3.38229398837038   -0.69705172404705    0.57934336342505
C        -2.75052227116185   -1.12593862063283    1.81832975968599
C        -2.39545937561876   -0.01289906229243    2.55430272506020
C        -2.77312212136183    1.16470627089857    1.80513185606398
C        -1.71778829583208   -3.00699752760219    0.58159895059452
C        -0.33865459878877   -3.44780547890515    0.56339559296564
C         0.26224933338305   -2.99083452128287    1.79026569718104
C        -0.73314206553553   -2.28354790836101    2.54248854059940
C        -1.91776295147089   -2.28153257019759    1.80236778926609
C        -0.24644656731155   -3.21743721456047   -1.95745621971021
C         0.75839839818056   -2.28648423423146   -2.60000471315962
C         1.95663567709577   -2.26987888356162   -1.82953845147123
C         1.73061065287944   -3.00130668402338   -0.60792665092282
C         0.38627815503321   -3.47315810222737   -0.60678275052184
C         2.78953981398121   -1.14979673622247   -1.82961691305329
C         2.41391084317960    0.01303790246538   -2.57966416944059
C         2.79443355760513    1.17979898255228   -1.82552878964025
C         3.40903985906361    0.73501767188291   -0.60211823538525
C         3.40187791349794   -0.70813711741834   -0.60221491458340
C         1.97224538188733    2.30192804582040   -1.82297138937959
C         0.74458903383719    2.29894999296588   -2.57818007920496
C        -0.24798639869274    3.02533895384523   -1.82466429923672
C         0.36463006960120    3.46189982146733   -0.59620325764933
C         1.73967093948793    3.02031700448644   -0.59902492014926
C        -1.56936144577248    2.59682468264223   -1.82592871820790
C        -1.95013015457322    1.43149630114287   -2.58193320496532
C        -2.94797423063642    0.71536719497850   -1.82550807096313
C        -3.18461220513240    1.43648616047329   -0.60318440804352
C        -2.33218245564648    2.59890327729345   -0.60163029482969
C        -2.93806887009221   -0.67367683542852   -1.81751024419464
C        -1.93819602296561   -1.40590891751094   -2.56406470137036
C        -1.58016214747541   -2.56892773866678   -1.82219102591906
C        -2.29213566780911   -2.55893175535157   -0.60877441809815
C        -3.15857828489182   -1.38536791705075   -0.59345177236016
C        -0.99474743315141   -0.71009786800194   -3.31338950663735
C        -0.99255812857037    0.72528549061126   -3.30361227974915
C         0.37973248804320    1.17232674592591   -3.30227919636700
C         1.22446308370472    0.00925400268368   -3.29907018930966
C         0.38424490639713   -1.16091224487516   -3.30032173733567
Cl       -2.09824794752243    0.29676652868350    5.20062062065214
Cl       -0.35452018566355   -2.12669180818514    5.18139574614016
Cl       -0.38492369412276   -4.78666339219797   -2.91675716647019
63
 energy: -142.098194934418 gnorm: 0.002831885909 xtb: 6.4.1 (a3dbbd7)
C        -1.31832701810378    0.00941068889487    3.58725662130961
C        -0.38493455894691   -1.26994888445126    3.57813551671095
C         0.99394620108040   -0.71823850322760    3.28943215811830
C         0.97435180368294    0.70267727008690    3.25949775689589
C        -0.37257111705065    1.15246752705858    3.28983885016203
C         2.33172025478183   -2.57457208618396    0.57884680845324
C         3.17212044902130   -1.40330621338509    0.57637291084419
C         2.93145486573914   -0.68131659370677    1.79998657014536
C         1.94172427246618   -1.39716718371059    2.55810157921642
C         1.58794206140701   -2.58581672141926    1.80002725314666
C         3.18885970437053    1.43156429719363    0.57852142978037
C         2.33821319884423    2.59565577621910    0.58009933408017
C         1.57668834443235    2.58068189258809    1.80281763053666
C         1.94891318715148    1.41550758395685    2.54798133032027
C         2.94516660197866    0.70735163963181    1.80140811496235
C        -0.36501177878630    3.45137747596856    0.58381834038016
C        -1.73828438074438    3.01275945954475    0.58401449724247
C        -1.97551164358998    2.29044285903275    1.80675297159875
C        -0.73213427274205    2.26184606387520    2.55876671381333
C         0.24870917443239    2.98882180649711    1.80165088083758
C        -3.39929405381754    0.73798219636797    0.57931233038550
C        -3.38218627586494   -0.69738319918195    0.57922146315044
C        -2.75059107432889   -1.12631658783733    1.81843790155801
C        -2.39565437648677   -0.01331107363208    2.55438230804795
C        -2.77308617691520    1.16430947413156    1.80506204401886
C        -1.71928713692970   -3.00851701532870    0.58304148975367
C        -0.33892103859154   -3.44790077161596    0.56307393304489
C         0.26212735507144   -2.98967990635791    1.78954232845163
C        -0.73287212886184   -2.28308447757664    2.54128648372704
C        -1.91917090906922   -2.28297737148618    1.80224198431147
C        -0.24622539971715   -3.22007734555116   -1.95887595323658
C         0.75782725017933   -2.28759023347528   -2.60041707183225
C         1.95561066566879   -2.26920382959082   -1.82901956103810
C         1.72974444760555   -3.00025391858054   -0.60738204321686
C         0.38551615329848   -3.47396554368928   -0.60726421793281
C         2.78889207343877   -1.14953029414113   -1.82887282614365
C         2.41382692668012    0.01309688590845   -2.57947488021242
C         2.79470278655371    1.18010720459660   -1.82571341506061
C         3.40940677604304    0.73538592462531   -0.60236538794458
C         3.40166392676521   -0.70779449276676   -0.60200535031478
C         1.97223327209373    2.30194274056122   -1.82311214270398
C         0.74458777737633    2.29887873791288   -2.57851504116994
C        -0.24798594783403    3.02538275947611   -1.82506284553608
C         0.36462921706590    3.46193246207375   -0.59658118396356
C         1.73976403372001    3.02050557828634   -0.59936853354294
C        -1.56929014957994    2.59667631442091   -1.82626138343039
C        -1.95012458795457    1.43154711256297   -2.58242651522402
C        -2.94776707561867    0.71514801795184   -1.82579476171932
C        -3.18443509685252    1.43608760848089   -0.60341001572707
C        -2.33215772019979    2.59864957063549   -0.60195026369982
C        -2.93706535164749   -0.67380006768083   -1.81731584455883
C        -1.93711118056735   -1.40625744470898   -2.56410743108939
C        -1.57755525099142   -2.56787921895962   -1.82082338555261
C        -2.29090310631353   -2.55949103820582   -0.60915973977246
C        -3.15738221715238   -1.38533487548239   -0.59340519765930
C        -0.99494056481140   -0.70969789709107   -3.31444566035515
C        -0.99269880536738    0.72537611037909   -3.30432261170719
C         0.37967827019805    1.17197053013549   -3.30199874922091
C         1.22418583357472    0.00875991575827   -3.29822303866547
C         0.38412073991540   -1.16127969455055   -3.30017750466108
Cl       -2.09002231468214    0.28430122662442    5.20472479546320
Cl       -0.36615046747040   -2.11981347140098    5.18260086549315
Cl       -0.38874283151682   -4.78055445285519   -2.91336238948430
63
 energy: -142.098222315767 gnorm: 0.001914159195 xtb: 6.4.1 (a3dbbd7)
C        -1.31907984845377    0.00928837257724    3.58840156010480
C        -0.38509121526757   -1.27086221498392    3.57926134108415
C         0.99347913944891   -0.71885375494955    3.28957159127649
C         0.97382176063503    0.70208826225043    3.25963904886279
C        -0.37310057891109    1.15193473836280    3.28971295271286
C         2.33207843784564   -2.57483525267334    0.57895791232916
C         3.17233658525614   -1.40357239445735    0.57637146477598
C         2.93125682234083   -0.68171561766928    1.79998795838633
C         1.94144392114278   -1.39750553134426    2.55804779746037
C         1.58814210835425   -2.58624123822013    1.80028286313506
C         3.18854229857214    1.43108838391301    0.57847984662144
C         2.33787060051275    2.59507659423950    0.58003127565663
C         1.57631125989373    2.58004666236691    1.80271014126550
C         1.94835342532844    1.41485750062641    2.54789607873419
C         2.94474124670426    0.70686544397096    1.80133959872621
C        -0.36517891163187    3.45088841562234    0.58357708508853
C        -1.73843813613558    3.01235061846815    0.58375159006715
C        -1.97570187803507    2.29010489475516    1.80645937169253
C        -0.73240592329449    2.26125851100266    2.55843045174006
C         0.24842867623862    2.98826644805043    1.80143091136648
C        -3.39913785897132    0.73755690901079    0.57913580700181
C        -3.38224228713513   -0.69774352326115    0.57940546867039
C        -2.75058300550552   -1.12660031658790    1.81887807211514
C        -2.39577260804589   -0.01349608560138    2.55469393690200
C        -2.77300475195039    1.16388200674861    1.80483743577483
C        -1.71941031028964   -3.00840625484953    0.58355288765761
C        -0.33882998434140   -3.44715409503147    0.56339155909542
C         0.26223511818864   -2.98973631623410    1.78983794242450
C        -0.73268400576142   -2.28330175993123    2.54154127811159
C        -1.91951910570949   -2.28353351163694    1.80295516742279
C        -0.24630496221573   -3.21876186744443   -1.95822954840847
C         0.75794542481507   -2.28640645178258   -2.59957981841886
C         1.95611440864034   -2.26892134095630   -1.82885064206914
C         1.73014565282474   -2.99989014966192   -0.60716810703220
C         0.38551738310346   -3.47251911085452   -0.60672004443517
C         2.78945488088516   -1.14957787431350   -1.82906995433813
C         2.41426219947913    0.01311340016489   -2.57992739435587
C         2.79482512762552    1.17993837586893   -1.82585017576875
C         3.40939099589094    0.73514040737324   -0.60247021114136
C         3.40192066361570   -0.70802314552656   -0.60208453551772
C         1.97220479220944    2.30165050369860   -1.82324479666932
C         0.74467977872830    2.29880310034649   -2.57889808833858
C        -0.24804208965609    3.02506054609625   -1.82533033942106
C         0.36450025870156    3.46152372776854   -0.59676818499547
C         1.73958484015112    3.02005577684788   -0.59946306566503
C        -1.56936859229544    2.59641368160800   -1.82655842043685
C        -1.95012218429881    1.43134453744965   -2.58276684487036
C        -2.94792392702840    0.71496860584490   -1.82609539083640
C        -3.18438736271110    1.43569131522812   -0.60360544733619
C        -2.33224367912122    2.59826737643788   -0.60223151786090
C        -2.93734523461499   -0.67387415535674   -1.81728223858860
C        -1.93697268074268   -1.40571222586997   -2.56377730813488
C        -1.57709409376267   -2.56694491407037   -1.82004991236856
C        -2.29073263657850   -2.55903964215473   -0.60873383812953
C        -3.15763413952538   -1.38541527393121   -0.59332292661725
C        -0.99475386617535   -0.70948822710979   -3.31434576408359
C        -0.99256701129713    0.72550434973455   -3.30488182266144
C         0.37988996651426    1.17203761454735   -3.30259212025233
C         1.22468946060216    0.00895311279138   -3.29884948354060
C         0.38442408068240   -1.16060794562524   -3.29985958659262
Cl       -2.09512083682892    0.29569885518495    5.20204506881003
Cl       -0.35773193857014   -2.12924804034118    5.17954788102941