62
 energy: -137.533609668778 gnorm: 0.000108388178 xtb: 6.4.1 (a3dbbd7)
C        -1.28798969439829   -0.00950612694397    3.52305033803451
C        -0.37140717839823   -1.19506690185477    3.30538501247798
C         0.96626588977827   -0.73793206905282    3.26220174957823
C         0.94547747742527    0.71620221385852    3.24989461708692
C        -0.35942674437784    1.16696192441401    3.32527528288056
C         2.33358080765050   -2.59236730701965    0.57818245882867
C         3.17476484327390   -1.41899984701998    0.58058143737449
C         2.93415904616823   -0.70456981365166    1.80150185673495
C         1.94500561973434   -1.42853754138514    2.55284541368269
C         1.57573807294978   -2.59681119740270    1.80490175728367
C         3.16997278986444    1.41521064161338    0.57344171294202
C         2.32842150004317    2.58182761584625    0.57105666986554
C         1.56912136486880    2.58327790665504    1.79435910389218
C         1.95808153533798    1.41695102198698    2.55597652970942
C         2.92365129131670    0.69624255790865    1.80460161318898
C        -0.34604701920100    3.43148071298538    0.58467151735089
C        -1.71359124429810    2.97315210963869    0.58693893944982
C        -1.95647385346924    2.28337097166569    1.80922754418756
C        -0.78353346042438    2.46028151899877    2.74426505986316
C         0.26459913848616    3.02686376491614    1.81016989657225
C        -3.37472815873769    0.71186847465074    0.57266445857684
C        -3.38285872767492   -0.72109578748312    0.57322244154579
C        -2.76629946886752   -1.15926713077338    1.81097485070250
C        -2.41449192970378   -0.01848968368831    2.55946578815770
C        -2.73961577480730    1.14261229087864    1.79818538448823
C        -1.73402182428230   -3.01413091831341    0.58508136140179
C        -0.36139486853903   -3.46145647782436    0.57940047443123
C         0.25265810468616   -3.01949801202222    1.80617474578402
C        -0.73898572564676   -2.30516853387828    2.56846995809403
C        -1.97073440340078   -2.31485485183134    1.81183126406337
C        -0.24471923604808   -3.01380477597503   -1.82696542233219
C         0.74546532815127   -2.29117828458953   -2.58224659489081
C         1.97117939009121   -2.29172181345995   -1.82547493158685
C         1.74013627278217   -3.01579537002923   -0.60136047133674
C         0.36745253677733   -3.46069160665591   -0.60015270362938
C         2.78896315627973   -1.16734021878548   -1.82519678391698
C         2.41124266717590   -0.00197665581369   -2.58684436519334
C         2.78914320507419    1.16355139201243   -1.83220673808506
C         3.39896342575777    0.71950627318814   -0.60324419696828
C         3.40265548480017   -0.72431496521104   -0.60322553550958
C         1.97641997169456    2.29062734943424   -1.83653684065248
C         0.74748625092330    2.28756512183299   -2.59333118860783
C        -0.24212048567999    3.00611441114090   -1.83397753456883
C         0.37496864117140    3.44852621768961   -0.60588786672691
C         1.74260917309661    3.01235620953363   -0.61348244323583
C        -1.56182880062640    2.57624782468302   -1.83225269032905
C        -1.94379877498475    1.41303550975194   -2.59281844225142
C        -2.93723817686195    0.69175175962517   -1.83459797255669
C        -3.16249619256586    1.40882775990230   -0.60810088413061
C        -2.31388051576877    2.56780000497974   -0.60357039497831
C        -2.93568617178822   -0.69821569800411   -1.83173438127546
C        -1.94505284636010   -1.41870085871764   -2.58715175655093
C        -1.56667139602378   -2.58488168023242   -1.82441967317572
C        -2.32509400305884   -2.58918970928504   -0.60422889725599
C        -3.16792911765914   -1.41810698535527   -0.60433077956759
C        -0.98878123772902   -0.72438386695623   -3.31662278745317
C        -0.98904098534824    0.71674851961636   -3.32041836255048
C         0.38304941474932    1.16229502853828   -3.32076510677375
C         1.22842523678157   -0.00366679941649   -3.31669622775674
C         0.38189706713363   -1.16880225089476   -3.31648325870663
Cl       -1.93222212703896   -0.00497063144898    5.23638927909945
Cl       -1.19563023317110    3.68190286600761    4.06577622109837
