62
 energy: -137.503600924708 gnorm: 0.136162432611 xtb: 6.4.1 (a3dbbd7)
C        -1.29770965891222    0.00000000000000    3.53163224767276
C        -0.37107604425475   -1.17478800586359    3.31058196643012
C         0.97979757550459   -0.72157705231961    3.28110534952822
C         0.97979757550459    0.72157705231961    3.28110534952822
C        -0.37107604425475    1.17478800586360    3.31058196643013
C         2.33544184946295   -2.58264348698296    0.58346340581249
C         3.18207169571150   -1.41543014636129    0.58234433372313
C         2.94373959867916   -0.69404060100004    1.80708186552027
C         1.95046398470883   -1.41556779135961    2.56176558167067
C         1.57767488865866   -2.57871801508103    1.80912454278211
C         3.18207169571150    1.41543014636129    0.58234433372313
C         2.33544184946295    2.58264348698296    0.58346340581249
C         1.57767488865866    2.57871801508103    1.80912454278211
C         1.95046398470883    1.41556779135961    2.56176558167066
C         2.94373959867916    0.69404060100004    1.80708186552027
C        -0.36119281684147    3.44519252612879    0.58582996047390
C        -1.73469290191499    3.00153459982720    0.58916793337350
C        -1.97220713510261    2.29308475607878    1.81059639720294
C        -0.73400332666893    2.27691900303500    2.56853480078419
C         0.25309257506893    2.99789064535074    1.80898867763471
C        -3.39649784746455    0.71758744312072    0.57410478167568
C        -3.39649784746455   -0.71758744312072    0.57410478167568
C        -2.77168037603652   -1.14964415915414    1.80664876434809
C        -2.42168465399864    0.00000000000000    2.56054627302143
C        -2.77168037603652    1.14964415915414    1.80664876434809
C        -1.73469290191499   -3.00153459982719    0.58916793337351
C        -0.36119281684148   -3.44519252612879    0.58582996047390
C         0.25309257506893   -2.99789064535073    1.80898867763471
C        -0.73400332666892   -2.27691900303499    2.56853480078419
C        -1.97220713510261   -2.29308475607878    1.81059639720295
C        -0.24585893810850   -3.00970705822685   -1.82232538763502
C         0.74439012833927   -2.28841876480361   -2.57822875384061
C         1.97268106729833   -2.28861170675520   -1.82114897801170
C         1.74031203428013   -3.00832022201671   -0.59623578829480
C         0.36724813466371   -3.45114129717027   -0.59443426078026
C         2.79027372790168   -1.16551010025889   -1.82330670861298
C         2.41077011246349    0.00000000000000   -2.58030971859023
C         2.79027372790168    1.16551010025889   -1.82330670861298
C         3.40598095600767    0.72109250237888   -0.59875668403540
C         3.40598095600767   -0.72109250237888   -0.59875668403540
C         1.97268106729833    2.28861170675520   -1.82114897801170
C         0.74439012833927    2.28841876480360   -2.57822875384062
C        -0.24585893810850    3.00970705822685   -1.82232538763502
C         0.36724813466371    3.45114129717027   -0.59443426078026
C         1.74031203428013    3.00832022201671   -0.59623578829480
C        -1.56847069976934    2.58049680433801   -1.82122736601016
C        -1.94730857051169    1.41533687195356   -2.58360676406823
C        -2.94243160962768    0.69434475341889   -1.82977489504240
C        -3.17479380115303    1.41444285760430   -0.60326970185865
C        -2.32688654321742    2.58113588269429   -0.60086409487791
C        -2.94243160962768   -0.69434475341889   -1.82977489504240
C        -1.94730857051169   -1.41533687195356   -2.58360676406823
C        -1.56847069976934   -2.58049680433801   -1.82122736601016
C        -2.32688654321742   -2.58113588269429   -0.60086409487790
C        -3.17479380115303   -1.41444285760429   -0.60326970185865
C        -0.99138524268633   -0.72097607833148   -3.31029871234527
C        -0.99138524268633    0.72097607833148   -3.31029871234528
C         0.38054100031802    1.16548515734434   -3.30884687187952
C         1.22668597234242    0.00000000000000   -3.30783368151334
C         0.38054100031802   -1.16548515734434   -3.30884687187952
Cl       -1.93737486741132   -0.00000000000005    5.25509316806359
Cl       -1.11336930389149    3.47766560297735    3.86868442988572
62
 energy: -137.525777027952 gnorm: 0.061503649655 xtb: 6.4.1 (a3dbbd7)
C        -1.29834984558872   -0.01022786741101    3.54261912817348
C        -0.37283306697823   -1.18460275234124    3.31070687691065
C         0.97874770070688   -0.73172575117991    3.27630683912624
C         0.97430471299230    0.71216515965658    3.27495874436636
C        -0.36701638033881    1.15776070727556    3.33193813071524
C         2.33520048036532   -2.58339635919076    0.58299337471616
C         3.18285421625083   -1.41558126803685    0.58174796971873
C         2.94558623159084   -0.69464056215935    1.80314324205497
C         1.94865015773505   -1.41964846208644    2.55865379486455
C         1.57726675649762   -2.58169290058067    1.80753769327802
C         3.18450948769491    1.41471472432673    0.57803989109571
C         2.33923290340128    2.58288490889777    0.57430222313272
C         1.57764125959159    2.57485597607586    1.79476273471930
C         1.94967005539496    1.41378953200243    2.55514587424039
C         2.94483262699787    0.69382684610649    1.80334366226747
C        -0.35562627981995    3.43946803824708    0.57811547111016
C        -1.73278761845588    2.99751694548355    0.58316881859992
C        -1.97655215177425    2.29388168628165    1.79564412973547
C        -0.75709816160061    2.34927928879243    2.63690628899167
C         0.26036737635338    3.00256785411634    1.79030779879890
C        -3.39597733749967    0.71730499985382    0.57039070349874
C        -3.39220185719522   -0.71824938944492    0.57137943682467
C        -2.76380830356000   -1.14917381814824    1.80125996574004
C        -2.40983317350954   -0.00002697653153    2.55815779587900
C        -2.76167101579265    1.14645905514931    1.79721901283920
C        -1.73658989289407   -3.00481107066495    0.58824547368088
C        -0.36215842975521   -3.44766391713568    0.58517870032631
C         0.25171860093493   -3.00232705815190    1.80780321076040
C        -0.73478940834703   -2.28296208825170    2.56688605482138
C        -1.97417460385239   -2.29674967404528    1.80796613280889
C        -0.24554085189199   -3.01238080211533   -1.82262580618510
C         0.74528195524384   -2.29022605684962   -2.57732798518776
C         1.97368814593791   -2.29090660322695   -1.82204795280126
C         1.74008788400205   -3.00880112121035   -0.59627806711397
C         0.36687664254341   -3.45246309184011   -0.59479621149369
C         2.79127195506059   -1.16740289188971   -1.82422328426119
C         2.41135860852725   -0.00169658606067   -2.58147757213758
C         2.79266177657141    1.16472593680950   -1.82748507152967
C         3.40809473950083    0.72026201217915   -0.60252191315832
C         3.40709731116986   -0.72187856987688   -0.60150820848429
C         1.97650055420761    2.28829547426056   -1.82873976942231
C         0.74698186885694    2.28737639767126   -2.58309652642983
C        -0.24291932199325    3.01008831739664   -1.82669699590089
C         0.37311452849329    3.45321970472586   -0.60565699792821
C         1.74467088491457    3.01009442763010   -0.60554553687364
C        -1.56846728458881    2.57911851474049   -1.82362858021443
C        -1.94737497444795    1.41360915214147   -2.58569270266412
C        -2.94337363452741    0.69283607574781   -1.83299948884465
C        -3.17649375520366    1.41459208744889   -0.60767708444368
C        -2.32990354305246    2.58130892147709   -0.60823552603824
C        -2.94293339196232   -0.69591752073782   -1.83205467585826
C        -1.94664848535897   -1.41672015205812   -2.58360126862690
C        -1.56804351143797   -2.58259618462452   -1.82173751693143
C        -2.32749412980448   -2.58307087476192   -0.60266692611544
C        -3.17446551577725   -1.41619511050167   -0.60569931354353
C        -0.99020389208244   -0.72227545663178   -3.31050047328951
C        -0.99081596725552    0.71924306943501   -3.31133006074096
C         0.38154069285894    1.16376990172521   -3.31060736263855
C         1.22726279010680   -0.00191908375591   -3.30889246166077
C         0.38115651692035   -1.16711449275487   -3.30857396785388
Cl       -1.93998615502903   -0.02851244188760    5.27258063220093
Cl       -1.15433315296422    3.56620684346693    3.96835500824965
62
 energy: -137.532610447397 gnorm: 0.018613590743 xtb: 6.4.1 (a3dbbd7)
C        -1.29301358844704   -0.01705096195978    3.53904461534000
C        -0.37247039420947   -1.19776982363400    3.31721263471380
C         0.97764562301251   -0.74146596812105    3.27733305844841
C         0.95650553664896    0.70648809066291    3.25026730872531
C        -0.36542497905411    1.14697401208016    3.32610113872647
C         2.33500416911790   -2.58682077976526    0.58138586967719
C         3.18167896726714   -1.41715810553148    0.58132110683923
C         2.94436241496015   -0.69812975831818    1.80027945763025
C         1.94698235399445   -1.42633726974482    2.55882557440625
C         1.57840002183683   -2.58831229041918    1.80669928350586
C         3.18220938116798    1.41344745312838    0.57353096945742
C         2.33498156284725    2.58019977046705    0.56924291712814
C         1.57207834276333    2.57512794492371    1.78889376228049
C         1.94676125061540    1.41307393534474    2.54697274834494
C         2.93788297350437    0.69271671777266    1.79867452606088
C        -0.35077462445871    3.43169110036158    0.58087922474954
C        -1.72865620316709    2.99000302102171    0.58487228622605
C        -1.97661279057982    2.29588106946776    1.79188552268186
C        -0.77939683181530    2.42195136989711    2.70476037409328
C         0.26214838831630    3.01194793296609    1.78863692013364
C        -3.38561635084169    0.71651537202764    0.56937691371194
C        -3.38490432105537   -0.71922473943840    0.57129403356988
C        -2.75608884388064   -1.15091577087470    1.79965198378598
C        -2.40133861044417   -0.00247724589715    2.55736408426551
C        -2.75019942111359    1.14706423262099    1.79475522949214
C        -1.73568422836370   -3.00972469382418    0.58691534401979
C        -0.36111029099445   -3.45305042502010    0.58327480233703
C         0.25243623570704   -3.01078357325186    1.80731799114284
C        -0.73314398147181   -2.29487200767403    2.57016539360214
C        -1.97240332280991   -2.30362593224791    1.80716704737397
C        -0.24479518202726   -3.01404584047528   -1.82471179503681
C         0.74594485154618   -2.29145279327747   -2.57902129336250
C         1.97361286025590   -2.29243016506439   -1.82413333107733
C         1.74027760952437   -3.01076238251253   -0.59822034577106
C         0.36729449761166   -3.45514510998128   -0.59712361014121
C         2.79126138115042   -1.16844877132999   -1.82537356919412
C         2.41167248983281   -0.00268141315621   -2.58401026871938
C         2.79371434396374    1.16426058501352   -1.83205791588549
C         3.40790807760447    0.71911101236094   -0.60609758069389
C         3.40731125727655   -0.72341474519275   -0.60420030512658
C         1.97839948913073    2.28860637038990   -1.83520599547188
C         0.74826340523854    2.28675639475437   -2.58860016595409
C        -0.24073928834641    3.00907008666121   -1.82939668507964
C         0.37548704349725    3.45100512641579   -0.60973906516010
C         1.74468817627111    3.01014452306091   -0.61160516798190
C        -1.56700849302915    2.57743850751613   -1.82618269255241
C        -1.94593047714087    1.41248974103617   -2.58896879463958
C        -2.94222289415966    0.69186222423888   -1.83602425021828
C        -3.17194417458968    1.41356452755450   -0.61031455499872
C        -2.32682657104712    2.57813134322859   -0.61111768986421
C        -2.94189463615213   -0.69719328509304   -1.83388266923551
C        -1.94595930158128   -1.41763913808463   -2.58499042359381
C        -1.56718366187749   -2.58393196186306   -1.82325379021653
C        -2.32611680057121   -2.58549157196984   -0.60445175108710
C        -3.17189914530329   -1.41771721708813   -0.60656059523493
C        -0.98912518900659   -0.72327634913298   -3.31280793607947
C        -0.98983120505769    0.71778387715824   -3.31472932818858
C         0.38255379596167    1.16264200715503   -3.31485231337960
C         1.22778168868225   -0.00325223415374   -3.31211593095816
C         0.38162368737156   -1.16824101619101   -3.31103843996330
Cl       -1.94628139859551   -0.01318433386983    5.26870358383991
Cl       -1.18451034840314    3.63774492784890    4.05982205443018
62
 energy: -137.533116490314 gnorm: 0.013761046512 xtb: 6.4.1 (a3dbbd7)
C        -1.29149171046091   -0.01287130230782    3.53551895491624
C        -0.37398899429889   -1.19638237967142    3.31436995065140
C         0.97351751136680   -0.73875749264861    3.27055524638009
C         0.95073556103347    0.71164432175329    3.24755398990746
C        -0.36477386502300    1.15324145521340    3.32456872590538
C         2.33432819447316   -2.58863487064731    0.57994868921448
C         3.17931125759995   -1.41748246873801    0.58008225995877
C         2.94108132431217   -0.69877010790704    1.79816384370981
C         1.94362467600622   -1.42605282966697    2.55488909566910
C         1.57779313072341   -2.59107202385302    1.80567025527982
C         3.17832035961040    1.41341934691655    0.57212572243305
C         2.33104961397071    2.57962137001155    0.56937721450463
C         1.57067953971541    2.57984971523309    1.79228736418575
C         1.94875669867584    1.41653597472701    2.54880756815161
C         2.93260615766949    0.69363911941652    1.79792872637639
C        -0.34877161805571    3.43198671698906    0.58464776628156
C        -1.72501525375553    2.98733600232968    0.58816386050713
C        -1.97430792939449    2.29966663333466    1.79990808496657
C        -0.78330768268768    2.44255383734756    2.72329101030508
C         0.26178954184290    3.02239629869550    1.79861986424515
C        -3.37813714821857    0.71618153909280    0.57109841037214
C        -3.38066066448624   -0.71915657729718    0.57132895701423
C        -2.75531468734875   -1.15209882352364    1.80079173355678
C        -2.40215959952789   -0.00471607626554    2.55832497954012
C        -2.74617057965054    1.14907509105308    1.79821867444302
C        -1.73538391864556   -3.01189955975949    0.58615232594407
C        -0.36117529621634   -3.45627825351113    0.58223989818443
C         0.25206386030807   -3.01413649940930    1.80706435468446
C        -0.73374889016380   -2.29703768980214    2.56941130180090
C        -1.97229165065745   -2.30677634075749    1.80723527226836
C        -0.24458591417012   -3.01568296219784   -1.82596851225285
C         0.74605253962581   -2.29312983021152   -2.58058632096580
C         1.97326647180840   -2.29370236282167   -1.82538723948047
C         1.74014479389279   -3.01273994055209   -0.59957222275911
C         0.36723340933370   -3.45755406965112   -0.59822501800422
C         2.79089735683991   -1.16934855221789   -1.82651320993346
C         2.41197892943175   -0.00385404849648   -2.58635120373730
C         2.79321921391899    1.16319562652722   -1.83418371248697
C         3.40573096251813    0.71856415389095   -0.60698873721258
C         3.40638446638107   -0.72411995932254   -0.60565372993398
C         1.97844384065380    2.28797925172562   -1.83722037737973
C         0.74856884679379    2.28539110169319   -2.59112083341258
C        -0.23992160281241    3.00664121030445   -1.83029074373895
C         0.37516469482715    3.44860667293165   -0.60874094827877
C         1.74354155114057    3.00928266489960   -0.61279174059888
C        -1.56475588777127    2.57540015835090   -1.82727347554956
C        -1.94431131904314    1.41117464822207   -2.59047965551201
C        -2.93983655767685    0.69084778763023   -1.83600497883301
C        -3.16687416610421    1.41213412994852   -0.60942280858157
C        -2.32123079148507    2.57477182996409   -0.60911643232320
C        -2.93980009661227   -0.69828938491328   -1.83428670800040
C        -1.94547050281477   -1.41927208166455   -2.58643528290660
C        -1.56691664509474   -2.58553517488545   -1.82431287387055
C        -2.32552017514327   -2.58725429725836   -0.60524238819476
C        -3.16957823411751   -1.41824924000745   -0.60656941659890
C        -0.98862238576037   -0.72514575167901   -3.31488870051096
C        -0.98915770286305    0.71592490679203   -3.31736646910992
C         0.38324139676851    1.16099195378245   -3.31788777976193
C         1.22830575819366   -0.00503834569861   -3.31494263238287
C         0.38198022807853   -1.17013865326324   -3.31339015507282
Cl       -1.94801100575467   -0.02190936148507    5.26377638581628
Cl       -1.19075508461604    3.65269939629289    4.07693332608461
62
 energy: -137.533386801106 gnorm: 0.009072910031 xtb: 6.4.1 (a3dbbd7)
C        -1.29027604135958   -0.00940082891374    3.52980071757049
C        -0.37412614639736   -1.19439834882762    3.31017200284006
C         0.97011208400896   -0.73660025846272    3.26414161868406
C         0.94652094360149    0.71612634209556    3.24667466221516
C        -0.36372836831277    1.15969902931464    3.32258230662054
C         2.33407336114043   -2.59013927278800    0.57907218572262
C         3.17738094050918   -1.41769993069729    0.57951467449655
C         2.93837556669459   -0.70002473827085    1.79739934983602
C         1.94214480128172   -1.42623538320416    2.55225847324017
C         1.57723413989441   -2.59340292702334    1.80517133253900
C         3.17432891429290    1.41358015542094    0.57164105727000
C         2.32815474994121    2.57966889073165    0.57002098800288
C         1.56980020948388    2.58277722608642    1.79505282597433
C         1.95279457903444    1.41885607914019    2.55159904106740
C         2.92835063532363    0.69451526979121    1.79875993192522
C        -0.34687833419671    3.43130140523006    0.58705509621794
C        -1.72056429798298    2.98232864702883    0.58977692407278
C        -1.96981064818147    2.29902780586143    1.80719822187025
C        -0.78528508788746    2.45569414321103    2.73639422376045
C         0.26177788114973    3.02932416879743    1.80796265208062
C        -3.37342277924241    0.71537886967884    0.57220686109219
C        -3.37874819541021   -0.71928640507504    0.57154479686457
C        -2.75771021374581   -1.15422091585907    1.80326144354540
C        -2.40637470466972   -0.00866549924469    2.55902476950762
C        -2.74307066392965    1.14896216330235    1.80012600481753
C        -1.73526031494700   -3.01337099059442    0.58574530915813
C        -0.36150561440790   -3.45888116060603    0.58153528433659
C         0.25184393546937   -3.01673793590012    1.80717547161799
C        -0.73485727899339   -2.29941430186775    2.56886507167292
C        -1.97229796250622   -2.30982521241408    1.80821047098905
C        -0.24461563612669   -3.01580128539385   -1.82643461194606
C         0.74587649876509   -2.29323690036949   -2.58133874435409
C         1.97267136971312   -2.29369338814442   -1.82581949300911
C         1.74006150453079   -3.01402015792815   -0.60030636522286
C         0.36707570242961   -3.45905182500982   -0.59872323985771
C         2.79050394181009   -1.16925403507561   -1.82689192734804
C         2.41219785541341   -0.00402935603112   -2.58790712867539
C         2.79232372372174    1.16266587187728   -1.83499925795717
C         3.40345922352435    0.71843819818454   -0.60669757116922
C         3.40558239306276   -0.72437715266032   -0.60609012220289
C         1.97825901053410    2.28800445317331   -1.83809920736828
C         0.74866357568121    2.28509539997393   -2.59278910863082
C        -0.23988549292831    3.00466637460881   -1.83114148530201
C         0.37471618576069    3.44631801251324   -0.60724761040419
C         1.74278340482041    3.00912385028259   -0.61327580218624
C        -1.56290823692513    2.57410853654256   -1.82881056462571
C        -1.94362127380020    1.41079724794160   -2.59195577157522
C        -2.93827074616175    0.69033523016553   -1.83594019165697
C        -3.16343604265816    1.41062764113631   -0.60880017858937
C        -2.31612673928168    2.57091233791109   -0.60688283208097
C        -2.93803364627857   -0.69887689276310   -1.83418625986115
C        -1.94532631488688   -1.42003604350398   -2.58751450286328
C        -1.56695724526852   -2.58609270495442   -1.82478507607981
C        -2.32538838706239   -2.58840760068902   -0.60535778857281
C        -3.16831502903568   -1.41846849704272   -0.60620304811017
C        -0.98850186278557   -0.72584959240122   -3.31641588393277
C        -0.98895173821448    0.71521938426218   -3.31962594720607
C         0.38359271629366    1.16054620435661   -3.32020562444163
C         1.22864218953611   -0.00551810921013   -3.31690047921733
C         0.38207416920682   -1.17062899598230   -3.31512048295827
Cl       -1.94481790330481   -0.02130444510697    5.25660308606433
Cl       -1.19453893265698    3.66051775637271    4.08175895760692
62
 energy: -137.533511085039 gnorm: 0.006176759736 xtb: 6.4.1 (a3dbbd7)
C        -1.28913054004075   -0.00839856869538    3.52494078591238
C        -0.37328128651143   -1.19376493713366    3.30731796359894
C         0.96837175125371   -0.73638080436812    3.26161310110392
C         0.94503056452741    0.71757479982746    3.24698271539710
C        -0.36225528059545    1.16325010980386    3.32112973757803
C         2.33396135143571   -2.59097322725744    0.57889416756934
C         3.17628374661327   -1.41791411189083    0.57990586016847
C         2.93693643240168   -0.70150468083011    1.79837374430168
C         1.94267689023223   -1.42703589086335    2.55206746429619
C         1.57670070698253   -2.59475400151329    1.80523614161688
C         3.17204036075327    1.41405302836115    0.57211665506146
C         2.32735459769229    2.58032023632067    0.57053923786228
C         1.56935000538606    2.58318265413321    1.79547892216558
C         1.95618340141778    1.41910597107179    2.55368115195550
C         2.92630435342328    0.69518151027333    1.80070650139232
C        -0.34589482359821    3.43043014663517    0.58701131638951
C        -1.71722377691142    2.97764859847862    0.58920787186929
C        -1.96477948831331    2.29414972494298    1.80978481654832
C        -0.78545780198934    2.46022452033955    2.74220541130255
C         0.26243339198658    3.03024393411371    1.81147523971546
C        -3.37277769693198    0.71421661647608    0.57246600833335
C        -3.37968016112682   -0.71983928769357    0.57200602066138
C        -2.76142989443794   -1.15641829705954    1.80606211259821
C        -2.41075669696308   -0.01269129306377    2.55941569829886
C        -2.74135294804640    1.14684560973506    1.79975812579983
C        -1.73511292597670   -3.01381285047368    0.58556065315296
C        -0.36174243533121   -3.46011473973315    0.58096096033081
C         0.25183479122668   -3.01800634141538    1.80720816517029
C        -0.73624562734974   -2.30163145187559    2.56872218042354
C        -1.97223589725535   -2.31196114153060    1.80946448365086
C        -0.24471719705823   -3.01488639857048   -1.82640027309006
C         0.74565288482274   -2.29231207876567   -2.58141529816772
C         1.97206418762734   -2.29284021891378   -1.82553775124037
C         1.74001640003429   -3.01449392313642   -0.60046162403143
C         0.36702248304258   -3.45951387412442   -0.59893807419458
C         2.79006387541742   -1.16848597329981   -1.82635319735117
C         2.41206319038162   -0.00335469909947   -2.58794433677456
C         2.79125958988765    1.16287141391388   -1.83434127496617
C         3.40184278704034    0.71877366757493   -0.60550284960780
C         3.40481107608159   -0.72424700360615   -0.60532292139349
C         1.97783073013586    2.28879335078780   -1.83787612897949
C         0.74843626885606    2.28585531119441   -2.59328521010470
C        -0.24052870504470    3.00435257622522   -1.83197995443442
C         0.37454864929820    3.44597602022660   -0.60636111953407
C         1.74261285798610    3.00997257518627   -0.61336885009351
C        -1.56216854519537    2.57427294410627   -1.83021096998043
C        -1.94373447353888    1.41141044895648   -2.59272509327615
C        -2.93785131369545    0.69060040241215   -1.83577791902603
C        -3.16253408327704    1.40968137993367   -0.60858901088897
C        -2.31396759342455    2.56872245051452   -0.60540765574818
C        -2.93708705434487   -0.69876275375716   -1.83360159545553
C        -1.94534067573071   -1.41974756853142   -2.58774179068524
C        -1.56703743208556   -2.58568753356727   -1.82471873850810
C        -2.32550889970326   -2.58875299088051   -0.60504675667638
C        -3.16827264272751   -1.41843228632539   -0.60564977018449
C        -0.98858969650544   -0.72540911107986   -3.31681460315071
C        -0.98903150758746    0.71563508799375   -3.32051957415281
C         0.38353055862292    1.16112732003267   -3.32096746179573
C         1.22865056366748   -0.00489087453076   -3.31722365577770
C         0.38200484614726   -1.16998501804937   -3.31577738645236
Cl       -1.93892673371809   -0.01349548531928    5.24975640760080
Cl       -1.19545513228220    3.66369261036073    4.07765072977042
62
 energy: -137.533571889515 gnorm: 0.004092910541 xtb: 6.4.1 (a3dbbd7)
C        -1.28811125491882   -0.00877924704374    3.52186959159207
C        -0.37227674854496   -1.19414040054161    3.30581586084290
C         0.96742501512950   -0.73719401831956    3.26161499221666
C         0.94509814907212    0.71715403388696    3.24799823994353
C        -0.36066673409357    1.16504800817445    3.32088462032021
C         2.33378678827197   -2.59153703938989    0.57883558870101
C         3.17555131210087   -1.41825898215857    0.58057579576692
C         2.93597971226746   -0.70301499339313    1.80007345630746
C         1.94395813564761   -1.42798925018228    2.55286061860748
C         1.57618607452515   -2.59567318383567    1.80537030744376
C         3.17088702415234    1.41466077623215    0.57292409381813
C         2.32763905264673    2.58110495543180    0.57088846352288
C         1.56908606221232    2.58279363309928    1.79481638528527
C         1.95824699428399    1.41828863923147    2.55518858757331
C         2.92525455049124    0.69574813982180    1.80293021120746
C        -0.34566488732608    3.43024462158903    0.58581733199874
C        -1.71501608808321    2.97437868416542    0.58782806098114
C        -1.96020392426347    2.28806582560085    1.80963236891349
C        -0.78487712378627    2.46097800984027    2.74441577075998
C         0.26345415421229    3.02851918819368    1.81139191421238
C        -3.37390009378614    0.71298746646639    0.57243028201551
C        -3.38168202799670   -0.72055697256386    0.57259310292581
C        -2.76479842334072   -1.15820907429610    1.80868304053030
C        -2.41390331509778   -0.01606613766029    2.55965756484429
C        -2.74046532670036    1.14433097577530    1.79862128054688
C        -1.73477291398988   -3.01382320880077    0.58539323919723
C        -0.36174511536586   -3.46067506716551    0.58030446308423
C         0.25204115589561   -3.01864979983515    1.80696353549227
C        -0.73768441694216   -2.30352639076995    2.56865071010725
C        -1.97185824438049   -2.31342176781068    1.81061728295083
C        -0.24477057438209   -3.01394070199610   -1.82641147236212
C         0.74549966516473   -2.29137415725824   -2.58149022193052
C         1.97153671948281   -2.29196748018103   -1.82519348542539
C         1.74001274376791   -3.01483547799855   -0.60059372526333
C         0.36712542994779   -3.45976590308414   -0.59927455953676
C         2.78955308255490   -1.16767784739428   -1.82554528786489
C         2.41168653771676   -0.00249774956639   -2.58728780620348
C         2.79013861212434    1.16332414358988   -1.83313575057986
C         3.40051681460793    0.71922140926105   -0.60412931665523
C         3.40391971753065   -0.72410257147497   -0.60413471507676
C         1.97720238385458    2.28982642975731   -1.83720685749144
C         0.74799941156129    2.28689114672002   -2.59327911564965
C        -0.24139311106920    3.00506297584611   -1.83291567786814
C         0.37463338949446    3.44702344363059   -0.60599513250099
C         1.74264527220491    3.01121418890787   -0.61337340756540
C        -1.56199707810584    2.57521776264477   -1.83140596039713
C        -1.94396641859113    1.41234953699548   -2.59297491871848
C        -2.93776993146543    0.69121907263084   -1.83542049051293
C        -3.16268262725585    1.40915046960707   -0.60848539229921
C        -2.31366301284472    2.56790782858752   -0.60444351173761
C        -2.93646233805418   -0.69838708079203   -1.83275704101477
C        -1.94529304596627   -1.41910373009711   -2.58749473453191
C        -1.56698252122207   -2.58507591022494   -1.82449528186797
C        -2.32553691689910   -2.58883572060213   -0.60463121340807
C        -3.16848392168002   -1.41828946781006   -0.60502831260281
C        -0.98869879094937   -0.72469273792292   -3.31669293573802
C        -0.98910562462925    0.71634505974266   -3.32060488882771
C         0.38328915799404    1.16190267964671   -3.32092460388901
C         1.22851437826029   -0.00404994730085   -3.31683996481529
C         0.38191999419860   -1.16915399607198   -3.31603339278412
Cl       -1.93331140457823   -0.00505372304008    5.24355959172172
Cl       -1.19527920798249    3.66702623448313    4.07083232756205
62
 energy: -137.533592789976 gnorm: 0.002601610506 xtb: 6.4.1 (a3dbbd7)
C        -1.28777102943485   -0.00941444474305    3.52157070302403
C        -0.37181946723654   -1.19473639293261    3.30564471696481
C         0.96701392906189   -0.73790608712045    3.26245587735467
C         0.94562010778305    0.71626521071507    3.24894627368252
C        -0.35984334716865    1.16551734470302    3.32183709353763