62
 energy: -137.508994979753 gnorm: 0.138211047419 xtb: 6.4.1 (a3dbbd7)
C        -1.29770965891222    0.00000000000000    3.53163224767276
C        -0.37107604425475   -1.17478800586359    3.31058196643012
C         0.97979757550459   -0.72157705231961    3.28110534952822
C         0.97979757550459    0.72157705231961    3.28110534952822
C        -0.37107604425475    1.17478800586360    3.31058196643013
C         2.33544184946295   -2.58264348698296    0.58346340581249
C         3.18207169571150   -1.41543014636129    0.58234433372313
C         2.94373959867916   -0.69404060100004    1.80708186552027
C         1.95046398470883   -1.41556779135961    2.56176558167067
C         1.57767488865866   -2.57871801508103    1.80912454278211
C         3.18207169571150    1.41543014636129    0.58234433372313
C         2.33544184946295    2.58264348698296    0.58346340581249
C         1.57767488865866    2.57871801508103    1.80912454278211
C         1.95046398470883    1.41556779135961    2.56176558167066
C         2.94373959867916    0.69404060100004    1.80708186552027
C        -0.36119281684147    3.44519252612879    0.58582996047390
C        -1.73469290191499    3.00153459982720    0.58916793337350
C        -1.97220713510261    2.29308475607878    1.81059639720294
C        -0.73400332666893    2.27691900303500    2.56853480078419
C         0.25309257506893    2.99789064535074    1.80898867763471
C        -3.39649784746455    0.71758744312072    0.57410478167568
C        -3.39649784746455   -0.71758744312072    0.57410478167568
C        -2.77168037603652   -1.14964415915414    1.80664876434809
C        -2.42168465399864    0.00000000000000    2.56054627302143
C        -2.77168037603652    1.14964415915414    1.80664876434809
C        -1.73469290191499   -3.00153459982719    0.58916793337351
C        -0.36119281684148   -3.44519252612879    0.58582996047390
C         0.25309257506893   -2.99789064535073    1.80898867763471
C        -0.73400332666892   -2.27691900303499    2.56853480078419
C        -1.97220713510261   -2.29308475607878    1.81059639720295
C        -0.24585893810850   -3.00970705822685   -1.82232538763502
C         0.74439012833927   -2.28841876480361   -2.57822875384061
C         1.97268106729833   -2.28861170675520   -1.82114897801170
C         1.74031203428013   -3.00832022201671   -0.59623578829480
C         0.36724813466371   -3.45114129717027   -0.59443426078026
C         2.79027372790168   -1.16551010025889   -1.82330670861298
C         2.41077011246349    0.00000000000000   -2.58030971859023
C         2.79027372790168    1.16551010025889   -1.82330670861298
C         3.40598095600767    0.72109250237888   -0.59875668403540
C         3.40598095600767   -0.72109250237888   -0.59875668403540
C         1.97268106729833    2.28861170675520   -1.82114897801170
C         0.74439012833927    2.28841876480360   -2.57822875384062
C        -0.24585893810850    3.00970705822685   -1.82232538763502
C         0.36724813466371    3.45114129717027   -0.59443426078026
C         1.74031203428013    3.00832022201671   -0.59623578829480
C        -1.56847069976934    2.58049680433801   -1.82122736601016
C        -1.94730857051169    1.41533687195356   -2.58360676406823
C        -2.94243160962768    0.69434475341889   -1.82977489504240
C        -3.17479380115303    1.41444285760430   -0.60326970185865
C        -2.32688654321742    2.58113588269429   -0.60086409487791
C        -2.94243160962768   -0.69434475341889   -1.82977489504240
C        -1.94730857051169   -1.41533687195356   -2.58360676406823
C        -1.56847069976934   -2.58049680433801   -1.82122736601016
C        -2.32688654321742   -2.58113588269429   -0.60086409487790
C        -3.17479380115303   -1.41444285760429   -0.60326970185865
C        -0.99138524268633   -0.72097607833148   -3.31029871234527
C        -0.99138524268633    0.72097607833148   -3.31029871234528
C         0.38054100031802    1.16548515734434   -3.30884687187952
C         1.22668597234242    0.00000000000000   -3.30783368151334
C         0.38054100031802   -1.16548515734434   -3.30884687187952
Cl       -1.93737486741132   -0.00000000000005    5.25509316806359
Cl        0.56064022123840   -5.22365564419735   -0.90570968614088
62
 energy: -137.533153947555 gnorm: 0.062861647704 xtb: 6.4.1 (a3dbbd7)
C        -1.30208615311133    0.00409936377615    3.53581880967363
C        -0.37627901259568   -1.16954272772213    3.31498347761408
C         0.97498727827520   -0.71941955334450    3.27878916149694
C         0.97791183548543    0.72221409129760    3.28002810467949
C        -0.37329297377739    1.17583785688897    3.31035820939394
C         2.33518302139308   -2.56812620230658    0.58051323476503
C         3.18874618896452   -1.40846827104288    0.58115199198095
C         2.94551022821916   -0.69132552922714    1.80504304540273
C         1.94878027445851   -1.41587467182609    2.55840985694440
C         1.57745511841081   -2.57229382711988    1.80866463488490
C         3.18320572980166    1.41728003305217    0.58156650043566
C         2.33507743409906    2.58244117221980    0.58309349871986
C         1.57694365538703    2.57805508389970    1.80969995457083
C         1.95042993220652    1.41702137096550    2.56231530104729
C         2.94438872281959    0.69517575359085    1.80632532845514
C        -0.36108484400578    3.44484365115286    0.58614802248794
C        -1.73431767790993    3.00228496264386    0.58884608865800
C        -1.97448421995586    2.29531445454401    1.81172370888188
C        -0.73567953962991    2.27742226038764    2.56796215138391
C         0.25221637807751    2.99830797753055    1.80859226767082
C        -3.39628473778269    0.72095307033651    0.57554374176908
C        -3.39831999527076   -0.71390115297301    0.57844501054200
C        -2.77944424054786   -1.14574265567659    1.81581521044701
C        -2.42717012347579    0.00349454934134    2.56489847362465
C        -2.77356560148528    1.15346004487452    1.80842755146922
C        -1.73233719242428   -2.98890166137950    0.60120032323751
C        -0.37177549049501   -3.45392581415048    0.60845650288730
C         0.24280816874339   -2.98684433292527    1.80582268013042
C        -0.74516507309379   -2.27076899616638    2.57545806906670
C        -1.98308895785725   -2.29017019852091    1.82626266491554
C        -0.24686490223069   -2.99589887131253   -1.82920086733550
C         0.74194562685898   -2.27877571678236   -2.57434687363941
C         1.97165304159861   -2.27823214374362   -1.81595060559153
C         1.74932856039195   -2.99299450028509   -0.59786138746835
C         0.38167431814435   -3.55675512790631   -0.61433878927025
C         2.79682883641883   -1.15764539394988   -1.82445952032538
C         2.41253355423947    0.00432104185335   -2.58136849602466
C         2.79291928237728    1.16997528675232   -1.82495141894785
C         3.41030901513588    0.72571358646336   -0.60088765710589
C         3.41266919779796   -0.71491603196905   -0.60214398970565
C         1.97388908046309    2.29103243121291   -1.82180800800249
C         0.74464575350634    2.29089498305137   -2.57834749470812
C        -0.24427649624768    3.01211285016659   -1.82216596504548
C         0.36804183598629    3.45244848762057   -0.59564801525726
C         1.74069545165159    3.00961741913040   -0.59680729880254
C        -1.56872476389364    2.58195636151504   -1.82048256980717
C        -1.94714626227912    1.41719211489414   -2.58317135034025
C        -2.94248599046254    0.69561666081282   -1.82948421568891
C        -3.17427608913331    1.41559973548395   -0.60268606563441
C        -2.32625656929998    2.58347662503956   -0.60141836206564
C        -2.94122216046904   -0.69252491278845   -1.82859588768430
C        -1.94819224522561   -1.41122102610685   -2.58692895127897
C        -1.56343284186360   -2.56799679623362   -1.82024221438481
C        -2.32106890697139   -2.57119645970435   -0.59365826791273
C        -3.17293136133695   -1.41077415513024   -0.60021707248832
C        -0.99169246559916   -0.71641102607787   -3.31479405492636
C        -0.99161943528804    0.72466863940830   -3.31216003324314
C         0.38076168870201    1.16912148057870   -3.31065263525583
C         1.22669253521942    0.00433697213747   -3.30976290709456
C         0.37884989698386   -1.15870968008998   -3.31319944481089
Cl       -1.94019576449634    0.00472957913928    5.25993461972548
Cl        0.57945429861171   -5.36531815949801   -0.94511238726814
62
 energy: -137.539785257872 gnorm: 0.017221288799 xtb: 6.4.1 (a3dbbd7)
C        -1.30421271377749    0.00902023399240    3.53733797062512
C        -0.37875761429003   -1.16460321493415    3.31385604247675
C         0.96996695067410   -0.71679915537562    3.27542540574507
C         0.97583187543551    0.72416598299903    3.27699691121566
C        -0.37508679478086    1.18008221172937    3.31130785792169
C         2.33261049837521   -2.56654000395224    0.57650336478260
C         3.18456090531971   -1.40409986522977    0.57912612774054
C         2.94461468419084   -0.68882318046009    1.80252581932111
C         1.94495144661954   -1.41832569128122    2.55342392323977
C         1.58060321742687   -2.57214193173597    1.80917395019994
C         3.18277267989156    1.42006426239565    0.58071403386045
C         2.33381075496795    2.58373026630013    0.58239616892036
C         1.57526751178826    2.57916633192347    1.81023030596590
C         1.94963532671694    1.42052864689691    2.56265469312717
C         2.94273333840208    0.69676943145804    1.80495522190141
C        -0.36130448949443    3.44720566230167    0.58681635086884
C        -1.73386889476192    3.00638856163443    0.58864160898615
C        -1.97655800896357    2.29927436415442    1.81299075612796
C        -0.73733250954890    2.28141670646284    2.56900003989166
C         0.25102322622985    3.00144966285430    1.80869631322760
C        -3.40135686250006    0.72736229163013    0.57795838323832
C        -3.39714505885305   -0.70834264424350    0.58271568773005
C        -2.78244334341473   -1.14124237661102    1.82124035633815
C        -2.43195501627981    0.00841527834871    2.56694918932655
C        -2.77802515493845    1.16055674170876    1.81034326130778
C        -1.72284036308754   -2.98385264305488    0.60278454278078
C        -0.37023681098331   -3.45441946910479    0.61341246629179
C         0.23787012748544   -2.98151515005534    1.79075778070081
C        -0.74932656300494   -2.26490928525983    2.57136558472313
C        -1.98430544116436   -2.28677992021817    1.83120831417728
C        -0.24585698248020   -2.99735717279552   -1.83162038701245
C         0.73636118305127   -2.27538608668294   -2.56390061590264
C         1.96555272537658   -2.27465715211590   -1.80404279771870
C         1.75432588114868   -2.99616355910065   -0.59908209077932
C         0.39665905823542   -3.65514609221223   -0.63478747661739
C         2.79609171267193   -1.15300613447864   -1.82137876430697
C         2.41146327292375    0.00723608343174   -2.57951066383529
C         2.79378413974786    1.17463776803299   -1.82602115185717
C         3.41262324396027    0.72993657464370   -0.60250776476032
C         3.41403747098401   -0.71019712408103   -0.60412817335864
C         1.97451998574000    2.29517019266147   -1.82228755300095
C         0.74462664696101    2.29567371574334   -2.57837311132130
C        -0.24285042644336    3.01643351655807   -1.82106027756769
C         0.36849335325421    3.45675239916544   -0.59649810380337
C         1.74078690958731    3.01343854085245   -0.59718264803313
C        -1.56937330686191    2.58559766288046   -1.81862864874677
C        -1.94704514763703    1.42081933656668   -2.58102745386070
C        -2.94119219557376    0.69830505923430   -1.82599079553003
C        -3.17625837514002    1.41917787706211   -0.60065108717264
C        -2.32538761320173    2.58819653628875   -0.60098548172277
C        -2.93814974662128   -0.68999003858717   -1.82372830744458
C        -1.94308919847373   -1.40856703182295   -2.57972922084015
C        -1.55491311232791   -2.56659615478984   -1.81736349601425
C        -2.31462705596780   -2.56711369874162   -0.58674807992138
C        -3.16655345590903   -1.40653876520982   -0.59471187682341
C        -0.99047539866050   -0.71216004542947   -3.31218596059712
C        -0.99205144024527    0.72910709134612   -3.31120178577896
C         0.38082069345139    1.17364301314094   -3.31074704828579
C         1.22509077522876    0.00804531155251   -3.30831109652261
C         0.37670213650980   -1.15441800804952   -3.30915273280159
Cl       -1.94900523533222    0.01479023458596    5.25822475230939
Cl        0.59516645057648   -5.47652159912077   -0.97874314328418
62
 energy: -137.540188577092 gnorm: 0.010574268368 xtb: 6.4.1 (a3dbbd7)
C        -1.30470882991720    0.01091938299489    3.53673223699548
C        -0.37896203250932   -1.16303912304272    3.31183834111740
C         0.96808141691108   -0.71581308905375    3.27290164684807
C         0.97531526136960    0.72525904237839    3.27530322250942
C        -0.37540842583648    1.18186062467219    3.31080361370253
C         2.33312594365908   -2.57135557692875    0.57528672133711
C         3.18037294455705   -1.40374588924979    0.57738088775211
C         2.94269751496225   -0.68812645099454    1.80024113591175
C         1.94333956056445   -1.41960088377994    2.55106657254386
C         1.58374329878902   -2.57425691716726    1.81002420642846
C         3.18234073956831    1.42156904572179    0.58039326621289
C         2.33341539172311    2.58515766913489    0.58224166309021
C         1.57467521262762    2.58053200311350    1.81051883289049
C         1.94934028050079    1.42229450408091    2.56267537076342
C         2.94147673382513    0.69729417324855    1.80386939130117
C        -0.36156837420474    3.44923189750001    0.58736013783172
C        -1.73399832666138    3.00908125320962    0.58897238023955
C        -1.97751177142204    2.30126217781179    1.81379549290842
C        -0.73780688387184    2.28371150438877    2.56942315133242
C         0.25066719404304    3.00387837626700    1.80914981717468
C        -3.40295785077323    0.73005499795231    0.57886442842450
C        -3.39837132356338   -0.70640155154517    0.58417229750649
C        -2.78215762552119   -1.13950258125867    1.82143291569826
C        -2.43294971260300    0.01008604585618    2.56620670418734
C        -2.78048695001708    1.16402577916928    1.81144191677499
C        -1.72016096555178   -2.98712258969643    0.60053203187431
C        -0.36632233154477   -3.45592365308199    0.60955191282148
C         0.23850812966180   -2.98331955046629    1.78367571191944
C        -0.74886957093597   -2.26302737755954    2.56631813033848
C        -1.98213669860283   -2.28578062129525    1.82963356081600
C        -0.24488289330163   -3.00717158928624   -1.83312725738279
C         0.73483100740040   -2.27746198159964   -2.56042123473755
C         1.96396358954133   -2.27684947370427   -1.80024696394155
C         1.75697536721416   -3.00716246060303   -0.60042418300299
C         0.40144254748444   -3.67891926829263   -0.64129917797547
C         2.79321901706323   -1.15256239570320   -1.81966155743770
C         2.40985270158177    0.00807145558962   -2.57741223537804
C         2.79371129278078    1.17654482592506   -1.82584611884535
C         3.41345675998772    0.73161094739819   -0.60279425159826
C         3.41242430149284   -0.70895085437988   -0.60454038769753
C         1.97476468079100    2.29749155914011   -1.82216967008915
C         0.74444623677443    2.29820572403567   -2.57798000826971
C        -0.24268326199311    3.01908733112120   -1.82033839452978
C         0.36844098531241    3.45954042314235   -0.59640637912181
C         1.74097688854473    3.01608619559592   -0.59700468674266
C        -1.56999653941685    2.58823182872867   -1.81778435312862
C        -1.94700165637731    1.42279718340805   -2.57953518147931
C        -2.94028816285139    0.69972881024965   -1.82378483717752
C        -3.17669463783583    1.42100671601962   -0.59962786049531
C        -2.32529688489063    2.59105445912102   -0.60054005446952
C        -2.93504719064402   -0.68887559553918   -1.81957476754497
C        -1.93906931833520   -1.40837398618704   -2.57343522073716
C        -1.55252325346117   -2.57096734567756   -1.81627079269411
C        -2.31365591099619   -2.56776601161221   -0.58433049953725
C        -3.16493020706374   -1.40498197437051   -0.59172163203771
C        -0.98927312800001   -0.71099746456281   -3.30782243094642
C        -0.99234802010337    0.73080125087604   -3.30947790857873
C         0.38056066975696    1.17540328156403   -3.30945297275463
C         1.22392122526662    0.00918461789226   -3.30579281643761
C         0.37652325115760   -1.15394831295372   -3.30441351406693
Cl       -1.95513277157266    0.02229239126914    5.25472645620353
Cl        0.59836521767992   -5.49500855318205   -0.98585141677229
62
 energy: -137.540328762298 gnorm: 0.005143460343 xtb: 6.4.1 (a3dbbd7)
C        -1.30474293467488    0.01153195287752    3.53615394186137
C        -0.37860008468622   -1.16252268864641    3.31131474114475
C         0.96707203748311   -0.71563454274408    3.27170212293929
C         0.97547973218756    0.72560202022160    3.27433993866814
C        -0.37515743962171    1.18229512918495    3.31020446209948
C         2.33355365136947   -2.57389248258175    0.57513086168725
C         3.17823673071000   -1.40363203163310    0.57630975595116
C         2.94166374058963   -0.68781367134958    1.79877637436541
C         1.94292636697410   -1.42074585502181    2.55027188636867
C         1.58657293869870   -2.57536205750471    1.81149957468250
C         3.18210911346208    1.42211394031042    0.58023174644206
C         2.33334238119763    2.58567261916956    0.58208633947787
C         1.57451593446561    2.58096365810539    1.81070123315144
C         1.94950025452875    1.42310464146003    2.56287443271693
C         2.94115771797034    0.69729886670956    1.80331184102651
C        -0.36167267166895    3.44963378255017    0.58750854033814
C        -1.73399521336551    3.00990808615089    0.58894198649186
C        -1.97784397817853    2.30139662521334    1.81401669889390
C        -0.73787102811089    2.28452650902362    2.56960928588946
C         0.25061183548433    3.00487423633386    1.80937241248920
C        -3.40462272396613    0.73150662714622    0.57917853473250
C        -3.39990947049811   -0.70544078345474    0.58481043853070
C        -2.78229488909403   -1.13870689937834    1.82148508054909
C        -2.43309083888382    0.01019644617760    2.56502522846454
C        -2.78222337688570    1.16563013645694    1.81183217650248
C        -1.71945821613380   -2.98978670343784    0.59857870178907
C        -0.36311590184228   -3.45556984439005    0.60629595490881
C         0.23928598210107   -2.98457129179998    1.77889690777360
C        -0.74866978440027   -2.26160111444215    2.56256706771905
C        -1.98041138759130   -2.28506269912181    1.82865815588419
C        -0.24444900115310   -3.01292774086121   -1.83312374428230
C         0.73385327208840   -2.27819778621437   -2.55800897937238
C         1.96294872032974   -2.27774555613409   -1.79756052844899
C         1.75809324567578   -3.01392223069592   -0.60064494217295
C         0.40369447290990   -3.68904114545912   -0.64434676973966
C         2.79113335071014   -1.15224426376876   -1.81850348789621
C         2.40881086718180    0.00835890498946   -2.57607474598208
C         2.79398556045527    1.17737249082594   -1.82574978827919
C         3.41430827494649    0.73241641241260   -0.60292452391869
C         3.41192405263005   -0.70839532608905   -0.60463323903614
C         1.97508307386954    2.29839456626413   -1.82227272822420
C         0.74440854630072    2.29928584183994   -2.57803568824276
C        -0.24259056397586    3.02006736682411   -1.82005860924578
C         0.36838498768396    3.46053735315067   -0.59654745585293
C         1.74125867349013    3.01718330597240   -0.59697783984868
C        -1.57059901957883    2.58951911533932   -1.81759842562324
C        -1.94706593258838    1.42368326837476   -2.57888334593435
C        -2.94013824103909    0.70040338085240   -1.82281355137485
C        -3.17739572590603    1.42161715141878   -0.59934568604731
C        -2.32528890190719    2.59223464507748   -0.60055363744570
C        -2.93315654657073   -0.68837611448866   -1.81707745399833
C        -1.93666278057705   -1.40840802438719   -2.56975044277022
C        -1.55145616971842   -2.57315601961031   -1.81537842115235
C        -2.31377095943886   -2.56802354196012   -0.58264732581892
C        -3.16480462516002   -1.40369143100120   -0.59011549720034
C        -0.98876029542630   -0.71050866110161   -3.30539268031652
C        -0.99266476186041    0.73161160444719   -3.30864065343170
C         0.38032056579398    1.17613849346046   -3.30897433866337
C         1.22326388299831    0.00972242841913   -3.30428145105819
C         0.37650997154140   -1.15358075091787   -3.30109860069736
Cl       -1.95847030435263    0.02601629133177    5.25178287230903
Cl        0.59871768524039   -5.49591228409369   -0.98800932392518
62
 energy: -137.540370064974 gnorm: 0.002496806252 xtb: 6.4.1 (a3dbbd7)
C        -1.30465072735981    0.01134079356333    3.53605151592290
C        -0.37817005092766   -1.16266557601002    3.31171272450898
C         0.96684454808855   -0.71594250662637    3.27167622146697
C         0.97571459774767    0.72542735202866    3.27413603391554
C        -0.37491658492750    1.18201310840926    3.30987670410978
C         2.33361255311512   -2.57381621025313    0.57531960222395
C         3.17820329480234   -1.40360871131397    0.57606107724851
C         2.94179217488494   -0.68783513463454    1.79849130322699
C         1.94329429031529   -1.42139885372145    2.55048732933635
C         1.58782510561348   -2.57535708396116    1.81236894378560
C         3.18206764506852    1.42188081128395    0.58019056761508
C         2.33332419407634    2.58536546651003    0.58201503571638
C         1.57452080649704    2.58067385735631    1.81077945618130
C         1.94966996197123    1.42307698888377    2.56305502347317
C         2.94147704898830    0.69703345330689    1.80329169996734
C        -0.36168505769570    3.44913736983157    0.58746269395612
C        -1.73392453199147    3.00950140862360    0.58878526146785
C        -1.97778205596975    2.30070517542460    1.81389491507133
C        -0.73782407489056    2.28437285909767    2.56964670342561
C         0.25062930826291    3.00474116823731    1.80939567011589
C        -3.40546761085380    0.73171776366647    0.57919094084049
C        -3.40069576297932   -0.70536871424608    0.58486818412593
C        -2.78266899286989   -1.13866004405929    1.82174874358871
C        -2.43289960483944    0.00963392429747    2.56435750289433
C        -2.78279517317547    1.16577384426605    1.81178730098671
C        -1.71967205387797   -2.99035966571672    0.59799226242858
C        -0.36175670429275   -3.45444796004773    0.60529777393140
C         0.23949806818658   -2.98467905426448    1.77729499824704
C        -0.74891976446370   -2.26112966658345    2.56141726615212
C        -1.97982655939865   -2.28488152457417    1.82893141000999
C        -0.24438420026061   -3.01313172919703   -1.83228096279016
C         0.73361976457675   -2.27781264164979   -2.55723510754960
C         1.96269760097170   -2.27745170541239   -1.79665190816766
C         1.75792647650678   -3.01467298191158   -0.60027808454159
C         0.40394374855351   -3.69047729652722   -0.64470690457696
C         2.79077767666023   -1.15215588957332   -1.81835610840398
C         2.40865897346829    0.00821341434336   -2.57586600434238
C         2.79426988457406    1.17729393992223   -1.82578861815157
C         3.41478351547727    0.73241273880804   -0.60300834381542
C         3.41233361187112   -0.70838393259534   -0.60465487761079
C         1.97521374321818    2.29814315721787   -1.82237641857688
C         0.74442897242429    2.29911519946968   -2.57816621485222
C        -0.24253283553261    3.01974134807668   -1.81999576573255
C         0.36832130855748    3.46022933219586   -0.59668804236896
C         1.74134152289714    3.01691792307097   -0.59699158601340
C        -1.57083908702494    2.58945083294138   -1.81769330920059
C        -1.94712001784172    1.42359782474405   -2.57892244830737
C        -2.94042560244339    0.70036780890517   -1.82286697583202
C        -3.17776870514459    1.42132085744573   -0.59946448019036
C        -2.32525930296165    2.59204334660405   -0.60070496510983
C        -2.93293810303473   -0.68846609364370   -1.81667065687248
C        -1.93624820858267   -1.40852783063422   -2.56918890337403
C        -1.55123300345360   -2.57293278201989   -1.81500960306028
C        -2.31383191465460   -2.56772248718998   -0.58190459939082
C        -3.16530989106473   -1.40315708982241   -0.58991190813736
C        -0.98882139598271   -0.71055476469915   -3.30521756903033
C        -0.99282400716489    0.73161373474930   -3.30869802337469
C         0.38022534296837    1.17603277354012   -3.30911557711459
C         1.22319811673468    0.00969125703431   -3.30414193573904
C         0.37656394183943   -1.15347111109865   -3.30039942575833
Cl       -1.95927566962020    0.02658408715333    5.25042763322250
Cl        0.59746330857684   -5.48975152321922   -0.98761178132965
62
 energy: -137.540382078039 gnorm: 0.001496035904 xtb: 6.4.1 (a3dbbd7)
C        -1.30464607753841    0.01106589286766    3.53623972277057
C        -0.37794053171312   -1.16289098799599    3.31208647679330
C         0.96686927353629   -0.71622910834238    3.27190667061738
C         0.97576830243583    0.72522255044746    3.27419194723335
C        -0.37487546843938    1.18173644643062    3.30977665371312
C         2.33361321064700   -2.57314581477573    0.57542393072555
C         3.17877349149278   -1.40361798423661    0.57615226517512
C         2.94226267513647   -0.68792559548854    1.79868880114402
C         1.94369387218258   -1.42162381189231    2.55078943809227
C         1.58800245804906   -2.57506288974008    1.81253754149694
C         3.18210056453966    1.42156498774390    0.58018591455624
C         2.33327831808155    2.58498186722433    0.58200588481019
C         1.57452250272114    2.58034358058369    1.81079890064806
C         1.94968530230530    1.42286575713372    2.56311551132801
C         2.94179454932336    0.69683398063895    1.80339264035098
C        -0.36169093565991    3.44873828863919    0.58743038753519
C        -1.73390206953471    3.00904579938650    0.58870321477580
C        -1.97771149892118    2.30024577582137    1.81376820391136
C        -0.73782452524402    2.28411094535099    2.56964028691205
C         0.25060995766297    3.00443540511401    1.80937215230530
C        -3.40560375073531    0.73150379673057    0.57915264468979
C        -3.40077127492478   -0.70556632843445    0.58475547986973
C        -2.78291013839672   -1.13880517943178    1.82199426014447
C        -2.43278730090704    0.00920791392334    2.56421192263265
C        -2.78276809319136    1.16554222610302    1.81167375537142
C        -1.71999280062951   -2.98997420663286    0.59818675293662
C        -0.36154655999174   -3.45370948233967    0.60555238961801
C         0.23938528764834   -2.98440577602976    1.77739086861909
C        -0.74926018401720   -2.26125672713771    2.56164137876591
C        -1.97988950415790   -2.28504366855845    1.82956262944568
C        -0.24439089575550   -3.01162636350799   -1.83169793349575
C         0.73379187630052   -2.27743900735908   -2.55739237801073
C         1.96289255929692   -2.27710349407785   -1.79678073343333
C         1.75762811703574   -3.01338529024279   -0.60001062424548
C         0.40361448529643   -3.68977768980937   -0.64433278153164
C         2.79121013881284   -1.15222842554869   -1.81862824717803
C         2.40886988253081    0.00801013606093   -2.57609888491224
C         2.79437206627417    1.17702426203875   -1.82585100313598
C         3.41490175028627    0.73219302921650   -0.60306716557174
C         3.41278797579064   -0.70851184648980   -0.60468179377790
C         1.97518979522379    2.29772995487274   -1.82239715530889
C         0.74444094146647    2.29871247954579   -2.57818591217156
C        -0.24251468713413    3.01928700307091   -1.81998469525735
C         0.36826527241226    3.45978712671288   -0.59673356969892
C         1.74129156789567    3.01644132629328   -0.59698900189700
C        -1.57084062715084    2.58905908251063   -1.81777923977680
C        -1.94712992461278    1.42330938713953   -2.57911482000316
C        -2.94065517313995    0.70016351911366   -1.82313580716135
C        -3.17781003820282    1.42095866787170   -0.59960256015911
C        -2.32523979740704    2.59161567240977   -0.60078751809940
C        -2.93333701776722   -0.68868335144667   -1.81704685841710
C        -1.93658842902088   -1.40862918656971   -2.56974530252950
C        -1.55128448406983   -2.57224021980020   -1.81504333151883
C        -2.31362767609080   -2.56741090800519   -0.58171872833121
C        -3.16564901614424   -1.40312241495306   -0.59017906815645
C        -0.98898086009894   -0.71073128733894   -3.30572654974721
C        -0.99283630116821    0.73138773311954   -3.30894983693393
C         0.38023492655537    1.17576219244950   -3.30930255055640
C         1.22333992617671    0.00950807240636   -3.30446879437221
C         0.37661457229121   -1.15354434957210   -3.30085963739436
Cl       -1.95904966163361    0.02607280548684    5.25015910583747
Cl        0.59602353620430   -5.48443191289823   -0.98674986019449
62
 energy: -137.540384904949 gnorm: 0.000623581147 xtb: 6.4.1 (a3dbbd7)
C        -1.30474858954955    0.01093885966752    3.53654793293124
C        -0.37793352221909   -1.16300792012965    3.31216196893198
C         0.96689796544179   -0.71634967845734    3.27199767056401
C         0.97565986150913    0.72512811240919    3.27425392872084
C        -0.37498418926710    1.18164795638605    3.30981461933870