63
 energy: -142.061965494142 gnorm: 0.136886381675 xtb: 6.4.1 (a3dbbd7)
C        -1.29750015586385   -0.00332986390914    3.53259128384291
C        -0.36662330751186   -1.17665276848352    3.30664507069186
C         0.98616964776834   -0.71907897730420    3.28345800331063
C         0.97960460534774    0.72298388992876    3.28116382332211
C        -0.37123063139343    1.17283027203526    3.30703999424566
C         2.33902808225222   -2.57287964708243    0.59282134541102
C         3.18775381441874   -1.40592934941989    0.58930269986468
C         2.95375934983025   -0.68600072575484    1.81413225258493
C         1.96120405920183   -1.41040140165925    2.57054878390017
C         1.59036597905156   -2.57351223230031    1.81677968982536
C         3.18509045263714    1.42556506459426    0.58677401618036
C         2.33644918538866    2.58955715701350    0.58712295456856
C         1.57732702745437    2.58269052266160    1.81121996042124
C         1.95121649520604    1.42062240906665    2.56339217358200
C         2.94734969899541    0.70178584035143    1.81241871801286
C        -0.36230865601760    3.44984460076387    0.58649915495812
C        -1.73568065385573    3.00856312776383    0.58620129080773
C        -1.97466648707238    2.29051782036392    1.80819368403138
C        -0.73502216685138    2.27460254582232    2.56651749222581
C         0.25013328780141    2.99673212004624    1.80718987334861
C        -3.40556373000186    0.73624756401696    0.57396823263447
C        -3.39656113686751   -0.70087893853968    0.57336766874418
C        -2.76869398640548   -1.13743152688347    1.81131829425690
C        -2.41606481668825   -0.00935770106357    2.54947016075177
C        -2.77763293498784    1.16181023849822    1.80199827311876
C        -1.73897950039868   -3.00369688886198    0.61027095302842
C        -0.34675175341818   -3.43911314840585    0.58927014667112
C         0.26540959524459   -2.99405405130769    1.81086784239501
C        -0.72448106648574   -2.27696612285733    2.56655534431523
C        -1.96661719091772   -2.30337153119419    1.80189055009829
C        -0.25303910441721   -3.21697439825626   -1.93515078628168
C         0.75308145440921   -2.28653916290657   -2.57867440920420
C         1.95238411039292   -2.27005430543362   -1.81108187299871
C         1.72490810125568   -2.99201887192918   -0.58363119559495
C         0.37557574680441   -3.46024706207600   -0.57873868952343
C         2.78760429110383   -1.15277384641970   -1.81491371839878
C         2.41431409213368    0.00739165047242   -2.57035366353322
C         2.79604684339575    1.17540453813949   -1.81886357647572
C         3.41064679229982    0.73155426330899   -0.59398339018568
C         3.40671134080570   -0.71156461677298   -0.59219407131255
C         1.97416914155198    2.29602882113511   -1.81673739726529
C         0.74456425139311    2.29447798281708   -2.57376768155679
C        -0.24519477981105    3.02272291127020   -1.82308616330370
C         0.36643514376396    3.45792956944505   -0.59428177351760
C         1.74064009670815    3.01454722219930   -0.59425933402647
C        -1.56829205833959    2.59366542792251   -1.82366590722493
C        -1.95096538781572    1.43092752853070   -2.58180486333857
C        -2.95240685827341    0.71446038976117   -1.82971357566041
C        -3.18630415806833    1.43422379644892   -0.60509868332397
C        -2.32927637798178    2.59497169040384   -0.60132137479790
C        -2.94754506526652   -0.67313005777755   -1.82391405444887
C        -1.94410239546657   -1.40286442546858   -2.56150397187270
C        -1.58527622402766   -2.56555974461748   -1.79963026731950
C        -2.30667368088430   -2.55904727586024   -0.60742050910323
C        -3.17269142016400   -1.38977890440225   -0.59872192408106
C        -0.99841208662573   -0.71329160109820   -3.30239014224414
C        -0.99320180548013    0.72405697444618   -3.30061797729521
C         0.37942274041569    1.16763777902732   -3.29646704633613
C         1.22337490988637    0.00222195938508   -3.28765862798480
C         0.38284144139822   -1.16484842740713   -3.28531009498081
Cl       -1.93980801969369   -0.00660548094091    5.24287063977443
Cl       -0.38906216058057   -4.77802061432624   -2.87495725020283
Cl       -4.45409389200449    1.08746191523837   -2.76881203413835
63
 energy: -142.085787154433 gnorm: 0.060093427114 xtb: 6.4.1 (a3dbbd7)
C        -1.29614087992044   -0.00262682517662    3.53292192358479
C        -0.36602087451615   -1.17652396889388    3.30652005783964
C         0.98643128250695   -0.71926416199071    3.28326229962789
C         0.98030016877711    0.72310254735232    3.28106443968163
C        -0.36965815356543    1.17364567756615    3.30784634177464
C         2.33994992505715   -2.57357905015371    0.59348537811443
C         3.18811242544038   -1.40618256560891    0.58956945184737
C         2.95424222772127   -0.68641043767893    1.81409423161387
C         1.96174689576467   -1.41050020008036    2.57054318252832
C         1.59151135294039   -2.57427168616902    1.81762065678669
C         3.18627110926368    1.42545972607515    0.58737596586735
C         2.33890158285157    2.58991203426295    0.58831329578835
C         1.58006671713057    2.58329520525009    1.81281010858257
C         1.95295106425925    1.42068478836723    2.56394753311780
C         2.94839704760921    0.70171400519834    1.81280034001154
C        -0.35834798836810    3.45220030121051    0.58975903100328
C        -1.73195929623135    3.01295654535599    0.59501471093716
C        -1.97244897248325    2.29831651237418    1.81516822240267
C        -0.73210190840281    2.27765098065522    2.56938941539116
C         0.25379800171665    2.99927755453522    1.81016178914528
C        -3.39107378316640    0.73829262638323    0.57908127056802
C        -3.39167698065155   -0.70346953794038    0.57597033117294
C        -2.76716305053209   -1.13735308494685    1.80875489961344
C        -2.41357159907669   -0.00698748059017    2.54973737957486
C        -2.77484492850804    1.16607913684941    1.80906090346800
C        -1.73581677416672   -3.01128153575454    0.61392760547279
C        -0.34361922347934   -3.44387971641829    0.59161757961656
C         0.26719382751499   -2.99579560413339    1.81243288548209
C        -0.72373270610111   -2.27786783234911    2.56670592033803
C        -1.96464926043841   -2.30597425024903    1.80214302986955
C        -0.24766326065152   -3.22617752437806   -1.93484191753140
C         0.75521678387327   -2.29042956731896   -2.57663866734376
C         1.95360142165555   -2.27262157638927   -1.81060757678323
C         1.72669258981476   -2.99412158667323   -0.58256335598619
C         0.37852431986615   -3.46534601325075   -0.57692889900438
C         2.78821259153135   -1.15331959295665   -1.81406324684381
C         2.41467054098055    0.00756615545613   -2.56905881332080
C         2.79753760346454    1.17612089355035   -1.81810894516798
C         3.41125017050623    0.73156011674750   -0.59391848025492
C         3.40693735285693   -0.71213577165100   -0.59234700456904
C         1.97777865755408    2.29823276824572   -1.81572498115552
C         0.74980744413106    2.29928293589351   -2.57381069776393
C        -0.23749555211805    3.02570253839271   -1.82229426785439
C         0.37064283598363    3.46015169241419   -0.59227639925278
C         1.74428859311912    3.01644939938263   -0.59298560304059
C        -1.55992206015281    2.58817002083487   -1.81746711984287
C        -1.93640918840415    1.43465410566916   -2.57733905330629
C        -3.04266738549378    0.73839781606980   -1.88532718481326
C        -3.17629539054444    1.43928330977147   -0.59131666029094
C        -2.32130797420286    2.59021821797222   -0.59394356527189
C        -2.95548654931708   -0.69811933385959   -1.82765049618420
C        -1.93655187143306   -1.40849958826073   -2.54736335826047
C        -1.57858167265161   -2.57913057995203   -1.79494382641535
C        -2.29909343686467   -2.57082216086433   -0.60568157097968
C        -3.15844916585148   -1.39465303767657   -0.59993550011345
C        -0.99392772466648   -0.71583388006728   -3.29455630202483
C        -0.98430634742356    0.72571380284614   -3.28981375477667
C         0.38477920987139    1.17077081515910   -3.29672495480818
C         1.22446038476314    0.00268832855606   -3.28600192147137
C         0.38312516038898   -1.16554155353819   -3.28231367810966
Cl       -1.93953523030087   -0.00725025430576    5.24278340124067
Cl       -0.38063855628716   -4.78489040314741   -2.87798747726042
Cl       -4.57338341426456    1.13137372618448   -2.84621395886877
63
 energy: -142.091777381516 gnorm: 0.014514689352 xtb: 6.4.1 (a3dbbd7)
C        -1.29323321673700   -0.00281533898232    3.53249068044444
C        -0.36317044856053   -1.17685711362297    3.30717711053468
C         0.98895761035953   -0.71980988943943    3.28397876095523
C         0.98299180981442    0.72273816019911    3.28176284968005
C        -0.36640723393417    1.17407869157340    3.30971558867810
C         2.34291614287064   -2.57505400508094    0.59549918370694
C         3.19047323167854   -1.40715411312301    0.59127747229286
C         2.95676715586161   -0.68723950302696    1.81527840959130
C         1.96463310467691   -1.41115045735274    2.57190781066263
C         1.59463006981474   -2.57552463113106    1.81975441557387
C         3.18924524720535    1.42492744048369    0.58903536961946
C         2.34289980021439    2.58980286632431    0.59032214616525
C         1.58418969079490    2.58331427695715    1.81513676868375
C         1.95663290956501    1.42028202580096    2.56550984185084
C         2.95152401965361    0.70109860216785    1.81434575971380
C        -0.35529096566077    3.45107957334208    0.59174871188991
C        -1.72872564921896    3.01098674528649    0.59780484375943
C        -1.96713299580107    2.29993873735866    1.81618411157811
C        -0.72841696406527    2.27974817653271    2.57287474658097
C         0.25812929311648    3.00007441008360    1.81274559840435
C        -3.38597847666927    0.74075710878835    0.57492771087104
C        -3.39240297174026   -0.70498220835393    0.57748382482907
C        -2.76422587845216   -1.13751659323616    1.80334889973019
C        -2.40820849772041   -0.00656378533805    2.54656023775171
C        -2.76691597265771    1.16450976681850    1.80486928967566
C        -1.73217773268382   -3.01401421830572    0.61637889968485
C        -0.33998959308512   -3.44829039072787    0.59456805955356
C         0.27068828403114   -2.99767944322186    1.81466924686449
C        -0.72116696232369   -2.27836979752898    2.56710903912274
C        -1.96139593409569   -2.30821700275921    1.80282826304605
C        -0.24479102504765   -3.22978645179285   -1.93232692466600
C         0.75709743390305   -2.29291590776106   -2.57300783637879
C         1.95511844703061   -2.27471885048131   -1.80846561278617
C         1.72985598621315   -2.99683383319350   -0.58003289719725
C         0.38223116274086   -3.47028415148162   -0.57427573639164
C         2.78980653794118   -1.15434497256975   -1.81158485619877
C         2.41525372378115    0.00688039855514   -2.56654665678875
C         2.80017951030322    1.17610532064071   -1.81647860856680
C         3.41306189761845    0.73094072031674   -0.59270749620243
C         3.40849314476922   -0.71336663956567   -0.59109225133962
C         1.98199709548566    2.29944474379058   -1.81421144453561
C         0.75202426549405    2.29907020554254   -2.56926730172474
C        -0.23431405764833    3.02240035526389   -1.81967545416338
C         0.37372983140599    3.45883841462567   -0.59054785206332
C         1.74815590947735    3.01691358675979   -0.59089518075497
C        -1.55786885867044    2.57692388258675   -1.81472026758985
C        -1.93732942191401    1.43711457727536   -2.57861164478141
C        -3.12193175821722    0.76251440965610   -1.93404115019249
C        -3.17925722347871    1.44245665162680   -0.58958551558840
C        -2.31896993825507    2.57944337411987   -0.59151410572742
C        -2.95383230265714   -0.70179152096478   -1.82531201554469
C        -1.93663466510070   -1.40314450183919   -2.53820828422209
C        -1.57353307053369   -2.57924553358179   -1.79111269351912
C        -2.29188947539315   -2.56918800428066   -0.60390903535760
C        -3.14986841433158   -1.38851366547562   -0.60419290028010
C        -0.99385697573516   -0.71679386622528   -3.29212175056835
C        -0.98684064477278    0.72810635810063   -3.28267035904151
C         0.38345035962689    1.16901287436282   -3.28851737221527
C         1.22418130518865    0.00195398591406   -3.28121830216969
C         0.38067009407673   -1.16545819798618   -3.27674664177056
Cl       -1.94026300379185   -0.00782791707705    5.24112551960715
Cl       -0.36851277831568   -4.78700247247478   -2.87847006927276
Cl       -4.66259383876585    1.15906245928633   -2.90321661011055
63
 energy: -142.092099164565 gnorm: 0.008678626415 xtb: 6.4.1 (a3dbbd7)
C        -1.29156955667247   -0.00287223007200    3.53122450329548
C        -0.36136119873488   -1.17695899365111    3.30745934156484
C         0.99082540365550   -0.72010353211754    3.28449314073215
C         0.98509874755771    0.72246310851235    3.28251275101063
C        -0.36430763608205    1.17393908057238    3.31018557916213
C         2.34465428108407   -2.57599946330920    0.59647910098907
C         3.19219531839097   -1.40797093686117    0.59218437249986
C         2.95860570519074   -0.68783070762361    1.81605338901155
C         1.96659763184371   -1.41175463416548    2.57279884836336
C         1.59636765061053   -2.57636729834195    1.82091258364035
C         3.19141903603443    1.42464871480818    0.58998784895152
C         2.34518136479895    2.58969091107569    0.59132727655714
C         1.58646926189925    2.58332748244366    1.81639458364347
C         1.95901040310256    1.42006419794909    2.56658959179780
C         2.95369893803169    0.70061584555281    1.81526640830705
C        -0.35409807916782    3.44928328094712    0.59227411479106
C        -1.72734024022114    3.00856656284008    0.59679425887464
C        -1.96473133007999    2.29902013247618    1.81513388035039
C        -0.72650425584826    2.27981933965227    2.57384332409746
C         0.26020088564574    2.99988573817752    1.81377309518801
C        -3.38870353774159    0.74194938383100    0.57188395926233
C        -3.39489174300428   -0.70536666002076    0.57866654755040
C        -2.76355635368391   -1.13763113492513    1.80171534866088
C        -2.40533495574313   -0.00651941025529    2.54384031938802
C        -2.76339810692676    1.16323262177233    1.80053678920244
C        -1.73080667925295   -3.01337449989823    0.61686548062217
C        -0.33867630699794   -3.44901589822012    0.59562854604398
C         0.27226531821323   -2.99839041344353    1.81575373529836
C        -0.71977184644950   -2.27831951709052    2.56751129242690
C        -1.95999235155492   -2.30839214211230    1.80326352745859
C        -0.24428732869482   -3.22936045534169   -1.93130050639116
C         0.75766775156315   -2.29283355762677   -2.57150504676337
C         1.95569425164839   -2.27493420542814   -1.80730815747725
C         1.73123972166834   -2.99774931274266   -0.57898536604025
C         0.38339654588628   -3.47093942771672   -0.57319280917250
C         2.79068090261279   -1.15475446865392   -1.81035808970179
C         2.41489820593818    0.00646248057299   -2.56485579131713
C         2.80109476677653    1.17562320268651   -1.81522040277624
C         3.41460759885224    0.73048410947381   -0.59189170484210
C         3.40978886735580   -0.71405524876791   -0.59028994263811
C         1.98318022051484    2.29910609670549   -1.81314985351315
C         0.75152394541820    2.29752717223878   -2.56641739116406
C        -0.23495832630138    3.01936235794748   -1.81745735496414
C         0.37458731588399    3.45683949901772   -0.58957146984906
C         1.74973055981218    3.01651353984436   -0.58980529393979
C        -1.55975854107298    2.57365677000665   -1.81521185292574
C        -1.94489385586906    1.43928669028953   -2.58357844864161
C        -3.14063589378580    0.77004103576466   -1.94554373031973
C        -3.18760764383059    1.44467936319318   -0.59342883525372
C        -2.32070276274606    2.57644119482551   -0.59210841449302
C        -2.95234217271059   -0.69722604621403   -1.82414349630165
C        -1.93932785953185   -1.39964341429304   -2.53822716515643
C        -1.57271957152801   -2.57691146595269   -1.79043717891252
C        -2.28963920823517   -2.56557915347401   -0.60341003088577
C        -3.14983477626955   -1.38428970437009   -0.60595989942559
C        -0.99469339490033   -0.71704765791397   -3.29356199600797
C        -0.99134245175956    0.72918204577665   -3.28332758883999
C         0.38059799144315    1.16745097348830   -3.28365570883500
C         1.22281842204364    0.00155755738265   -3.27783459487773
C         0.37938671363105   -1.16549481410436   -3.27478108138391
Cl       -1.94306931141371   -0.00841074736289    5.23806884986786
Cl       -0.36256663919804   -4.78696948521498   -2.87723779163006
Cl       -4.67720168242021    1.16041006961923   -2.91253105077694
63
 energy: -142.092211413547 gnorm: 0.004779761277 xtb: 6.4.1 (a3dbbd7)
C        -1.29079712678833   -0.00277678962943    3.53042106352601
C        -0.36056913400262   -1.17692685914155    3.30755238540253
C         0.99164242404062   -0.72010927097225    3.28459566455474
C         0.98615619708990    0.72241521399926    3.28294882086016
C        -0.36329319692309    1.17390868104297    3.31049808206436
C         2.34521334534149   -2.57633467260777    0.59663563973845
C         3.19282071756573   -1.40828023337066    0.59229239685172
C         2.95922257758977   -0.68794362914727    1.81610154781195
C         1.96737326811800   -1.41194218582992    2.57298526306462
C         1.59695029969205   -2.57667991545804    1.82125868232361
C         3.19246354034292    1.42470506827699    0.59027851914994
C         2.34634081138512    2.58988624239603    0.59171308504261
C         1.58752273906259    2.58359509262662    1.81704551012066
C         1.96006649520240    1.42011721358446    2.56705647523252
C         2.95461517176789    0.70052169552632    1.81549131377129
C        -0.35346024289728    3.44816323179756    0.59258273357873
C        -1.72623425635853    3.00681381227996    0.59607648995890
C        -1.96363999918983    2.29845449033641    1.81478345263085
C        -0.72553394102275    2.27991784706010    2.57460924488195
C         0.26113825524817    2.99994960169476    1.81455949555654
C        -3.39016813978580    0.74230731676042    0.57041479685260
C        -3.39687689753397   -0.70602587753970    0.58037715682454
C        -2.76403342198235   -1.13800137949701    1.80166259806782
C        -2.40374652975258   -0.00651504215237    2.54216518252806
C        -2.76147751868222    1.16262307633755    1.79799540983459
C        -1.73039416977715   -3.01278058870123    0.61724041987024
C        -0.33831088170553   -3.44901549547644    0.59602249144597
C         0.27276795044662   -2.99868148078987    1.81625599468570
C        -0.71931551564868   -2.27828509924472    2.56789474408363
C        -1.95957702493808   -2.30854218413459    1.80382178752973
C        -0.24431638721805   -3.22875108542275   -1.93120349618207
C         0.75791588563787   -2.29254836846685   -2.57117095893951
C         1.95580646817474   -2.27481674678506   -1.80703877366173
C         1.73157185689247   -2.99800636488998   -0.57882365949609
C         0.38348213403108   -3.47069881568882   -0.57283899197072
C         2.79106649049002   -1.15485584892688   -1.81007613371126
C         2.41466352349111    0.00637922383179   -2.56429596311207
C         2.80149452100976    1.17539638124324   -1.81468595594124
C         3.41545732745047    0.73038124227268   -0.59168991011376
C         3.41039439314233   -0.71428712606442   -0.59018686324060
C         1.98390315646968    2.29902286150398   -1.81273848770031
C         0.75133373321921    2.29668772760209   -2.56506284455285
C        -0.23528781099068    3.01729739945226   -1.81578950754113
C         0.37504552633575    3.45561508757587   -0.58896514633410
C         1.75066080601363    3.01647984757086   -0.58944811005007
C        -1.56042571110634    2.57156169443182   -1.81523871296580
C        -1.94941981743913    1.44011276389926   -2.58643790035229
C        -3.14865121037553    0.77369464326407   -1.95062030090578
C        -3.19252080148215    1.44544243727003   -0.59589705313820
C        -2.32128478976834    2.57446109410664   -0.59218382299524
C        -2.94963870358671   -0.69323547045729   -1.82244286648209
C        -1.94092774570571   -1.39733808829722   -2.53888466616178
C        -1.57257884097067   -2.57563507394670   -1.79008920659249
C        -2.28824620911157   -2.56318863821667   -0.60317295189011
C        -3.14980068629147   -1.38129760013109   -0.60655389890407
C        -0.99467104443298   -0.71747412816052   -3.29519068815026
C        -0.99359559864978    0.72954271573438   -3.28384060285091
C         0.37894390442625    1.16669222522793   -3.28100290602224
C         1.22196696716265    0.00145116659228   -3.27607746846530
C         0.37894857767456   -1.16562050336310   -3.27450002231187
Cl       -1.94639762773859   -0.00878094317372    5.23555821193331
Cl       -0.36083096466419   -4.78674820421604   -2.87630994836045
Cl       -4.67806898931561    1.15659053675965   -2.91330249728953
63
 energy: -142.092253360204 gnorm: 0.002417492193 xtb: 6.4.1 (a3dbbd7)
C        -1.29079500254486   -0.00265719655563    3.53023417385314
C        -0.36060816951003   -1.17685625222525    3.30749225383873
C         0.99159832675627   -0.72002908579394    3.28443637441431
C         0.98623669263927    0.72243597616727    3.28298364983236
C        -0.36324298358497    1.17395101252948    3.31063565092837
C         2.34498153468809   -2.57626792287087    0.59640686339229
C         3.19263436487498   -1.40826033702188    0.59202676713646
C         2.95902332790908   -0.68786174763541    1.81583264095472
C         1.96726312376844   -1.41189905140837    2.57278064204926
C         1.59674778147994   -2.57662804325733    1.82109772269380
C         3.19246146664695    1.42479949013515    0.59014598046273
C         2.34646863578091    2.59005452945762    0.59164262060275
C         1.58757169763171    2.58377660684709    1.81710278632687
C         1.96004151019542    1.42018299957725    2.56698362271348
C         2.95456587109709    0.70056194312102    1.81531508871389
C        -0.35334767930334    3.44795969829115    0.59267031397074
C        -1.72576620853071    3.00634763072556    0.59592009080451
C        -1.96353862020131    2.29845331783962    1.81497435606495
C        -0.72538281949897    2.28009974564186    2.57501679202187
C         0.26119580926405    3.00012558137539    1.81488863575549
C        -3.39010855303290    0.74226398254311    0.57023308802274
C        -3.39778268284901   -0.70648590376944    0.58155137730579
C        -2.76494351446361   -1.13827125890518    1.80226376907504
C        -2.40350205998755   -0.00647449935158    2.54172250832497
C        -2.76099757632596    1.16262894492187    1.79734304753741
C        -1.73061451037739   -3.01251031858079    0.61743419742665
C        -0.33850248910696   -3.44878496520457    0.59595507091770
C         0.27258024112809   -2.99864811413849    1.81624846852437
C        -0.71953964740359   -2.27829288622692    2.56805318635717
C        -1.95982190648815   -2.30864094785132    1.80415170409848
C        -0.24454195337199   -3.22853892255582   -1.93153441610724
C         0.75788196608800   -2.29242206427874   -2.57147336409397
C         1.95561411475980   -2.27469756033130   -1.80724950645795
C         1.73130435315018   -2.99791655896328   -0.57905704725596
C         0.38312943003059   -3.47038413793347   -0.57293664502449
C         2.79098840542124   -1.15480652955802   -1.81030728409207
C         2.41457013090537    0.00648046995611   -2.56453512137678
C         2.80146255809601    1.17540934600496   -1.81473313790734
C         3.41550973503381    0.73043259734347   -0.59186249132181
C         3.41034008664490   -0.71426514216516   -0.59042403031820
C         1.98414929217242    2.29919808776562   -1.81283939656905
C         0.75142812486372    2.29666806755649   -2.56499585682931
C        -0.23527031838184    3.01676906584125   -1.81519065259447
C         0.37514531093530    3.45539960316881   -0.58883181332947
C         1.75091254901659    3.01665094143960   -0.58957684664451
C        -1.56012885939143    2.57079077286573   -1.81493681939311
C        -1.95017338089244    1.43994489061216   -2.58670941789605
C        -3.15054885986709    0.77453318833733   -1.95192903851409
C        -3.19332173061558    1.44522975857169   -0.59640945767188
C        -2.32096696052602    2.57367713259805   -0.59187933022246
C        -2.94722039350947   -0.69125779979634   -1.82095819615499
C        -1.94110556082724   -1.39636609605318   -2.53904134349902
C        -1.57269076750336   -2.57547039538938   -1.78993101511356
C        -2.28774906250432   -2.56248931585441   -0.60319926920202
C        -3.14932131171817   -1.37997677470478   -0.60640946855384
C        -0.99424963080742   -0.71771299757733   -3.29598779598850
C        -0.99374590059091    0.72955147153179   -3.28371427522509
C         0.37858482388894    1.16670060981052   -3.28049632755137
C         1.22176617405921    0.00155371774681   -3.27598079312989
C         0.37901529128363   -1.16570864648965   -3.27513146175265
Cl       -1.94822328900955   -0.00888751904223    5.23455729848425
Cl       -0.36143483784304   -4.78652003371351   -2.87623368849671
Cl       -4.67312736096225    1.15142176703807   -2.91047109092503
63
 energy: -142.092264653806 gnorm: 0.001285055439 xtb: 6.4.1 (a3dbbd7)
C        -1.29105566749024   -0.00260195903570    3.53040324008005
C        -0.36090574846851   -1.17682004369316    3.30740568871386
C         0.99129229813793   -0.72000234932910    3.28429143096280
C         0.98593615484664    0.72244020628573    3.28284636833984
C        -0.36354849731049    1.17399098742873    3.31062576561428
C         2.34462036785008   -2.57613399079326    0.59620967798191
C         3.19229286800670   -1.40818429784252    0.59182977832569
C         2.95870516899556   -0.68782577195102    1.81566380225897
C         1.96693727104283   -1.41184762276183    2.57259896059450
C         1.59640639701067   -2.57651067540126    1.82087338833478
C         3.19211764101377    1.42479297159628    0.58998322246593
C         2.34618525685587    2.59004713552692    0.59148943564666
C         1.58728108065320    2.58375706162110    1.81692196633697
C         1.95969106458190    1.42016557671023    2.56678100061430
C         2.95424818173467    0.70056775509467    1.81514533110571
C        -0.35347659465604    3.44822576939687    0.59262461521189
C        -1.72585381914752    3.00670418365826    0.59606421140089
C        -1.96379794879396    2.29868340622014    1.81521369116485
C        -0.72558341089109    2.28020870177288    2.57501459091087
C         0.26095930225400    3.00020910757201    1.81482682500071
C        -3.38962923531335    0.74223295286313    0.57056084061871
C        -3.39781975282410   -0.70651110396661    0.58176024424400
C        -2.76545360966172   -1.13826368560687    1.80266546214332
C        -2.40390806518277   -0.00640520717642    2.54201148551099
C        -2.76127657359733    1.16285244778353    1.79771734172823
C        -1.73094510171248   -3.01250323765074    0.61745596680925
C        -0.33876962479888   -3.44863263176465    0.59576414259816
C         0.27227190491839   -2.99851582148880    1.81604710791815
C        -0.71987559352833   -2.27829914178541    2.56799850378519
C        -1.96015426093572   -2.30863608081786    1.80416571232431
C        -0.24469937451444   -3.22864023916984   -1.93180873778404
C         0.75773883529771   -2.29243226507657   -2.57178639734239
C         1.95540380192761   -2.27466690192520   -1.80747809437267
C         1.73099324920599   -2.99777973146128   -0.57925996086758
C         0.38286736473007   -3.47031321043107   -0.57313469922221
C         2.79078130920948   -1.15475236938045   -1.81053913953502
C         2.41457360648589    0.00657421257869   -2.56486664112266
C         2.80131070842706    1.17549326504226   -1.81492607882654
C         3.41524059972290    0.73046797887267   -0.59202935641415
C         3.41007138738331   -0.71420878182977   -0.59060270145595
C         1.98408410602799    2.29936187256969   -1.81302625992265
C         0.75156875753575    2.29696490064304   -2.56537898225512
C        -0.23515041105017    3.01717634236750   -1.81538451632063
C         0.37507344228028    3.45569033824099   -0.58894725772063
C         1.75078493650972    3.01675957395338   -0.58974657164782
C        -1.55974717733866    2.57103531818642   -1.81475582385112
C        -1.94913414022596    1.43966532431452   -2.58593804529994
C        -3.15003674175867    0.77410698346362   -1.95167486375781
C        -3.19225386732973    1.44496046421680   -0.59589620246007
C        -2.32061742140730    2.57387338802713   -0.59166698281978
C        -2.94625556135660   -0.69114870469926   -1.82033868097571
C        -1.94059041731945   -1.39638031728631   -2.53878270190281
C        -1.57280276062479   -2.57576186456723   -1.78993457440892
C        -2.28789466910529   -2.56282201507075   -0.60331567962031
C        -3.14889115338539   -1.38000171482789   -0.60608576615141
C        -0.99400336543346   -0.71765266787602   -3.29595818004062
C        -0.99313478686508    0.72955784489793   -3.28347451461414
C         0.37890001127873    1.16698728642945   -3.28102386293033
C         1.22193802836668    0.00167692100126   -3.27656371052019
C         0.37916372252909   -1.16568482362826   -3.27569230538991
Cl       -1.94813358972363   -0.00887134167914    5.23481370759359
Cl       -0.36227541557249   -4.78639351834989   -2.87660023248263