62
 energy: -137.505171249164 gnorm: 0.134307754363 xtb: 6.4.1 (a3dbbd7)
C        -1.29770965891222    0.00000000000000    3.53163224767276
C        -0.37107604425475   -1.17478800586359    3.31058196643012
C         0.97979757550459   -0.72157705231961    3.28110534952822
C         0.97979757550459    0.72157705231961    3.28110534952822
C        -0.37107604425475    1.17478800586360    3.31058196643013
C         2.33544184946295   -2.58264348698296    0.58346340581249
C         3.18207169571150   -1.41543014636129    0.58234433372313
C         2.94373959867916   -0.69404060100004    1.80708186552027
C         1.95046398470883   -1.41556779135961    2.56176558167067
C         1.57767488865866   -2.57871801508103    1.80912454278211
C         3.18207169571150    1.41543014636129    0.58234433372313
C         2.33544184946295    2.58264348698296    0.58346340581249
C         1.57767488865866    2.57871801508103    1.80912454278211
C         1.95046398470883    1.41556779135961    2.56176558167066
C         2.94373959867916    0.69404060100004    1.80708186552027
C        -0.36119281684147    3.44519252612879    0.58582996047390
C        -1.73469290191499    3.00153459982720    0.58916793337350
C        -1.97220713510261    2.29308475607878    1.81059639720294
C        -0.73400332666893    2.27691900303500    2.56853480078419
C         0.25309257506893    2.99789064535074    1.80898867763471
C        -3.39649784746455    0.71758744312072    0.57410478167568
C        -3.39649784746455   -0.71758744312072    0.57410478167568
C        -2.77168037603652   -1.14964415915414    1.80664876434809
C        -2.42168465399864    0.00000000000000    2.56054627302143
C        -2.77168037603652    1.14964415915414    1.80664876434809
C        -1.73469290191499   -3.00153459982719    0.58916793337351
C        -0.36119281684148   -3.44519252612879    0.58582996047390
C         0.25309257506893   -2.99789064535073    1.80898867763471
C        -0.73400332666892   -2.27691900303499    2.56853480078419
C        -1.97220713510261   -2.29308475607878    1.81059639720295
C        -0.24585893810850   -3.00970705822685   -1.82232538763502
C         0.74439012833927   -2.28841876480361   -2.57822875384061
C         1.97268106729833   -2.28861170675520   -1.82114897801170
C         1.74031203428013   -3.00832022201671   -0.59623578829480
C         0.36724813466371   -3.45114129717027   -0.59443426078026
C         2.79027372790168   -1.16551010025889   -1.82330670861298
C         2.41077011246349    0.00000000000000   -2.58030971859023
C         2.79027372790168    1.16551010025889   -1.82330670861298
C         3.40598095600767    0.72109250237888   -0.59875668403540
C         3.40598095600767   -0.72109250237888   -0.59875668403540
C         1.97268106729833    2.28861170675520   -1.82114897801170
C         0.74439012833927    2.28841876480360   -2.57822875384062
C        -0.24585893810850    3.00970705822685   -1.82232538763502
C         0.36724813466371    3.45114129717027   -0.59443426078026
C         1.74031203428013    3.00832022201671   -0.59623578829480
C        -1.56847069976934    2.58049680433801   -1.82122736601016
C        -1.94730857051169    1.41533687195356   -2.58360676406823
C        -2.94243160962768    0.69434475341889   -1.82977489504240
C        -3.17479380115303    1.41444285760430   -0.60326970185865
C        -2.32688654321742    2.58113588269429   -0.60086409487791
C        -2.94243160962768   -0.69434475341889   -1.82977489504240
C        -1.94730857051169   -1.41533687195356   -2.58360676406823
C        -1.56847069976934   -2.58049680433801   -1.82122736601016
C        -2.32688654321742   -2.58113588269429   -0.60086409487790
C        -3.17479380115303   -1.41444285760429   -0.60326970185865
C        -0.99138524268633   -0.72097607833148   -3.31029871234527
C        -0.99138524268633    0.72097607833148   -3.31029871234528
C         0.38054100031802    1.16548515734434   -3.30884687187952
C         1.22668597234242    0.00000000000000   -3.30783368151334
C         0.38054100031802   -1.16548515734434   -3.30884687187952
Cl       -1.93737486741132   -0.00000000000005    5.25509316806359
Cl        1.83802564255295    0.00000000000000   -5.01146621455175
62
 energy: -137.528635935156 gnorm: 0.057860688011 xtb: 6.4.1 (a3dbbd7)
C        -1.29850556528145    0.00000000000000    3.53255891774274
C        -0.37212048720757   -1.17464670269746    3.31115170782825
C         0.97912886695698   -0.72149506078505    3.28229850731580
C         0.97912886695698    0.72149506078505    3.28229850731580
C        -0.37212048720757    1.17464670269747    3.31115170782826
C         2.33664296405510   -2.58262021631283    0.58742708248415
C         3.18587721058724   -1.41629438935202    0.58985872553134
C         2.94546633007248   -0.69389153962593    1.81304264652380
C         1.95030598107453   -1.41577948066171    2.56466742183298
C         1.57786026943720   -2.57870839295982    1.81063647609054
C         3.18587721058724    1.41629438935202    0.58985872553134
C         2.33664296405510    2.58262021631283    0.58742708248415
C         1.57786026943720    2.57870839295982    1.81063647609054
C         1.95030598107453    1.41577948066172    2.56466742183297
C         2.94546633007248    0.69389153962593    1.81304264652380
C        -0.36252087773255    3.44429738651583    0.58705755071930
C        -1.73679437405521    3.00153986778946    0.59101076823167
C        -1.97402427281130    2.29399436188011    1.81240390089364
C        -0.73486577890031    2.27681611087383    2.56869508105873
C         0.25227959650247    2.99793626002003    1.80976242344582
C        -3.39747005700549    0.71777519300742    0.57641708182264
C        -3.39747005700549   -0.71777519300741    0.57641708182265
C        -2.77211797277807   -1.14969536195128    1.80850121277028
C        -2.42286955824414    0.00000000000000    2.56261816168542
C        -2.77211797277808    1.14969536195128    1.80850121277028
C        -1.73679437405521   -3.00153986778946    0.59101076823168
C        -0.36252087773256   -3.44429738651583    0.58705755071930
C         0.25227959650247   -2.99793626002003    1.80976242344582
C        -0.73486577890031   -2.27681611087382    2.56869508105873
C        -1.97402427281130   -2.29399436188010    1.81240390089364
C        -0.25154212386339   -3.01402280516139   -1.81966426336527
C         0.73581428099927   -2.28530014240923   -2.56755037580138
C         1.97192855744321   -2.28743180993576   -1.81546598995492
C         1.73933930961330   -3.00634121560997   -0.59497516780671
C         0.36531355528026   -3.45045137417288   -0.59328168048358
C         2.78967800923934   -1.15950444969195   -1.81093768745745
C         2.43547323356432   -0.00000000000000   -2.57285453394215
C         2.78967800923934    1.15950444969195   -1.81093768745745
C         3.41392685196837    0.72036073136906   -0.58745347180054
C         3.41392685196837   -0.72036073136907   -0.58745347180054
C         1.97192855744321    2.28743180993576   -1.81546598995492
C         0.73581428099927    2.28530014240922   -2.56755037580138
C        -0.25154212386339    3.01402280516139   -1.81966426336527
C         0.36531355528026    3.45045137417288   -0.59328168048358
C         1.73933930961330    3.00634121560997   -0.59497516780671
C        -1.57511434438291    2.58401951003605   -1.81919265694662
C        -1.95366096900264    1.41930182966510   -2.57886010835284
C        -2.94646336720672    0.69487245661201   -1.82678864060940
C        -3.17831788271311    1.41563146410547   -0.60063909441318
C        -2.33142578488089    2.58273547140862   -0.59834490500877
C        -2.94646336720672   -0.69487245661201   -1.82678864060940
C        -1.95366096900264   -1.41930182966510   -2.57886010835284
C        -1.57511434438291   -2.58401951003605   -1.81919265694662
C        -2.33142578488089   -2.58273547140862   -0.59834490500876
C        -3.17831788271311   -1.41563146410547   -0.60063909441318
C        -0.99265437189285   -0.72181623886498   -3.29918542193794
C        -0.99265437189285    0.72181623886498   -3.29918542193794
C         0.36849736872381    1.17184390678811   -3.29889669051111
C         1.26147455082169   -0.00000000000000   -3.40926770478607
C         0.36849736872381   -1.17184390678811   -3.29889669051111
Cl       -1.93614681205664   -0.00000000000006    5.25758150234974
Cl        1.88380044968305   -0.00000000000000   -5.15233634581144
62
 energy: -137.534807898496 gnorm: 0.012873080082 xtb: 6.4.1 (a3dbbd7)
C        -1.29965727602068    0.00000000000000    3.53742744999401
C        -0.37346475286294   -1.17437199132593    3.31637413916542
C         0.97813548919112   -0.72140205270513    3.28732876544935
C         0.97813548919112    0.72140205270514    3.28732876544935
C        -0.37346475286294    1.17437199132594    3.31637413916542
C         2.33600606819975   -2.58185406024144    0.59172935710622
C         3.18421556955407   -1.41565237605985    0.59478823374316
C         2.94532095379326   -0.69412571439965    1.81919156800331
C         1.94938012118508   -1.41563715868765    2.57029481957517
C         1.57665628094928   -2.57750740034002    1.81366797144237
C         3.18421556955406    1.41565237605986    0.59478823374316
C         2.33600606819975    2.58185406024144    0.59172935710621
C         1.57665628094928    2.57750740034002    1.81366797144237
C         1.94938012118508    1.41563715868765    2.57029481957517
C         2.94532095379326    0.69412571439966    1.81919156800331
C        -0.36372625215287    3.44289643782706    0.58933317037760
C        -1.73845890235001    3.00142030232522    0.59366766772622
C        -1.97416021612214    2.29262754536210    1.81513539575228
C        -0.73558229072375    2.27588255643802    2.57239556231484
C         0.25086088929347    2.99637888899301    1.81280803135457
C        -3.40012957754855    0.71756912825890    0.58122575104399
C        -3.40012957754855   -0.71756912825889    0.58122575104399
C        -2.77348483898991   -1.14927533818662    1.81246425163889
C        -2.42379545215666    0.00000000000001    2.56749691964694
C        -2.77348483898991    1.14927533818663    1.81246425163889
C        -1.73845890235001   -3.00142030232521    0.59366766772623
C        -0.36372625215287   -3.44289643782706    0.58933317037760
C         0.25086088929347   -2.99637888899300    1.81280803135458
C        -0.73558229072375   -2.27588255643801    2.57239556231484
C        -1.97416021612214   -2.29262754536209    1.81513539575228
C        -0.25197312681324   -3.00519030248785   -1.81569319179085
C         0.73349298310595   -2.27770334704889   -2.56826112705802
C         1.97209709664569   -2.28708465194939   -1.81471340236146
C         1.73814073384507   -3.00134196923166   -0.59442967079604
C         0.36405616038456   -3.44638188639950   -0.59078555903739
C         2.78149024041611   -1.15170867710593   -1.80937223413097
C         2.43671706058243   -0.00000000000000   -2.56921025723760
C         2.78149024041611    1.15170867710592   -1.80937223413097
C         3.41000217578144    0.71876630895234   -0.58264057692277
C         3.41000217578144   -0.71876630895234   -0.58264057692277
C         1.97209709664570    2.28708465194938   -1.81471340236147
C         0.73349298310595    2.27770334704889   -2.56826112705802
C        -0.25197312681324    3.00519030248785   -1.81569319179085
C         0.36405616038456    3.44638188639950   -0.59078555903740
C         1.73814073384507    3.00134196923166   -0.59442967079605
C        -1.57705506296816    2.58089820244498   -1.81588403896624
C        -1.95299964298601    1.41884453755343   -2.57420870669450
C        -2.94677183293167    0.69484385044022   -1.82248480868635
C        -3.18103662801040    1.41545330796498   -0.59652596887820
C        -2.33466120340144    2.58294527341252   -0.59474822046539
C        -2.94677183293167   -0.69484385044022   -1.82248480868635
C        -1.95299964298601   -1.41884453755343   -2.57420870669450
C        -1.57705506296816   -2.58089820244498   -1.81588403896624
C        -2.33466120340144   -2.58294527341252   -0.59474822046539
C        -3.18103662801040   -1.41545330796498   -0.59652596887820
C        -0.98461978711383   -0.72158863886221   -3.29081341635855
C        -0.98461978711383    0.72158863886220   -3.29081341635856
C         0.36762437739784    1.17367737178785   -3.30446866521985
C         1.29125552561274   -0.00000000000000   -3.50507072376538
C         0.36762437739784   -1.17367737178785   -3.30446866521984
Cl       -1.93935782871839   -0.00000000000008    5.26270174029615
Cl        1.92528719469294   -0.00000000000000   -5.26240646215105
62
 energy: -137.535138007805 gnorm: 0.007959709792 xtb: 6.4.1 (a3dbbd7)
C        -1.30060864984141    0.00000000000001    3.54140066483658
C        -0.37421794449677   -1.17411324010975    3.32003223751122
C         0.97775701931391   -0.72143881621390    3.29040873435435
C         0.97775701931391    0.72143881621391    3.29040873435435
C        -0.37421794449677    1.17411324010977    3.32003223751123
C         2.33504267067769   -2.58124904013955    0.59288799360667
C         3.18201277222853   -1.41483940769364    0.59531187534370
C         2.94433349871872   -0.69424574557357    1.82056522006477
C         1.94878207403801   -1.41548402977774    2.57272038003917
C         1.57570762300465   -2.57684563562308    1.81510560761217
C         3.18201277222853    1.41483940769364    0.59531187534370
C         2.33504267067769    2.58124904013955    0.59288799360666
C         1.57570762300465    2.57684563562309    1.81510560761216
C         1.94878207403801    1.41548402977775    2.57272038003916
C         2.94433349871872    0.69424574557358    1.82056522006477
C        -0.36404560470724    3.44136714145058    0.59026911802660
C        -1.73879716810728    3.00072248398003    0.59514537456162
C        -1.97408159252073    2.29148823159696    1.81684960951371
C        -0.73598746439441    2.27509568388070    2.57478084991652
C         0.25018169626624    2.99529547541264    1.81467693613923
C        -3.40158412676560    0.71738000866627    0.58377652160215
C        -3.40158412676560   -0.71738000866625    0.58377652160215
C        -2.77467169460376   -1.14907992186903    1.81497125162117
C        -2.42418678027834    0.00000000000001    2.57058421643579
C        -2.77467169460376    1.14907992186904    1.81497125162117
C        -1.73879716810728   -3.00072248398002    0.59514537456162
C        -0.36404560470724   -3.44136714145058    0.59026911802661
C         0.25018169626624   -2.99529547541263    1.81467693613924
C        -0.73598746439441   -2.27509568388069    2.57478084991652
C        -1.97408159252073   -2.29148823159694    1.81684960951371
C        -0.25076579688349   -2.99856626253245   -1.81457275303687
C         0.73507349058138   -2.27570705824103   -2.57288492688572
C         1.97275670423397   -2.28829901932836   -1.81595130919342
C         1.73800550864188   -2.99954846140808   -0.59432354872178
C         0.36385002843166   -3.44276207856233   -0.58962872338436
C         2.77813108437683   -1.14982211444188   -1.81291333795148
C         2.43162000488597   -0.00000000000000   -2.57192720326795
C         2.77813108437684    1.14982211444187   -1.81291333795148
C         3.40528690383012    0.71793757579337   -0.58319190869083
C         3.40528690383011   -0.71793757579337   -0.58319190869083
C         1.97275670423397    2.28829901932836   -1.81595130919342
C         0.73507349058138    2.27570705824102   -2.57288492688572
C        -0.25076579688349    2.99856626253245   -1.81457275303687
C         0.36385002843166    3.44276207856233   -0.58962872338437
C         1.73800550864188    2.99954846140808   -0.59432354872179
C        -1.57610985431802    2.57788418342165   -1.81455038949752
C        -1.95045489652954    1.41677598519287   -2.57287074285212
C        -2.94513272137267    0.69452066860798   -1.82022631364173
C        -3.18137623350710    1.41488904071892   -0.59458160819302
C        -2.33489919154478    2.58202889212390   -0.59290175760069
C        -2.94513272137267   -0.69452066860797   -1.82022631364173
C        -1.95045489652954   -1.41677598519287   -2.57287074285211
C        -1.57610985431803   -2.57788418342165   -1.81455038949751
C        -2.33489919154478   -2.58202889212390   -0.59290175760069
C        -3.18137623350710   -1.41488904071892   -0.59458160819302
C        -0.98050180435497   -0.72148117438685   -3.29111960523559
C        -0.98050180435497    0.72148117438684   -3.29111960523560
C         0.37146514903304    1.17409252279529   -3.31534576946659
C         1.29697943299468   -0.00000000000000   -3.52924845400557
C         0.37146514903304   -1.17409252279529   -3.31534576946658
Cl       -1.94277516630026   -0.00000000000014    5.26669181801795
Cl        1.93661017352676   -0.00000000000001   -5.28069021170279
62
 energy: -137.535232820506 gnorm: 0.004371007407 xtb: 6.4.1 (a3dbbd7)
C        -1.30081548698306    0.00000000000001    3.54302041578918
C        -0.37441980391349   -1.17400492501149    3.32170594344534
C         0.97784753948594   -0.72150745214051    3.29146058028990
C         0.97784753948594    0.72150745214054    3.29146058028991
C        -0.37441980391350    1.17400492501152    3.32170594344536
C         2.33474621965505   -2.58133798253906    0.59316693178936
C         3.18098400928555   -1.41462138716255    0.59516955463319
C         2.94380282541228   -0.69437938702028    1.82046899533499
C         1.94866723469597   -1.41549074573673    2.57344253460529
C         1.57534235712933   -2.57678549731468    1.81557279120753
C         3.18098400928555    1.41462138716256    0.59516955463318
C         2.33474621965505    2.58133798253906    0.59316693178935
C         1.57534235712933    2.57678549731469    1.81557279120752
C         1.94866723469597    1.41549074573675    2.57344253460529
C         2.94380282541227    0.69437938702029    1.82046899533499
C        -0.36416830841977    3.44103389266077    0.59044096561703
C        -1.73882990391158    3.00054282243646    0.59564593712231
C        -1.97371263026670    2.29075437430890    1.81734294137235
C        -0.73598144734047    2.27466027985829    2.57562971600139
C         0.25003651187442    2.99485217160883    1.81539141157593
C        -3.40255249880039    0.71724838402685    0.58482162825150
C        -3.40255249880039   -0.71724838402683    0.58482162825150
C        -2.77527105087246   -1.14903064777940    1.81585706436811
C        -2.42389143946014    0.00000000000001    2.57164644828713
C        -2.77527105087246    1.14903064777943    1.81585706436811
C        -1.73882990391158   -3.00054282243645    0.59564593712232
C        -0.36416830841977   -3.44103389266076    0.59044096561705
C         0.25003651187441   -2.99485217160882    1.81539141157594
C        -0.73598144734047   -2.27466027985826    2.57562971600139
C        -1.97371263026670   -2.29075437430887    1.81734294137236
C        -0.25024183297997   -2.99484871451853   -1.81402435630666
C         0.73591551136073   -2.27469922058495   -2.57485576161092
C         1.97319333779606   -2.28987315394574   -1.81633007509757
C         1.73825552785802   -2.99962158028881   -0.59424078863444
C         0.36384417302509   -3.44097566335070   -0.58902217502732
C         2.77578768790127   -1.14911619214024   -1.81512275336341
C         2.42640653355606   -0.00000000000001   -2.57275938731098
C         2.77578768790127    1.14911619214023   -1.81512275336341
C         3.40220970467311    0.71734526086964   -0.58378121418195
C         3.40220970467311   -0.71734526086964   -0.58378121418195
C         1.97319333779606    2.28987315394573   -1.81633007509758
C         0.73591551136073    2.27469922058494   -2.57485576161093
C        -0.25024183297996    2.99484871451853   -1.81402435630667
C         0.36384417302510    3.44097566335070   -0.58902217502733
C         1.73825552785802    2.99962158028881   -0.59424078863446
C        -1.57558131003737    2.57654162386066   -1.81404460655562
C        -1.94895883124819    1.41544233129486   -2.57201707391655
C        -2.94415305224489    0.69436574117081   -1.81895877332840
C        -3.18158001883379    1.41477489033093   -0.59382886746403
C        -2.33503434333204    2.58160552999780   -0.59190806636318
C        -2.94415305224489   -0.69436574117081   -1.81895877332840
C        -1.94895883124819   -1.41544233129486   -2.57201707391655
C        -1.57558131003738   -2.57654162386066   -1.81404460655560
C        -2.33503434333204   -2.58160552999779   -0.59190806636317
C        -3.18158001883379   -1.41477489033092   -0.59382886746403
C        -0.97836574458435   -0.72144414324364   -3.29070843950017
C        -0.97836574458435    0.72144414324363   -3.29070843950018
C         0.37409238771818    1.17405605553455   -3.32118182848821
C         1.29891174961801   -0.00000000000001   -3.53909422637708
C         0.37409238771818   -1.17405605553456   -3.32118182848820
Cl       -1.94530828188852   -0.00000000000025    5.26832901416744
Cl        1.94210769651454   -0.00000000000002   -5.28163783467060
62
 energy: -137.535263964342 gnorm: 0.002460965314 xtb: 6.4.1 (a3dbbd7)
C        -1.30058529393876    0.00000000000002    3.54290714204149
C        -0.37429826305303   -1.17396213255991    3.32181647934890
C         0.97809835193385   -0.72153497410157    3.29122903291426
C         0.97809835193385    0.72153497410163    3.29122903291427
C        -0.37429826305304    1.17396213255996    3.32181647934892
C         2.33487716411037   -2.58167086994561    0.59298664585151
C         3.18097236806672   -1.41477813883567    0.59493185460178
C         2.94376119094964   -0.69445510824932    1.81992628605854
C         1.94879097874246   -1.41551584580278    2.57319187049103
C         1.57539692041065   -2.57696655151153    1.81542707993319
C         3.18097236806672    1.41477813883568    0.59493185460177
C         2.33487716411037    2.58167086994563    0.59298664585149
C         1.57539692041066    2.57696655151156    1.81542707993317
C         1.94879097874247    1.41551584580282    2.57319187049103
C         2.94376119094964    0.69445510824934    1.81992628605854
C        -0.36418660552006    3.44138895826264    0.59021770497223
C        -1.73877927989331    3.00065938909400    0.59553676831621
C        -1.97337200885136    2.29049765210646    1.81714421986464
C        -0.73578161478927    2.27450773715972    2.57543081732366
C         0.25017609927180    2.99484321918042    1.81531268648876
C        -3.40287212714664    0.71716832727072    0.58487389020842
C        -3.40287212714664   -0.71716832727068    0.58487389020842
C        -2.77531983023110   -1.14904972716717    1.81573740996052
C        -2.42343182786126    0.00000000000003    2.57148848139285
C        -2.77531983023111    1.14904972716722    1.81573740996051
C        -1.73877927989331   -3.00065938909398    0.59553676831623
C        -0.36418660552007   -3.44138895826262    0.59021770497225
C         0.25017609927180   -2.99484321918038    1.81531268648878
C        -0.73578161478927   -2.27450773715967    2.57543081732367
C        -1.97337200885137   -2.29049765210642    1.81714421986466
C        -0.25031369934316   -2.99394972310637   -1.81394119086064
C         0.73585119175396   -2.27432045275070   -2.57475530750293
C         1.97326369318320   -2.29078281467593   -1.81618280975953
C         1.73851244827353   -3.00038725492323   -0.59430342422594
C         0.36388370517408   -3.44086289388118   -0.58893850023447
C         2.77462810278143   -1.14894428040912   -1.81554778450427
C         2.42322252637346   -0.00000000000001   -2.57191436051326
C         2.77462810278144    1.14894428040910   -1.81554778450428
C         3.40132669720279    0.71706940087095   -0.58398331009366
C         3.40132669720279   -0.71706940087095   -0.58398331009365
C         1.97326369318321    2.29078281467592   -1.81618280975955
C         0.73585119175397    2.27432045275068   -2.57475530750295
C        -0.25031369934315    2.99394972310636   -1.81394119086066
C         0.36388370517409    3.44086289388118   -0.58893850023450
C         1.73851244827354    3.00038725492323   -0.59430342422597
C        -1.57560880304280    2.57652869593204   -1.81409260332053
C        -1.94871049414360    1.41510008172060   -2.57177797744496
C        -2.94400338880647    0.69437282683565   -1.81866772303901
C        -3.18169684550223    1.41488700184807   -0.59385726888054
C        -2.33522655848230    2.58160711613156   -0.59167341256968
C        -2.94400338880647   -0.69437282683564   -1.81866772303900
C        -1.94871049414361   -1.41510008172060   -2.57177797744495
C        -1.57560880304281   -2.57652869593204   -1.81409260332051
C        -2.33522655848231   -2.58160711613155   -0.59167341256966
C        -3.18169684550223   -1.41488700184805   -0.59385726888053
C        -0.97791320216468   -0.72145884554185   -3.28996452167188
C        -0.97791320216468    0.72145884554183   -3.28996452167188
C         0.37481233501922    1.17382629729298   -3.32200761719969
C         1.29940413085752   -0.00000000000001   -3.54126410467592
C         0.37481233501921   -1.17382629729300   -3.32200761719968
Cl       -1.94616150828840   -0.00000000000046    5.26845972110073
Cl        1.94417419457803   -0.00000000000004   -5.27612660796105
62
 energy: -137.535275401957 gnorm: 0.001507106360 xtb: 6.4.1 (a3dbbd7)
C        -1.30029520285919    0.00000000000004    3.54225161788934
C        -0.37413686372105   -1.17394454838369    3.32143800165391
C         0.97827758290095   -0.72152880940314    3.29076776074544
C         0.97827758290094    0.72152880940324    3.29076776074545
C        -0.37413686372107    1.17394454838381    3.32143800165397
C         2.33506563038275   -2.58189750935098    0.59274041885572
C         3.18125980312459   -1.41497899062608    0.59478871038714
C         2.94390800252698   -0.69447224865373    1.81955344467473
C         1.94891968247211   -1.41550882292381    2.57279630005091
C         1.57555168967931   -2.57709787303163    1.81514449259857
C         3.18125980312459    1.41497899062609    0.59478871038712
C         2.33506563038276    2.58189750935100    0.59274041885568
C         1.57555168967931    2.57709787303168    1.81514449259853
C         1.94891968247211    1.41550882292388    2.57279630005090
C         2.94390800252697    0.69447224865378    1.81955344467472
C        -0.36417834079951    3.44173067948105    0.58998480202160
C        -1.73875425850157    3.00077693144457    0.59532375110932
C        -1.97320167933327    2.29048498554732    1.81687969409330
C        -0.73561303521088    2.27449689329549    2.57503976037691
C         0.25032526711317    2.99495066392084    1.81505090297097
C        -3.40283746018842    0.71712671759008    0.58468793183346
C        -3.40283746018841   -0.71712671759000    0.58468793183346
C        -2.77518295611510   -1.14907379577913    1.81545769216193
C        -2.42314470029167    0.00000000000006    2.57111058609703
C        -2.77518295611511    1.14907379577923    1.81545769216192
C        -1.73875425850159   -3.00077693144452    0.59532375110937
C        -0.36417834079953   -3.44173067948102    0.58998480202166
C         0.25032526711317   -2.99495066392078    1.81505090297101
C        -0.73561303521088   -2.27449689329540    2.57503976037691
C        -1.97320167933327   -2.29048498554723    1.81687969409332
C        -0.25054333969654   -2.99430547291483   -1.81405368735698
C         0.73548864070990   -2.27431422517102   -2.57422271709762
C         1.97317699678361   -2.29104945940668   -1.81604682127159
C         1.73862023091617   -3.00096450668142   -0.59445926667964
C         0.36389555484893   -3.44134185355623   -0.58907670971520
C         2.77428533708950   -1.14895275235793   -1.81517106108886
C         2.42196415326958   -0.00000000000002   -2.57075179297317
C         2.77428533708950    1.14895275235791   -1.81517106108888
C         3.40158994057159    0.71701194588703   -0.58397294542386
C         3.40158994057160   -0.71701194588704   -0.58397294542385
C         1.97317699678362    2.29104945940666   -1.81604682127163
C         0.73548864070992    2.27431422517100   -2.57422271709766
C        -0.25054333969652    2.99430547291482   -1.81405368735703
C         0.36389555484895    3.44134185355624   -0.58907670971526
C         1.73862023091618    3.00096450668142   -0.59445926667969
C        -1.57582831043905    2.57689786417354   -1.81425681576497
C        -1.94900687715185    1.41524541136428   -2.57186616205763
C        -2.94422027126153    0.69442136765480   -1.81877958758386
C        -3.18174678890798    1.41498235226415   -0.59405043677264
C        -2.33538734872083    2.58170706845432   -0.59175188969219
C        -2.94422027126154   -0.69442136765478   -1.81877958758386
C        -1.94900687715186   -1.41524541136428   -2.57186616205762
C        -1.57582831043907   -2.57689786417353   -1.81425681576493
C        -2.33538734872084   -2.58170706845428   -0.59175188969215
C        -3.18174678890799   -1.41498235226411   -0.59405043677262
C        -0.97818841066192   -0.72149845519106   -3.28956827581890
C        -0.97818841066191    0.72149845519103   -3.28956827581891
C         0.37451311347382    1.17371066745416   -3.32106033720482
C         1.29963775377828   -0.00000000000002   -3.54120065816445
C         0.37451311347381   -1.17371066745419   -3.32106033720480
Cl       -1.94602615708048   -0.00000000000088    5.26817202152291
Cl        1.94492036294369   -0.00000000000007   -5.27052681294526
62
 energy: -137.535278699406 gnorm: 0.000633533149 xtb: 6.4.1 (a3dbbd7)
C        -1.30012926237143    0.00000000000009    3.54169962458288
C        -0.37405385784430   -1.17394327682111    3.32103235839983
C         0.97832033955742   -0.72150742709244    3.29047577887744
C         0.97832033955740    0.72150742709266    3.29047577887746
C        -0.37405385784434    1.17394327682136    3.32103235839996