72
 energy: -177.383042132350 gnorm: 0.277962409724 xtb: 6.4.1 (a3dbbd7)
C        -1.23626340000000    0.00000000000000    3.32997640000000
C        -0.38202640000000   -1.17575640000000    3.32997640000000
C         1.00015810000000   -0.72665740000000    3.32997640000000
C         1.00015810000000    0.72665740000000    3.32997640000000
C        -0.38202640000000    1.17575640000000    3.32997640000000
C         2.34433560000000   -2.60145750000000    0.59464210000000
C         3.19857260000000   -1.42570110000000    0.59464210000000
C         2.96246730000000   -0.69904370000000    1.83090550000000
C         1.96230920000000   -1.42570110000000    2.59495830000000
C         1.58028280000000   -2.60145750000000    1.83090550000000
C         3.19857260000000    1.42570110000000    0.59464210000000
C         2.34433560000000    2.60145750000000    0.59464210000000
C         1.58028280000000    2.60145750000000    1.83090550000000
C         1.96230920000000    1.42570110000000    2.59495830000000
C         2.96246730000000    0.69904370000000    1.83090550000000
C        -0.36750900000000    3.48258920000000    0.59464210000000
C        -1.74969350000000    3.03349030000000    0.59464210000000
C        -1.98579880000000    2.30683290000000    1.83090550000000
C        -0.74953540000000    2.30683290000000    2.59495830000000
C         0.25062270000000    3.03349030000000    1.83090550000000
C        -3.42570570000000    0.72665740000000    0.59464210000000
C        -3.42570570000000   -0.72665740000000    0.59464210000000
C        -2.80757400000000   -1.17575640000000    1.83090550000000
C        -2.42554760000000    0.00000000000000    2.59495830000000
C        -2.80757400000000    1.17575640000000    1.83090550000000
C        -1.74969350000000   -3.03349030000000    0.59464210000000
C        -0.36750900000000   -3.48258920000000    0.59464210000000
C         0.25062270000000   -3.03349030000000    1.83090550000000
C        -0.74953540000000   -2.30683290000000    2.59495830000000
C        -1.98579880000000   -2.30683290000000    1.83090550000000
C        -0.25062270000000   -3.03349030000000   -1.83090550000000
C         0.74953540000000   -2.30683290000000   -2.59495830000000
C         1.98579880000000   -2.30683290000000   -1.83090550000000
C         1.74969350000000   -3.03349030000000   -0.59464210000000
C         0.36750900000000   -3.48258920000000   -0.59464210000000
C         2.80757400000000   -1.17575640000000   -1.83090550000000
C         2.42554760000000    0.00000000000000   -2.59495830000000
C         2.80757400000000    1.17575640000000   -1.83090550000000
C         3.42570570000000    0.72665740000000   -0.59464210000000
C         3.42570570000000   -0.72665740000000   -0.59464210000000
C         1.98579880000000    2.30683290000000   -1.83090550000000
C         0.74953540000000    2.30683290000000   -2.59495830000000
C        -0.25062270000000    3.03349030000000   -1.83090550000000
C         0.36750900000000    3.48258920000000   -0.59464210000000
C         1.74969350000000    3.03349030000000   -0.59464210000000
C        -1.58028280000000    2.60145750000000   -1.83090550000000
C        -1.96230920000000    1.42570110000000   -2.59495830000000
C        -2.96246730000000    0.69904370000000   -1.83090550000000
C        -3.19857260000000    1.42570110000000   -0.59464210000000
C        -2.34433560000000    2.60145750000000   -0.59464210000000
C        -2.96246730000000   -0.69904370000000   -1.83090550000000
C        -1.96230920000000   -1.42570110000000   -2.59495830000000
C        -1.58028280000000   -2.60145750000000   -1.83090550000000
C        -2.34433560000000   -2.60145750000000   -0.59464210000000
C        -3.19857260000000   -1.42570110000000   -0.59464210000000
C        -1.00015810000000   -0.72665740000000   -3.32997640000000
C        -1.00015810000000    0.72665740000000   -3.32997640000000
C         0.38202640000000    1.17575640000000   -3.32997640000000
C         1.23626340000000    0.00000000000000   -3.32997640000000
C         0.38202640000000   -1.17575640000000   -3.32997640000000
C        -1.76086815247998    0.00000000000000    4.78849957557021
F        -0.76911826531252    0.00000000000000    5.67468926254662
F        -2.50968386795825   -1.06794314680471    5.04863888333743
F        -2.50968386795825    1.06794314680471    5.04863888333743
C         2.82790274436383   -2.05459160758554    3.71645040671519
F         3.82797483682855   -2.78118494419178    3.22571836876305
F         3.37293748548841   -1.13053297859378    4.50255013394648
F         2.11749631416700   -2.85850222732984    4.50254863174647
C        -0.34440953624153    4.35941144868709   -2.62817404748705
F         0.83992598883967    4.95213069234126   -2.75037577510431
F        -0.80829780400759    4.16837989546168   -3.85992670963205
F        -1.15529636597892    5.23632261667420   -2.04303359185445
72
 energy: -177.448334517621 gnorm: 0.167137083119 xtb: 6.4.1 (a3dbbd7)
C        -1.25182968507550    0.00911562507595    3.33142542702682
C        -0.36925183569217   -1.17828626049312    3.33778577506462
C         0.96818938724383   -0.70535338960059    3.31539111834057
C         0.99423841600864    0.73427214371458    3.32033336358655
C        -0.36876426717952    1.19915266957583    3.33360523654013
C         2.32996734724619   -2.58813995361022    0.58155393397306
C         3.18086768031031   -1.41534224473591    0.58124880599982
C         2.95082726503800   -0.68151155824739    1.79452578123416
C         2.00529551930862   -1.45732080069493    2.63820217992243
C         1.56368124313577   -2.59599542652269    1.79394175147724
C         3.19643915239819    1.42272755237370    0.58885572051196
C         2.34428290187504    2.58933763924462    0.59864708570107
C         1.58525785177638    2.59075332238216    1.83099780264868
C         1.96322387065476    1.43005464042253    2.59052106281433
C         2.95078960168292    0.70011166918977    1.81123081970060
C        -0.35945871687104    3.45753297811677    0.60862315367160
C        -1.74576872636359    3.01934668890588    0.59826355701467
C        -1.97876362227754    2.30417822475684    1.81537650791311
C        -0.73874678832041    2.30581625712806    2.58564192119315
C         0.25736666145054    3.03032093034073    1.83630151781730
C        -3.42833957141558    0.72125305845688    0.57755777079644
C        -3.42588583636518   -0.72681636065973    0.57973898667228
C        -2.80356596151475   -1.16859555409372    1.80537185919594
C        -2.44396310215755    0.00619603164710    2.53140814193860
C        -2.80505347193416    1.17145927018188    1.80389596893868
C        -1.74042716290451   -3.02097429239427    0.59234357419915
C        -0.36742456299761   -3.47420032922913    0.58785387829233
C         0.24655724560861   -3.02117699462572    1.81040952956835
C        -0.74549857270917   -2.30031927774179    2.58783019844233
C        -1.97324814215279   -2.29729058007576    1.82450289767055
C        -0.25009179272832   -3.02544819794445   -1.82730531413193
C         0.74384117714694   -2.29908048709765   -2.58681247264195
C         1.97769080142556   -2.29945933935663   -1.82881822700760
C         1.74115789390077   -3.02684753281860   -0.60347220013781
C         0.36592836646891   -3.47091817238540   -0.59907000485528
C         2.79815771263324   -1.17310787901956   -1.82891037599219
C         2.41997033920172   -0.00273072841940   -2.58684212846741
C         2.80238159957891    1.16439641273823   -1.82610534676758
C         3.41956922236004    0.72220654731613   -0.59760576630928
C         3.41791494416343   -0.72193689106417   -0.60193133554635
C         1.97724361070362    2.28774376494355   -1.82058234928676
C         0.75623451392336    2.26982025550181   -2.57343172802083
C        -0.25414701508142    3.08695137555384   -1.84755245319465
C         0.37818503036789    3.45422184599722   -0.55951758078610
C         1.74325295793884    3.00941173544119   -0.58464100954768
C        -1.60939797327176    2.57445938606569   -1.83106610001961
C        -1.96462621124057    1.40440510044814   -2.58273865198471
C        -2.96622667094401    0.68645028727026   -1.82792140500153
C        -3.20029339642565    1.41389247865393   -0.60045203973358
C        -2.33843805271274    2.58157962330357   -0.60133508018814
C        -2.95880305602888   -0.70384362974109   -1.82519936596053
C        -1.95785371012995   -1.42471542356097   -2.58371431858505
C        -1.57559551627348   -2.59282184901899   -1.82372109138731
C        -2.33439328628622   -2.59330919264333   -0.59280848374551
C        -3.19408798251772   -1.42565309171268   -0.59791999806225
C        -0.99943924326067   -0.72645391109003   -3.31668840927880
C        -1.00139999965941    0.71637061809199   -3.31638143340921
C         0.38205522467177    1.16016819106715   -3.31349483370894
C         1.23124346350870   -0.00489746926572   -3.31545689209523
C         0.37851095224418   -1.17273887899810   -3.31767141910887
C        -1.77257640915517    0.00337939139251    4.81112407635333
F        -0.77427168557770    0.00147360209822    5.69569557965438
F        -2.51882625503284   -1.07053431857651    5.06554337500316
F        -2.52101403079873    1.07435145398509    5.07008227046483
C         2.86675051838320   -2.08182903547918    3.75420106856594
F         3.86490633138061   -2.80645675432477    3.25261809844225
F         3.40145008596227   -1.14121273594843    4.52985098093063
F         2.13851554652640   -2.88052196035869    4.53139014509122
C        -0.34523368542529    4.40558896381927   -2.65081129297903
F         0.84431507821844    4.99175641624043   -2.77137745166530
F        -0.81281173610164    4.19434397165576   -3.88025432782802
F        -1.16186227011290    5.27267327391540   -2.05605601305227
72
 energy: -177.486003561745 gnorm: 0.079047419522 xtb: 6.4.1 (a3dbbd7)
C        -1.28982563764291    0.01799759566854    3.43137153638060
C        -0.34529707363628   -1.16548143232018    3.26901959064090
C         0.93253418397925   -0.68313407299796    3.28036905779714
C         0.98012424319369    0.73479419789480    3.27139222353585
C        -0.35597137666936    1.21191092612440    3.27977643144583
C         2.31265324153327   -2.57221635274325    0.57190823564584
C         3.16088777621904   -1.40367567859058    0.57187945384348
C         2.94040481629000   -0.66395863436637    1.75808953706468
C         2.06682340192450   -1.50228956779222    2.69868314644194
C         1.54636587666586   -2.59202798293098    1.75439511234502
C         3.19255882436382    1.41805282070913    0.58233891600896
C         2.34394234032462    2.57745816374738    0.60155453235423
C         1.58947525012159    2.58182148778582    1.82675310112334
C         1.96483927595471    1.43778054107820    2.57621798233540
C         2.94450086886384    0.69844375033693    1.79169197910844
C        -0.35198563698703    3.43619698734944    0.61177403327780
C        -1.74552447006625    3.00672056999502    0.60675323777032
C        -1.97924452597249    2.30836023641723    1.79699045751283
C        -0.73108853602859    2.30423722706375    2.55651374596461
C         0.26016240601631    3.03137530325718    1.83179015559707
C        -3.42817267345111    0.71265244561306    0.56563513547629
C        -3.42326823821652   -0.72875471757489    0.56849729984907
C        -2.79208758160167   -1.15580658553038    1.78801684721154
C        -2.45925023131294    0.01182707365657    2.49360119515753
C        -2.79666480579810    1.15877611972072    1.78782282597557
C        -1.73293613273877   -3.01007675351644    0.58438326176215
C        -0.36814367372910   -3.46708330245377    0.57414939827533
C         0.24449219521685   -3.01456079837281    1.78107438931174
C        -0.74556050912620   -2.29586513691748    2.55251911657045
C        -1.96364110732060   -2.29237417069069    1.81495455720579
C        -0.24688903482108   -3.01876899939172   -1.82726681765158
C         0.74115531921400   -2.29142832214726   -2.58006742931506
C         1.97182065774542   -2.29212749637359   -1.82698753450565
C         1.73262047899509   -3.01985786782049   -0.61319648749221
C         0.36630098378443   -3.46104309383376   -0.60812122947841
C         2.79129736373481   -1.17035014523357   -1.82788443088556
C         2.41763688437666   -0.00551644959921   -2.58121063332688
C         2.80007428499205    1.15101965015225   -1.82447947317400
C         3.41357208631555    0.71588074338325   -0.60138361046083
C         3.41114181567037   -0.71724484942681   -0.60867721421943
C         1.96549759878743    2.26509115771656   -1.80994706443820
C         0.76984442751162    2.23234042503706   -2.55802679266211
C        -0.25301025180987    3.16547453205470   -1.89451277741701
C         0.38985086446015    3.42309296289550   -0.53481524550634
C         1.73369107090012    2.98576140024440   -0.57695957185688
C        -1.62882753140866    2.53612176897457   -1.80060415922122
C        -1.95933505471964    1.38688762093607   -2.56070274855668
C        -2.96608547457166    0.67349826998100   -1.82309007796460
C        -3.20007794882791    1.39701880329599   -0.60223659609431
C        -2.32834375342606    2.55573692584576   -0.60247420263964
C        -2.95417811908571   -0.70958910717568   -1.82227861639196
C        -1.95119777523779   -1.42374829836230   -2.57413111265662
C        -1.56898924345566   -2.58402701248636   -1.81884228678730
C        -2.32456987060135   -2.58566197890061   -0.59525876601143
C        -3.18864390016866   -1.42463426506858   -0.60192948726828
C        -0.99557733891058   -0.72277754276886   -3.30292442383377
C        -1.00183812576225    0.70912647308883   -3.30327297925097
C         0.38569791070347    1.14556506277936   -3.29324190028771
C         1.22904521199103   -0.00946385652150   -3.30671184340851
C         0.37784023551803   -1.16883675308977   -3.30546852502468
C        -1.80000056945445    0.00589645388619    4.88799511452024
F        -0.78436872782365    0.00267481476924    5.75324868957959
F        -2.54157748349584   -1.07902145047401    5.11374434043441
F        -2.54687182686968    1.08446506687052    5.12361665235666
C         2.90438071597139   -2.11036850257077    3.80146442967246
F         3.89906224747390   -2.83180776791951    3.28462720093630
F         3.42644828534499   -1.14991170639940    4.56446266526276
F         2.15316228674319   -2.90341199606915    4.56553699366184
C        -0.34656953917189    4.46088623329439   -2.68359954202055
F         0.85143526295681    5.03490312800282   -2.79682475181813
F        -0.81766961807117    4.22538550763561   -3.90965709539942
F        -1.16917778611598    5.31310309663201   -2.07160313050305
72
 energy: -177.495847790591 gnorm: 0.041609302689 xtb: 6.4.1 (a3dbbd7)
C        -1.29686316116131    0.01506184189002    3.46279975832083
C        -0.35139208143585   -1.16505463605398    3.28268535219269
C         0.94764857242275   -0.69845056897450    3.28572433851108
C         0.98017617462458    0.72697149969027    3.27083123681347
C        -0.36412553763990    1.20350127034078    3.29285717161230
C         2.31144784044719   -2.57409114476390    0.57241937093025
C         3.15974355451198   -1.40802223713378    0.57271984737132
C         2.95059534177002   -0.68217960232025    1.77564016692465
C         2.08299988909997   -1.51707437677780    2.71665876787638
C         1.56093270374237   -2.59827971447815    1.77172365335296
C         3.18785056051443    1.40784175027328    0.57887679216098
C         2.34000933792148    2.57050773101740    0.59395965096970
C         1.58763875768128    2.57509852941322    1.82016130057667
C         1.96404876840021    1.42943747821275    2.57448637205385
C         2.94778979784323    0.68713659493811    1.79589507645725
C        -0.35421958669706    3.43814032467431    0.59691746826915
C        -1.74586799732732    3.00478021452215    0.59634613505277
C        -1.98041527664664    2.30539593376995    1.79128825123496
C        -0.73603866812730    2.29832163139968    2.55897687707985
C         0.25746483798260    3.01896125544696    1.81982513100213
C        -3.42615312296864    0.70897876768646    0.55839247578837
C        -3.42278973444712   -0.73325415139938    0.56295591309136
C        -2.78823251004514   -1.15484856418887    1.78716073162954
C        -2.45073142882534    0.01089399731834    2.50914053452229
C        -2.79536247027087    1.15530616742591    1.78576164120518
C        -1.73156215906639   -3.00846474870323    0.57790460812086
C        -0.36475726966326   -3.45961780479097    0.56971565774357
C         0.24859894066101   -3.00751475911638    1.78375221662468
C        -0.74797692707939   -2.29362043193663    2.55774249096685
C        -1.96079090405935   -2.28880398092287    1.80938739184764
C        -0.24840259108957   -3.02345127487542   -1.83633633624930
C         0.73975226737623   -2.29472693447446   -2.58904508374321
C         1.97046625925792   -2.29496056085211   -1.83499576751819
C         1.73116748226664   -3.01842933745738   -0.61710427765766
C         0.36604055307174   -3.46217676713770   -0.61460642564104
C         2.79121997326690   -1.17410364944346   -1.83567079423369
C         2.41418605439363   -0.00752085982397   -2.58695836714407
C         2.79442856105631    1.14911483434443   -1.82939305686546
C         3.41201992289195    0.71074601119694   -0.60676726200974
C         3.40772781669462   -0.72260668134327   -0.61222047024235
C         1.95785855051931    2.26427572552689   -1.81606352358306
C         0.76085539505167    2.25387928910325   -2.57219834840291
C        -0.25574377885544    3.19285015386619   -1.91886146492950
C         0.38348106968859    3.43882203888872   -0.55879637406370
C         1.72702754341280    2.98358988143815   -0.58474818059166
C        -1.62017243854927    2.55421814245664   -1.81664138669775
C        -1.95800419107799    1.39153201041527   -2.56959235099909
C        -2.96695140816134    0.67119018467784   -1.83462160402604
C        -3.19846849600518    1.39461264713741   -0.61268899159390
C        -2.32600385782326    2.55740912966512   -0.61470440901931
C        -2.95888772106421   -0.71523874613652   -1.83282614514793
C        -1.95456919142933   -1.42906243679962   -2.58258672719517
C        -1.57050225481948   -2.58953364791705   -1.82705742237070
C        -2.32610634430918   -2.59053891193088   -0.60247392035841
C        -3.19242742177605   -1.43106345046317   -0.61001654869515
C        -0.99855833923926   -0.72490988553146   -3.30734587941142
C        -1.00451370350992    0.70890756048228   -3.30859294709733
C         0.37965615320749    1.15284333234309   -3.29757153355897
C         1.22246177846531   -0.00766337275283   -3.30690184916731
C         0.37451432471280   -1.17015228587891   -3.31082091058837
C        -1.81498986700497    0.00520654897215    4.91987061442580
F        -0.80929673937242    0.00248830301497    5.79809603146183
F        -2.56019761936327   -1.07558448590340    5.16013072582644
F        -2.56524750920582    1.08019276633608    5.17078889957300
C         2.92985121351888   -2.13001175526008    3.83220875007692
F         3.93385892921407   -2.85798411817548    3.33634201456404
F         3.46122708791676   -1.18130574378476    4.60653843779865
F         2.19401212544852   -2.92802897746706    4.60901866858146
C        -0.35113974099443    4.50102478780889   -2.70959911056056
F         0.84082087897193    5.09027639412716   -2.83249198744902
F        -0.82203768467239    4.28379470764562   -3.94059081129241
F        -1.17119977449315    5.36645406296629   -2.10858623262233
72
 energy: -177.499974086418 gnorm: 0.014843548300 xtb: 6.4.1 (a3dbbd7)
C        -1.30440116178661    0.01010703809546    3.50571747420388
C        -0.35430837656284   -1.16554115526730    3.28803789553183
C         0.95575748337400   -0.71349632616741    3.28350760357934
C         0.97763997998590    0.71725966702406    3.26379745100905
C        -0.37053945100089    1.19231830507372    3.29452384530751
C         2.30937947561781   -2.57577049643958    0.57440123602482
C         3.15728872483657   -1.41136826612905    0.57482883891349
C         2.95765392915440   -0.69821686633725    1.79162198999047
C         2.09833015204924   -1.53364875641466    2.73584874538359
C         1.57366992385105   -2.60617803608100    1.78794822686402
C         3.17725161878162    1.39629373802508    0.57436666291122
C         2.33258408531733    2.56181352877203    0.58440807763463
C         1.58437017918579    2.56642356408698    1.81123585774984
C         1.96100019796376    1.42045312053834    2.57071380172208
C         2.94637588711427    0.67520182874552    1.79678531677404
C        -0.35417858621660    3.43632543109778    0.58211205225996
C        -1.74556063085986    3.00425321841540    0.59067166121365
C        -1.98066814452013    2.30443868413907    1.78663831290579
C        -0.73683590514415    2.28748470170465    2.55491866498516
C         0.25594543335457    3.00313402110580    1.80458838306667
C        -3.41493081421037    0.70565126461250    0.55493023232274
C        -3.41428837068230   -0.73465873063950    0.56069360452102
C        -2.78149144050358   -1.15355968686435    1.78967703478645
C        -2.43706054328419    0.00950111108924    2.52239352690286
C        -2.78803324946511    1.15000075239272    1.78766518163545
C        -1.72822799696650   -3.00501662796457    0.57242577830352
C        -0.36010649400545   -3.45036253589705    0.56643717235180
C         0.25398650819555   -3.00127308331264    1.78464233421311
C        -0.74898191483770   -2.29366243805619    2.56002413072430
C        -1.95836426171940   -2.28770713143662    1.80630236502937
C        -0.24925959473022   -3.02791366454465   -1.84436663088437
C         0.73897859980570   -2.29756402751276   -2.59616556296213
C         1.96832809404039   -2.29678831838367   -1.83903224344741
C         1.73011370141208   -3.01675467557267   -0.61847004146723
C         0.36627908628380   -3.46200669846511   -0.61925091138150
C         2.78931786088899   -1.17663086178817   -1.83980376333281
C         2.41033486850465   -0.00879998573341   -2.59127930704377
C         2.78697198320547    1.14827507506071   -1.83479925017668
C         3.40490603870167    0.70562421324816   -0.61171035419657
C         3.40283456704618   -0.72755386533663   -0.61369086675689
C         1.94875449357152    2.26331457319895   -1.82384454718504
C         0.75312716013114    2.27505234528080   -2.58971081312582
C        -0.25683814081639    3.22465487765297   -1.94816220440036
C         0.37735555408243    3.45370687141239   -0.58255295325450
C         1.71877747789940    2.98105772743248   -0.59367520281589
C        -1.60809233109988    2.56661027969155   -1.82420272508098
C        -1.95472285038007    1.39803783936952   -2.57724833716559
C        -2.96111633492302    0.67169053281876   -1.84096849294848
C        -3.18858527418801    1.39201423960472   -0.61812209021611
C        -2.31866078921756    2.55913257046411   -0.62389612616081
C        -2.95906469069290   -0.71709174801376   -1.83996335552024
C        -1.95649444806911   -1.43244240082569   -2.59054045340495
C        -1.57099135913280   -2.59372954662193   -1.83483807008940
C        -2.32530099213004   -2.59301994904278   -0.60857312282716
C        -3.19091108804278   -1.43287649697842   -0.61529566593055
C        -1.00064767184942   -0.72566361662095   -3.31265992556636
C        -1.00683348413792    0.71008446900082   -3.31580807049401
C         0.37554427009383    1.15971718042443   -3.30143144170801
C         1.21690385253842   -0.00469641761185   -3.30694527740187
C         0.37192592255092   -1.16990085556853   -3.31430895485311
C        -1.82980151391773    0.00126339633299    4.95463045207729
F        -0.83263530933299   -0.00011121863503    5.84416912383443
F        -2.57983020052372   -1.07576437258814    5.20443603334898
F        -2.58304113890078    1.07451938664648    5.21301481113079
C         2.94683319615636   -2.14520471231717    3.86249890598129
F         3.95806378944630   -2.87711104269709    3.38139863963307
F         3.48486405399270   -1.20419916386395    4.64435029413538
F         2.22338140375235   -2.94783779430905    4.64897415158836
C        -0.35820850473272    4.53905340051774   -2.73716641024806
F         0.82925667457274    5.14028452341152   -2.86696569549282
F        -0.83032721442182    4.33761580050861   -3.97213347660078
F        -1.17586644470292    5.41318518850579   -2.14152950452595
72
 energy: -177.500419188518 gnorm: 0.006094897392 xtb: 6.4.1 (a3dbbd7)
C        -1.30548480222474    0.00675433738866    3.52362016569148
C        -0.35464375497773   -1.16773045077052    3.28877074916100
C         0.95721162843150   -0.71920511517043    3.28187596620419
C         0.97660543128076    0.71269839798086    3.25985016652106
C        -0.37233482985085    1.18676098117008    3.29240717684544
C         2.30977145205369   -2.57790675269507    0.57549123529326
C         3.15730982733312   -1.41335191123577    0.57577824152896
C         2.95966698619978   -0.70324781423799    1.79629459283711
C         2.10116809100586   -1.53830104618711    2.74105609588442
C         1.57734534541129   -2.60991032337437    1.79295742352593
C         3.17240441126864    1.39207581251709    0.57189029239726
C         2.32877464058787    2.55818674723430    0.57940078938103
C         1.58275766773766    2.56248455271541    1.80668636947337
C         1.95921921166174    1.41597753509858    2.56780126077387
C         2.94446314096998    0.67075579483523    1.79511574565184
C        -0.35315882781479    3.43556712303941    0.57686107586263
C        -1.74504438623475    3.00626572285770    0.59104734163163
C        -1.98002350804962    2.30583071901042    1.78690976013500
C        -0.73541152559648    2.28241046466992    2.55247846633306
C         0.25607550062096    2.99631729180516    1.79779967985409
C        -3.40590880662145    0.70527743543106    0.55683153844268
C        -3.40686324892803   -0.73335035798646    0.56256901406601
C        -2.77732279511804   -1.15344442513884    1.79350265300495
C        -2.42996470515906    0.00853041869981    2.52911283552762
C        -2.78218962088986    1.14788895503681    1.79198053955591
C        -1.72655030382460   -3.00434766189366    0.57158783958021
C        -0.35811552983105   -3.44822304345607    0.56602485589884
C         0.25626385240337   -3.00074673996891    1.78475348084107
C        -0.74833619925659   -2.29667173625383    2.56145102729906
C        -1.95763158278388   -2.28969210136311    1.80712445100546
C        -0.24919773125805   -3.02873032378090   -1.84665960453361
C         0.73894613252060   -2.29792139564741   -2.59848396761874
C         1.96750563104113   -2.29720373191955   -1.83950570247701
C         1.73032602843851   -3.01648139081373   -0.61814502562518
C         0.36641972267160   -3.46226153482554   -0.62021785293151
C         2.78803862805258   -1.17711402232412   -1.84044887795394
C         2.40898413338148   -0.00895045474781   -2.59313194769015
C         2.78381107349539    1.14886925495646   -1.83735500210783
C         3.40094018133229    0.70413550046942   -0.61378916606858
C         3.40032601198995   -0.72945895991909   -0.61373188250691
C         1.94642842794650    2.26450352944793   -1.82863669226776
C         0.75171620532780    2.28327120361421   -2.59874157941636
C        -0.25650001945709    3.23564646485001   -1.96014231111378
C         0.37541462145472    3.46036401361048   -0.59142727805541
C         1.71621988609272    2.98165016067946   -0.59825220334856
C        -1.60161679913777    2.57038789256776   -1.82408480549099
C        -1.95211274148866    1.40200904711538   -2.57934262329341
C        -2.95549902186073    0.67391521312857   -1.84011101056080
C        -3.18086280991354    1.39209140834312   -0.61689413457859
C        -2.31375559383829    2.56123210790229   -0.62532455406409
C        -2.95645787134080   -0.71524786352948   -1.84004402271962
C        -1.95617927278085   -1.43200674068836   -2.59300175834002
C        -1.57065053294349   -2.59414408379299   -1.83723167855103
C        -2.32376385569981   -2.59289969695244   -0.60969940840910
C        -3.18710398551540   -1.43089448505403   -0.61490120362193
C        -1.00090904992156   -0.72479210663046   -3.31585714761746
C        -1.00680411514933    0.71202883641944   -3.31993519397088
C         0.37566967589007    1.16263676344145   -3.30461979232452
C         1.21595363399222   -0.00287919166712   -3.30886642023775
C         0.37143165581651   -1.16895013064729   -3.31604134043453
C        -1.83462425472664   -0.00312444883737    4.96758606884253
F        -0.84214634612154   -0.00452047581419    5.86309995200556
F        -2.58720412925448   -1.07917242478606    5.21673216536091
F        -2.58985879075019    1.06955239237500    5.22548267286429
C         2.94642653236670   -2.14757498376072    3.87314041831731
F         3.95968708802082   -2.88070178917126    3.39700596482415
F         3.48391880447471   -1.20710693801541    4.65633982986239
F         2.22369915655623   -2.95017965000396    4.66080657111311
C        -0.36306822609036    4.55043099199147   -2.74907584012781
F         0.82273408425615    5.15551914943417   -2.88161591199607
F        -0.83704308809117    4.35256719886206   -3.98442394895625
F        -1.18041232983325    5.42528577982553   -2.15326056250346
72
 energy: -177.500485868916 gnorm: 0.003165540905 xtb: 6.4.1 (a3dbbd7)
C        -1.30442551414531    0.00606145072769    3.52806038482379
C        -0.35426021140809   -1.16825516045213    3.28738595199894
C         0.95726635007378   -0.71994426013615    3.28005958192227
C         0.97668907030567    0.71174118101598    3.25770637280948
C        -0.37243471484704    1.18549586060637    3.29090381227910
C         2.31082644760404   -2.57903113269221    0.57510290655588
C         3.15847853502694   -1.41423672552441    0.57537421893359
C         2.96077240492889   -0.70388370228628    1.79611305949333