62
 energy: -137.474377588462 gnorm: 0.188249201735 xtb: 6.4.1 (a3dbbd7)
C        -1.23626340000000    0.00000000000000    3.32997640000000
C        -0.38202640000000   -1.17575640000000    3.32997640000000
C         1.00015810000000   -0.72665740000000    3.32997640000000
C         1.00015810000000    0.72665740000000    3.32997640000000
C        -0.38202640000000    1.17575640000000    3.32997640000000
C         2.34433560000000   -2.60145750000000    0.59464210000000
C         3.19857260000000   -1.42570110000000    0.59464210000000
C         2.96246730000000   -0.69904370000000    1.83090550000000
C         1.96230920000000   -1.42570110000000    2.59495830000000
C         1.58028280000000   -2.60145750000000    1.83090550000000
C         3.19857260000000    1.42570110000000    0.59464210000000
C         2.34433560000000    2.60145750000000    0.59464210000000
C         1.58028280000000    2.60145750000000    1.83090550000000
C         1.96230920000000    1.42570110000000    2.59495830000000
C         2.96246730000000    0.69904370000000    1.83090550000000
C        -0.36750900000000    3.48258920000000    0.59464210000000
C        -1.74969350000000    3.03349030000000    0.59464210000000
C        -1.98579880000000    2.30683290000000    1.83090550000000
C        -0.74953540000000    2.30683290000000    2.59495830000000
C         0.25062270000000    3.03349030000000    1.83090550000000
C        -3.42570570000000    0.72665740000000    0.59464210000000
C        -3.42570570000000   -0.72665740000000    0.59464210000000
C        -2.80757400000000   -1.17575640000000    1.83090550000000
C        -2.42554760000000    0.00000000000000    2.59495830000000
C        -2.80757400000000    1.17575640000000    1.83090550000000
C        -1.74969350000000   -3.03349030000000    0.59464210000000
C        -0.36750900000000   -3.48258920000000    0.59464210000000
C         0.25062270000000   -3.03349030000000    1.83090550000000
C        -0.74953540000000   -2.30683290000000    2.59495830000000
C        -1.98579880000000   -2.30683290000000    1.83090550000000
C        -0.25062270000000   -3.03349030000000   -1.83090550000000
C         0.74953540000000   -2.30683290000000   -2.59495830000000
C         1.98579880000000   -2.30683290000000   -1.83090550000000
C         1.74969350000000   -3.03349030000000   -0.59464210000000
C         0.36750900000000   -3.48258920000000   -0.59464210000000
C         2.80757400000000   -1.17575640000000   -1.83090550000000
C         2.42554760000000    0.00000000000000   -2.59495830000000
C         2.80757400000000    1.17575640000000   -1.83090550000000
C         3.42570570000000    0.72665740000000   -0.59464210000000
C         3.42570570000000   -0.72665740000000   -0.59464210000000
C         1.98579880000000    2.30683290000000   -1.83090550000000
C         0.74953540000000    2.30683290000000   -2.59495830000000
C        -0.25062270000000    3.03349030000000   -1.83090550000000
C         0.36750900000000    3.48258920000000   -0.59464210000000
C         1.74969350000000    3.03349030000000   -0.59464210000000
C        -1.58028280000000    2.60145750000000   -1.83090550000000
C        -1.96230920000000    1.42570110000000   -2.59495830000000
C        -2.96246730000000    0.69904370000000   -1.83090550000000
C        -3.19857260000000    1.42570110000000   -0.59464210000000
C        -2.34433560000000    2.60145750000000   -0.59464210000000
C        -2.96246730000000   -0.69904370000000   -1.83090550000000
C        -1.96230920000000   -1.42570110000000   -2.59495830000000
C        -1.58028280000000   -2.60145750000000   -1.83090550000000
C        -2.34433560000000   -2.60145750000000   -0.59464210000000
C        -3.19857260000000   -1.42570110000000   -0.59464210000000
C        -1.00015810000000   -0.72665740000000   -3.32997640000000
C        -1.00015810000000    0.72665740000000   -3.32997640000000
C         0.38202640000000    1.17575640000000   -3.32997640000000
C         1.23626340000000    0.00000000000000   -3.32997640000000
C         0.38202640000000   -1.17575640000000   -3.32997640000000
Cl       -1.84886636902500    0.00000000000000    5.03315507598844
Cl        3.54443019171709   -3.91845930637349    0.91304312534438
62
 energy: -137.518428219025 gnorm: 0.107661788272 xtb: 6.4.1 (a3dbbd7)
C        -1.25036891893310    0.00330364355637    3.36028656859546
C        -0.36582787719421   -1.18043697692116    3.33383947073947
C         0.99835625145233   -0.72398468224372    3.32002568641684
C         0.99829431100239    0.72624350097065    3.31702256597427
C        -0.36391638557670    1.18539835464580    3.33016110042562
C         2.40133680459658   -2.64346524131996    0.60964457265692
C         3.18559973701423   -1.39216917409810    0.59696917234171
C         2.94746938626120   -0.69037741916456    1.82382785308752
C         1.95256042573579   -1.42458400130437    2.58170022853900
C         1.57164399154717   -2.60223402625226    1.83712314232880
C         3.18486874365169    1.42573168823033    0.59237030414792
C         2.33633445404466    2.59415769129546    0.59131151973597
C         1.57960643761669    2.59481178641863    1.82268759636192
C         1.95804574571844    1.42589931887590    2.58350209984591
C         2.94632698028641    0.70394491654309    1.82139927618595
C        -0.36152768973830    3.46519776549273    0.59204737308895
C        -1.73860685613843    3.01856542749794    0.59433622242543
C        -1.96896440390041    2.29799516084408    1.81719050887168
C        -0.73428992625905    2.29652873582943    2.58131677222223
C         0.25670889601432    3.02459161659514    1.82293234367916
C        -3.42078408170894    0.72123144663303    0.57818055445797
C        -3.41989874128603   -0.72266435604224    0.57673712288662
C        -2.79343342376855   -1.16515721064751    1.80137050186501
C        -2.43086313382700    0.00504554559155    2.54748133259237
C        -2.79225806134907    1.16572535154685    1.80514779319509
C        -1.74189930530527   -3.01478850680476    0.59075426994699
C        -0.36985159714930   -3.45629712361165    0.58829509084552
C         0.25072556055087   -3.01684955386893    1.82721569863430
C        -0.73570970555177   -2.29211927503254    2.58830205689877
C        -1.97139146972494   -2.29012527703847    1.81536887905599
C        -0.26093050072810   -3.01961769909595   -1.83259339770492
C         0.73192924345988   -2.29395110771607   -2.58809804508828
C         1.96166792820567   -2.29216062130116   -1.82154802728824
C         1.73106609947589   -3.01604868461174   -0.61340581030486
C         0.35821761589910   -3.45014539445540   -0.59847998400102
C         2.79223949178622   -1.16457377798410   -1.82322725100503
C         2.41327058769085   -0.00233642252187   -2.58188237503112
C         2.79227711880892    1.17175562065782   -1.82363004674526
C         3.40648012620402    0.73172862644179   -0.59260508350100
C         3.40651794502923   -0.71060882183076   -0.58983667751531
C         1.97493466098850    2.29596403652113   -1.82341214859468
C         0.74230281568925    2.29563046987126   -2.58370701408253
C        -0.24926702708848    3.01751687899808   -1.82412672604585
C         0.36740231028798    3.46492647902791   -0.59196048032210
C         1.74252803645294    3.01979245110619   -0.59330986983791
C        -1.57489723204637    2.58825706625512   -1.82205954523703
C        -1.95551006166009    1.41890855023456   -2.58480699856499
C        -2.95229337125453    0.69585153233996   -1.82758128708724
C        -3.18839657313821    1.42100871522256   -0.59927798986954
C        -2.33380280626179    2.58789406601534   -0.59436835327389
C        -2.95395978797637   -0.69500292554172   -1.82881346776752
C        -1.95960878803343   -1.41892717051293   -2.58751657537813
C        -1.58464103751901   -2.59146092191060   -1.82737061003168
C        -2.34315195507582   -2.59013500807199   -0.59926316492930
C        -3.19082124220315   -1.42229664219032   -0.60226010294135
C        -1.00229290660469   -0.72291631770893   -3.31757881766558
C        -0.99965685739511    0.72291614260920   -3.31619343097631
C         0.37727861294698    1.16760038254555   -3.31599495848237
C         1.22454118999371   -0.00083663098570   -3.31548356134086
C         0.37281847006901   -1.16887740878045   -3.31951186474008
Cl       -1.88184552056971   -0.00391964994771    5.10609999460055
Cl        3.62288108917710   -3.99351424526928    0.93145419403690
62
 energy: -137.539133506281 gnorm: 0.051565657989 xtb: 6.4.1 (a3dbbd7)
C        -1.28860136495647    0.00705644390637    3.48249113729439
C        -0.35415009834342   -1.17312066789281    3.29265575060318
C         0.98830007719712   -0.71362642407336    3.29245000004278
C         0.98849553947366    0.72848243358839    3.28569067319945
C        -0.35043885450712    1.18594185418872    3.28960862084820
C         2.47676637174648   -2.72419128404782    0.62889572761351
C         3.16686470486860   -1.37158943253619    0.59096680979275
C         2.92667082036051   -0.68310868702758    1.80069927386031
C         1.94074674941641   -1.41090937825639    2.56097668872992
C         1.55302736637497   -2.56637572237923    1.82872713947025
C         3.17709320004812    1.42774027381602    0.59088552466079
C         2.33276993907538    2.59064592424132    0.58990064869362
C         1.57831155899441    2.59170903794937    1.81309512438947
C         1.95671272329750    1.42865663038191    2.56661816879441
C         2.93842055627165    0.71131442912237    1.81199755835684
C        -0.35970139203803    3.45344435540293    0.58662382995725
C        -1.73257727976140    3.00373966627943    0.59492788697902
C        -1.96054433950192    2.29500035101339    1.80459638852100
C        -0.72609288371861    2.28497543662107    2.55326790731356
C         0.25853289482023    3.01711386430780    1.80927163978037
C        -3.40647088326657    0.71071588799377    0.56729427665991
C        -3.41381383090509   -0.72039456688766    0.56448424306877
C        -2.77501797296977   -1.15060498808399    1.78122660990193
C        -2.43489980065400    0.01000683107025    2.53094118478561
C        -2.77123214394325    1.14571393895166    1.79413914348116
C        -1.73559193426264   -2.99875649893592    0.58133616476624
C        -0.37460756542025   -3.43673286168033    0.57684883638571
C         0.25112270828215   -2.98669247973718    1.81445168414057
C        -0.72639114890424   -2.27260117733229    2.56311565073448
C        -1.96514953579376   -2.27710997069914    1.79402020845469
C        -0.26745601996851   -3.00451198898263   -1.83609466815494
C         0.71878974926606   -2.28460154831090   -2.58156429029800
C         1.94008359345329   -2.27966358104916   -1.80315814662061
C         1.71212539200887   -3.00200690542801   -0.63189900890142
C         0.35186097354176   -3.42131090868298   -0.60412200565079
C         2.78208446425167   -1.15249930937789   -1.82008917789199
C         2.40613142133297   -0.00489457660540   -2.56771836103807
C         2.78119083700462    1.16966555417098   -1.81392977376443
C         3.39446948821052    0.73400088791599   -0.58966507273741
C         3.38351278390101   -0.70104461382661   -0.58659216815197
C         1.96697190836962    2.28708825930566   -1.81226893616935
C         0.73675448740464    2.28786161647907   -2.57068754738868
C        -0.24677051129948    3.00246198643059   -1.81885295215697
C         0.36708495142791    3.45007793634563   -0.58927096840247
C         1.73672995272453    3.00980593808447   -0.58982936403532
C        -1.57039621173015    2.57504359929534   -1.81327313817798
C        -1.94793022808528    1.41224494221677   -2.57670985772545
C        -2.94234919235591    0.69246809013942   -1.82650876197185
C        -3.17460482645051    1.41295418692691   -0.60183180880049
C        -2.32575550909767    2.57405294725644   -0.59692867702095
C        -2.94570855551215   -0.69175966942239   -1.82973804758735
C        -1.95608937120362   -1.41105701042595   -2.58536404887609
C        -1.58711091855075   -2.57840607632153   -1.82591194454141
C        -2.34633665578194   -2.58312659478519   -0.61188921693081
C        -3.18168658080980   -1.42036291251269   -0.60966389085305
C        -1.00099185880044   -0.71831978473786   -3.30919956965359
C        -0.99595153259271    0.72033189934540   -3.30406094904322
C         0.37674663562888    1.16017034520046   -3.30114419329747
C         1.21628739333390    0.00023598657624   -3.30325327539099
C         0.36887388663720   -1.16170817790167   -3.30913841462786
Cl       -1.92861893107112   -0.00320628745949    5.26459636883535
Cl        3.71506862622407   -4.09488675549740    0.95975556707834
62
 energy: -137.542109077285 gnorm: 0.025954295195 xtb: 6.4.1 (a3dbbd7)
C        -1.29164135594175    0.00930551566276    3.49724102751410
C        -0.36472868677538   -1.16887422290474    3.31201018276110
C         0.98290168984378   -0.71391207194501    3.29141247763378
C         0.98123539303779    0.72920509603666    3.29049710668883
C        -0.36326311431323    1.18768032519569    3.31379351074645
C         2.48702956762709   -2.73240256821001    0.63163335525314
C         3.18629674752223   -1.39288188533644    0.59215877701963
C         2.93085164681664   -0.68942187965242    1.79752071090834
C         1.94020814840691   -1.41353530461353    2.55681611645952
C         1.57105866375847   -2.58151945267083    1.82901127655535
C         3.17682475791599    1.42725953935476    0.58937360259166
C         2.33517529699350    2.59501462788856    0.58901508735677
C         1.57733643470735    2.59195256286544    1.81320544471396
C         1.95098083924907    1.42543852615690    2.56546022345258
C         2.93554899149118    0.70694039618100    1.80916019296117
C        -0.36045829492321    3.45376771754624    0.58600354530481
C        -1.73393399176300    3.00403553934340    0.59345215711389
C        -1.96292554271773    2.29788895458625    1.80778636979654
C        -0.73275875662269    2.28741769620977    2.56624030289456
C         0.25525398693628    3.01252159429299    1.81050299383225
C        -3.40260565078496    0.71357011356600    0.56796588494028
C        -3.41090633849634   -0.71808944319878    0.56524551940705
C        -2.77484486396328   -1.14763828850438    1.78770000243430
C        -2.42967495158298    0.01181336969726    2.54748457266532
C        -2.77112317232522    1.14801020265776    1.80068044525253
C        -1.73391506095181   -2.99218921235841    0.57723514099153
C        -0.37141935006156   -3.43304112356242    0.57506229100517
C         0.25771141000593   -2.98401714233501    1.81190358358732
C        -0.72635083664510   -2.26531470235948    2.56472837603968
C        -1.96449247137667   -2.27233370643708    1.79334534408389
C        -0.26546832304659   -3.00316225267889   -1.83461616493576
C         0.72120379069723   -2.28184158827977   -2.57900521455724
C         1.94693121077332   -2.28251932384934   -1.80101948011354
C         1.72734856087287   -3.00854713591740   -0.62161062212220
C         0.35921703152858   -3.42351065380761   -0.60235004708762
C         2.78603143822349   -1.15453492351874   -1.82194911565231
C         2.40431126019159   -0.00529192240869   -2.56973541639502
C         2.78052765771027    1.16950942411565   -1.81593314793560
C         3.39215285483231    0.72939132446593   -0.59009512867757
C         3.39255467604721   -0.71020672018374   -0.58722859991936
C         1.96675519192351    2.28869465619870   -1.81532424976522
C         0.73555724100502    2.28975230914046   -2.57491966961503
C        -0.24811292337359    3.00505869079017   -1.82257326781981
C         0.36648350633990    3.45232772736800   -0.59146295858007
C         1.73793196988209    3.01376794116441   -0.59235058462505
C        -1.57265892195914    2.57759431243597   -1.81801712700858
C        -1.95280140821599    1.41528037053453   -2.58398420230871
C        -2.94912524877686    0.69486897766483   -1.83338869686368
C        -3.17664763961339    1.41491078287540   -0.60495771360073
C        -2.32695974453102    2.57611472519175   -0.59978000206355
C        -2.95410246762681   -0.69148597968882   -1.83789159420199
C        -1.96272579596894   -1.41236708528450   -2.59453006403099
C        -1.58900277084756   -2.57888082047818   -1.83153574363587
C        -2.34875861088010   -2.58205733005882   -0.61609892100547
C        -3.18581360166125   -1.41850830734478   -0.61347747558684
C        -1.00540463112961   -0.71830271825566   -3.31789795285113
C        -0.99999771412860    0.72224722076583   -3.31216081880558
C         0.37433648670642    1.16188795914775   -3.30627411309727
C         1.21460920750621    0.00124306614516   -3.30647366972645
C         0.36688921103646   -1.16105369996181   -3.31160937880962
Cl       -1.93417610426834   -0.00023106315982    5.26556447452425
Cl        3.72110729837609   -4.09525804265441    0.95523924624094
62
 energy: -137.543023753625 gnorm: 0.015462924860 xtb: 6.4.1 (a3dbbd7)
C        -1.29749783962612    0.01008128542110    3.51878351974529
C        -0.37219711415956   -1.16491527774262    3.31682312242939
C         0.97767047965232   -0.71287682244621    3.28522290905739
C         0.97502310768961    0.72955187270847    3.28707703054249
C        -0.37174281404507    1.18680533149940    3.32169536877544
C         2.49601117508630   -2.74376464854022    0.63412638213264
C         3.19482976864575   -1.40601191367472    0.59113592138824
C         2.92958216084864   -0.69185677839215    1.79150771319016
C         1.93704457508177   -1.41233291703752    2.55050957270431
C         1.57836103180107   -2.58558299988015    1.82565653921341
C         3.17754899557216    1.42849838775977    0.58822867887159
C         2.33748139789727    2.59898109701546    0.58810017447727
C         1.57733137488051    2.59314392725061    1.81227945108131
C         1.94702001245665    1.42327075336093    2.56154805526177
C         2.93286212004600    0.70507480231712    1.80590216936637
C        -0.36073087934573    3.45348305666609    0.58563330774288
C        -1.73488285057684    3.00414990526755    0.59317568007250
C        -1.96492047063639    2.30084651011621    1.80929579579440
C        -0.73620542048621    2.28761887151465    2.57056927281862
C         0.25392907081203    3.00953823378067    1.81043095408714
C        -3.39670584498125    0.71325061631846    0.56932193304149
C        -3.40709799428152   -0.71743775643772    0.56695148287559
C        -2.77396138529302   -1.14683647133507    1.79285525332579
C        -2.42316614181698    0.01240211378306    2.55660853766631
C        -2.76868239935081    1.14729034565366    1.80626386546877
C        -1.73471680286025   -2.99124642365547    0.57486254432727
C        -0.37182922538085   -3.43180654909088    0.57368374141421
C         0.26015424627915   -2.97842418096130    1.80808524491768
C        -0.72614794449619   -2.25945391779135    2.56173192189315
C        -1.96525691425363   -2.27176829509195    1.79156182925030
C        -0.26372190701530   -3.00139487332658   -1.83234697259839
C         0.72258254231426   -2.27952633524002   -2.57515889900645
C         1.95067405065879   -2.28348432726937   -1.79703950166455
C         1.73334812041107   -3.00849855247690   -0.61469328237042
C         0.36289752029603   -3.42550438562067   -0.60066741079330
C         2.78898258631629   -1.15461796051215   -1.82367092091344
C         2.40441672398174   -0.00534277961837   -2.57027177606453
C         2.78047409865886    1.16952971298285   -1.81579521650251
C         3.39168935468991    0.72719167312126   -0.58943048533591
C         3.39515136854626   -0.71454959901038   -0.58712382816920
C         1.96774256407119    2.29008071615197   -1.81631941107863
C         0.73567704008830    2.29157865522009   -2.57644702633128
C        -0.24796686819375    3.00675549969699   -1.82440247647933
C         0.36657599377736    3.45418061898824   -0.59222697092723
C         1.73884963678730    3.01658124588714   -0.59370221698500
C        -1.57307305929288    2.57872882575691   -1.81976023550859
C        -1.95439774930472    1.41649946010617   -2.58685255584250
C        -2.95139418730933    0.69528627089498   -1.83554121443391
C        -3.17630101768057    1.41485211098343   -0.60542537509171
C        -2.32657187126051    2.57628514025027   -0.60100715167979
C        -2.95756203301295   -0.69213907019903   -1.84068317869168
C        -1.96514662855651   -1.41353155486660   -2.59819462275805
C        -1.58955189065828   -2.57955997777013   -1.83353401630784
C        -2.35087411639793   -2.58342981155512   -0.61835922690258
C        -3.18726814653975   -1.41857872983281   -0.61420363191032
C        -1.00643719733185   -0.71853388561525   -3.32095434309232
C        -1.00095622595840    0.72320504497839   -3.31537945716250
C         0.37417802611342    1.16306011586070   -3.30792313625113
C         1.21423483066384    0.00226139341883   -3.30680309276396
C         0.36684378141881   -1.16063272864116   -3.31161823515877
Cl       -1.94074129536369    0.00338938076124    5.27183215237722
Cl        3.72410230261625   -4.09827275823429    0.95027394479827
62
 energy: -137.543358813554 gnorm: 0.009118998459 xtb: 6.4.1 (a3dbbd7)
C        -1.30099199080637    0.00979632294263    3.53251542882552
C        -0.37542283686233   -1.16294493544470    3.31436652924211
C         0.97516861703974   -0.71194751171170    3.28073144055957
C         0.97254070594946    0.72976088934509    3.28329988835846
C        -0.37485959329633    1.18530456044704    3.31992414752700
C         2.49863862601533   -2.74993376177777    0.63517047760270
C         3.19591214524177   -1.41021505621421    0.58985790087847
C         2.92819269574254   -0.69176204259590    1.78811014608360
C         1.93493228022156   -1.41016537842886    2.54692689029131
C         1.57840556399800   -2.58356347771916    1.82239103638473
C         3.17881431019977    1.42977867959324    0.58800779112066
C         2.33894492943886    2.60093261718164    0.58800034294900
C         1.57772512604541    2.59401088422688    1.81184899792966
C         1.94612030603811    1.42246089274631    2.55952276216395
C         2.93271323056647    0.70494425477200    1.80497736059076
C        -0.36090396910008    3.45367222662116    0.58574349264434
C        -1.73573196224198    3.00498142609913    0.59353403461572
C        -1.96612553991787    2.30275826366581    1.80973832875215
C        -0.73712570978547    2.28767838663179    2.57058299941682
C         0.25384945049171    3.00868002665810    1.81024286736513
C        -3.39323280563078    0.71193059381795    0.57046662580629
C        -3.40525567270588   -0.71792859737644    0.56836742863922
C        -2.77343049112789   -1.14754234044385    1.79552863216085
C        -2.41816384724708    0.01203890924148    2.55905246339506
C        -2.76653953265665    1.14578501668414    1.80906057438453
C        -1.73645550923134   -2.99399137299230    0.57468955956964
C        -0.37322287679653   -3.43278114538721    0.57351681663881
C         0.25997931812031   -2.97538543937118    1.80622858305306
C        -0.72641542798684   -2.25785582879018    2.55953073535227
C        -1.96664497127461   -2.27388500319402    1.79094629591966
C        -0.26288419434534   -3.00119372315624   -1.83151430128796
C         0.72315638584085   -2.27907505218818   -2.57333350225035
C         1.95161114128439   -2.28317090271591   -1.79443190672569
C         1.73319158870678   -3.00543149873465   -0.61140890298287
C         0.36346758174972   -3.42685941203459   -0.59987200174497
C         2.79045276787773   -1.15389451259205   -1.82456113468630
C         2.40566525269348   -0.00495167540799   -2.57068324842060
C         2.78128168654385    1.16986489464452   -1.81531164163244
C         3.39286467890141    0.72697944777373   -0.58874239723673
C         3.39513163085916   -0.71508872851279   -0.58688209433583
C         1.96892597218413    2.29089294090246   -1.81624016078128
C         0.73623085212924    2.29244423371771   -2.57646739967230
C        -0.24753616219230    3.00742127991039   -1.82472921254893
C         0.36679048720537    3.45528601371142   -0.59203501083546
C         1.73931258327739    3.01763133968174   -0.59373442324571
C        -1.57289810523946    2.57894268147144   -1.81975557814732
C        -1.95425191713574    1.41639850713448   -2.58691261658640
C        -2.95103649712640    0.69467762204539   -1.83484403099207
C        -3.17560911582846    1.41419816702662   -0.60462003744613
C        -2.32619608071101    2.57621508480169   -0.60102583491299
C        -2.95749856488691   -0.69293726896774   -1.84002045032865
C        -1.96477050476810   -1.41430005963401   -2.59811225222694
C        -1.58942716232234   -2.58067486816622   -1.83371805221406
C        -2.35169334975023   -2.58545021907723   -0.61863702987504
C        -3.18739859706958   -1.41961806574590   -0.61340036029362
C        -1.00574306157261   -0.71896988620244   -3.32068179117075
C        -1.00051844194877    0.72324168329189   -3.31552430125345
C         0.37483934683136    1.16343670766725   -3.30789866313922
C         1.21485232607523    0.00278887339885   -3.30650077514829
C         0.36765703046649   -1.16076452812853   -3.31116211024821
Cl       -1.94313029575070    0.00646659976111    5.27045581326206
Cl        3.71930999227244   -4.09757704127664    0.94562303222030
62
 energy: -137.543482052283 gnorm: 0.004543973828 xtb: 6.4.1 (a3dbbd7)
C        -1.30211547958923    0.00935220513104    3.53828992081716
C        -0.37561508174717   -1.16250925573162    3.31075159673033
C         0.97481684520225   -0.71154045321194    3.27918231587578
C         0.97253856407189    0.72995865991661    3.28161254992473
C        -0.37465152379153    1.18448092702175    3.31598896496145
C         2.49814268792024   -2.75188661426865    0.63536912730136
C         3.19480237740628   -1.40943871028662    0.58928092902383
C         2.92812672503664   -0.69095989891053    1.78746934295025
C         1.93449498544514   -1.40871249321657    2.54613475695699
C         1.57613240918992   -2.58024652422791    1.82072481301809
C         3.17972237092727    1.43040984651296    0.58821932900528
C         2.33934104675384    2.60112417278758    0.58832169039496
C         1.57793612740474    2.59423539893248    1.81186997499938
C         1.94676761442342    1.42253733243845    2.55934592817843
C         2.93390523273811    0.70546410184629    1.80546457397305
C        -0.36106844667516    3.45400752009478    0.58602946748546
C        -1.73627319321927    3.00563369485398    0.59404886369689
C        -1.96665441176354    2.30344191296685    1.80980765106944
C        -0.73693509260401    2.28798744111735    2.56970309056692
C         0.25407950134249    3.00888088973134    1.81017432383861
C        -3.39245205406235    0.71091790319804    0.57101022874760
C        -3.40507899976532   -0.71859072797127    0.56894098597839
C        -2.77307941482263   -1.14829097205499    1.79600956557340
C        -2.41592802030192    0.01154911200837    2.55817942090400
C        -2.76555141376252    1.14464750640853    1.80962479757031
C        -1.73755790102983   -2.99662578282202    0.57541068584827
C        -0.37400433604440   -3.43398309684740    0.57388899334828
C         0.25919239141084   -2.97488909068746    1.80617639264412
C        -0.72677588120608   -2.25866640702155    2.55912224555878
C        -1.96765855933721   -2.27591736488953    1.79124850575959
C        -0.26274807159823   -3.00177127406117   -1.83181099472470
C         0.72328545173928   -2.27965492030905   -2.57334443758047
C         1.95115812571857   -2.28248264235094   -1.79360779924110
C         1.73114955921857   -3.00249779856483   -0.61076468684137
C         0.36277704726379   -3.42699100678951   -0.59981244913496
C         2.79087898529361   -1.15330163080304   -1.82464679994537
C         2.40671618471804   -0.00458870052602   -2.57080431325090
C         2.78210385915053    1.17022983686672   -1.81500942107129
C         3.39417249585474    0.72750227396476   -0.58841934341447
C         3.39487067126668   -0.71422333843094   -0.58668744901908
C         1.96946984822984    2.29103554766004   -1.81577547271148
C         0.73654096150230    2.29246183173913   -2.57598459116663
C        -0.24735659413937    3.00732053937417   -1.82440673736857
C         0.36682340020072    3.45545541560739   -0.59157484952563
C         1.73932427925117    3.01753378542912   -0.59321969132960
C        -1.57278279958547    2.57869059901982   -1.81919012277333
C        -1.95370392334643    1.41581683073843   -2.58605269100666
C        -2.95015846227036    0.69399253773673   -1.83367785271891
C        -3.17520366330150    1.41363856501850   -0.60379212251474
C        -2.32618906754104    2.57614937086544   -0.60063555759806
C        -2.95639618679553   -0.69340738963321   -1.83870992368882
C        -1.96376374151574   -1.41457703625651   -2.59703285153238
C        -1.58915788123580   -2.58136261970212   -1.83332270365955
C        -2.35159072818842   -2.58665922511871   -0.61821355566597
C        -3.18694267809328   -1.42049096513860   -0.61260014766608
C        -1.00493560736597   -0.71931745768150   -3.31967420863187
C        -0.99994598544208    0.72287891195305   -3.31462739510616
C         0.37536347191076    1.16326205547465   -3.30739419777312
C         1.21552971490683    0.00285373020593   -3.30625234269310
C         0.36835713683884   -1.16102598965520   -3.31081729451507
Cl       -1.94223203505157    0.00820868179304    5.26398443590125
Cl        3.71155098554767   -4.09550905761740    0.94267473659989
62
 energy: -137.543511916303 gnorm: 0.002065349436 xtb: 6.4.1 (a3dbbd7)
C        -1.30197374166948    0.00921360421367    3.53858646189106
C        -0.37462904278153   -1.16285112271473    3.30947868437362
C         0.97534276410218   -0.71157543892629    3.27966392452515
C         0.97327467489974    0.73009595361109    3.28188267187250
C        -0.37351068122418    1.18459227395356    3.31437934409806