62
 energy: -137.538335270202 gnorm: 0.000096167534 xtb: 6.4.1 (a3dbbd7)
C        -1.30272162241009   -0.00218650650001    3.53583445268612
C        -0.38190288103659   -1.17538121706794    3.32872924995269
C         1.05264569584016   -0.76749857727579    3.53585906992986
C         0.96992067261118    0.72063349240258    3.29191650507283
C        -0.36108369590368    1.15309708491827    3.29190349128058
C         2.33244865081661   -2.58704603425311    0.56620723284992
C         3.16475057186528   -1.42053665520841    0.56956919413373
C         2.90885003297405   -0.70496117946399    1.80855321959046
C         1.96240089690890   -1.41959969766475    2.55882432300670
C         1.57460167398936   -2.56709103279016    1.79228106564486
C         3.16869005458553    1.41196416386094    0.58361977613159
C         2.32647026697432    2.58132638869655    0.57788061040966
C         1.56273961163616    2.57271519632470    1.80154495591106
C         1.93684847882077    1.40799997258764    2.55949767352524
C         2.93069559092030    0.70090238213803    1.81169186748040
C        -0.36488796075067    3.45579981504461    0.57788893307310
C        -1.73359049436749    3.00480709252044    0.58362872135544
C        -1.95899185736408    2.28964680561337    1.81169482884263
C        -0.73932993213507    2.27753388659251    2.55949356104132
C         0.24792956324789    2.99992170753002    1.80154674865004
C        -3.39531410157752    0.71095150881889    0.56956399781681
C        -3.40762029449699   -0.72198403522652    0.56617296564928
C        -2.78275590086495   -1.15130096736316    1.79223326150012
C        -2.42203075461656    0.00497639033154    2.55880865104627
C        -2.76767320607484    1.13944240510075    1.80854845434268
C        -1.73020391304225   -2.99270476518036    0.56822174808788
C        -0.35928781514521   -3.43818254805242    0.56836965105809
C         0.25546074219246   -2.98457144280033    1.78722207650614
C        -0.72512082667294   -2.23168309451229    2.54768095985746
C        -1.96093109019806   -2.26440220302439    1.78713490083284
C        -0.25046731532011   -3.01242499955299   -1.84493876085056
C         0.74225377333355   -2.29127241058533   -2.59778789665391
C         1.96941961966979   -2.29450039481297   -1.83719385414184
C         1.73785853274329   -3.01661869419260   -0.61635019627383
C         0.36762404535130   -3.45824485682936   -0.61363927884313
C         2.78449885182875   -1.16715254894989   -1.83316146726671
C         2.40795506486925   -0.00095157151248   -2.58809621906902
C         2.78551465387519    1.16422906892706   -1.82440218530813
C         3.39603600157601    0.72079067711683   -0.60088247452295
C         3.39264552101650   -0.72450329132781   -0.60446593091505
C         1.96852703108217    2.28860990751141   -1.82587130825117
C         0.74350464719914    2.28829827916300   -2.58432318253652
C        -0.24737222015685    3.00859517156595   -1.82585329770666
C         0.36514130487034    3.45871194192994   -0.60101747719839
C         1.73757156985239    3.01278083435584   -0.60102484571737
C        -1.56922256336932    2.57917334581279   -1.82439180380799
C        -1.94865073136812    1.41460428254012   -2.58810009422325
C        -2.93875820184655    0.69245561449575   -1.83317125597449
C        -3.17057093794639    1.40801406251047   -0.60447062858566
C        -2.32378975961573    2.57927430235340   -0.60087298990437
C        -2.94198572965128   -0.69868712399544   -1.83722891833383
C        -1.94728690745599   -1.41738680378827   -2.59782570360139
C        -1.56802998562418   -2.58432418904896   -1.84500321441796
C        -2.33012479611225   -2.58168979413181   -0.61372496551841
C        -3.17909366581727   -1.41899645160254   -0.61639575194601
C        -0.99176453255522   -0.71886698303936   -3.32331987022353
C        -0.99157844495620    0.72190672221392   -3.31787624983691
C         0.37906822222424    1.16667900524625   -3.31746282328343
C         1.22650957512082    0.00119961371157   -3.31787087598197
C         0.37979804833754   -1.16452268769605   -3.32329830546081
Cl       -1.94875471726030    0.05583566685031    5.26210476711975
Cl        1.60941584512037   -1.10034042254958    5.26210506034106
