62
 energy: -137.469485115838 gnorm: 0.170299732478 xtb: 6.4.1 (a3dbbd7)
C        -1.23626340000000    0.00000000000000    3.32997640000000
C        -0.38202640000000   -1.17575640000000    3.32997640000000
C         1.00015810000000   -0.72665740000000    3.32997640000000
C         1.00015810000000    0.72665740000000    3.32997640000000
C        -0.38202640000000    1.17575640000000    3.32997640000000
C         2.34433560000000   -2.60145750000000    0.59464210000000
C         3.19857260000000   -1.42570110000000    0.59464210000000
C         2.96246730000000   -0.69904370000000    1.83090550000000
C         1.96230920000000   -1.42570110000000    2.59495830000000
C         1.58028280000000   -2.60145750000000    1.83090550000000
C         3.19857260000000    1.42570110000000    0.59464210000000
C         2.34433560000000    2.60145750000000    0.59464210000000
C         1.58028280000000    2.60145750000000    1.83090550000000
C         1.96230920000000    1.42570110000000    2.59495830000000
C         2.96246730000000    0.69904370000000    1.83090550000000
C        -0.36750900000000    3.48258920000000    0.59464210000000
C        -1.74969350000000    3.03349030000000    0.59464210000000
C        -1.98579880000000    2.30683290000000    1.83090550000000
C        -0.74953540000000    2.30683290000000    2.59495830000000
C         0.25062270000000    3.03349030000000    1.83090550000000
C        -3.42570570000000    0.72665740000000    0.59464210000000
C        -3.42570570000000   -0.72665740000000    0.59464210000000
C        -2.80757400000000   -1.17575640000000    1.83090550000000
C        -2.42554760000000    0.00000000000000    2.59495830000000
C        -2.80757400000000    1.17575640000000    1.83090550000000
C        -1.74969350000000   -3.03349030000000    0.59464210000000
C        -0.36750900000000   -3.48258920000000    0.59464210000000
C         0.25062270000000   -3.03349030000000    1.83090550000000
C        -0.74953540000000   -2.30683290000000    2.59495830000000
C        -1.98579880000000   -2.30683290000000    1.83090550000000
C        -0.25062270000000   -3.03349030000000   -1.83090550000000
C         0.74953540000000   -2.30683290000000   -2.59495830000000
C         1.98579880000000   -2.30683290000000   -1.83090550000000
C         1.74969350000000   -3.03349030000000   -0.59464210000000
C         0.36750900000000   -3.48258920000000   -0.59464210000000
C         2.80757400000000   -1.17575640000000   -1.83090550000000
C         2.42554760000000    0.00000000000000   -2.59495830000000
C         2.80757400000000    1.17575640000000   -1.83090550000000
C         3.42570570000000    0.72665740000000   -0.59464210000000
C         3.42570570000000   -0.72665740000000   -0.59464210000000
C         1.98579880000000    2.30683290000000   -1.83090550000000
C         0.74953540000000    2.30683290000000   -2.59495830000000
C        -0.25062270000000    3.03349030000000   -1.83090550000000
C         0.36750900000000    3.48258920000000   -0.59464210000000
C         1.74969350000000    3.03349030000000   -0.59464210000000
C        -1.58028280000000    2.60145750000000   -1.83090550000000
C        -1.96230920000000    1.42570110000000   -2.59495830000000
C        -2.96246730000000    0.69904370000000   -1.83090550000000
C        -3.19857260000000    1.42570110000000   -0.59464210000000
C        -2.34433560000000    2.60145750000000   -0.59464210000000
C        -2.96246730000000   -0.69904370000000   -1.83090550000000
C        -1.96230920000000   -1.42570110000000   -2.59495830000000
C        -1.58028280000000   -2.60145750000000   -1.83090550000000
C        -2.34433560000000   -2.60145750000000   -0.59464210000000
C        -3.19857260000000   -1.42570110000000   -0.59464210000000
C        -1.00015810000000   -0.72665740000000   -3.32997640000000
C        -1.00015810000000    0.72665740000000   -3.32997640000000
C         0.38202640000000    1.17575640000000   -3.32997640000000
C         1.23626340000000    0.00000000000000   -3.32997640000000
C         0.38202640000000   -1.17575640000000   -3.32997640000000
Cl       -1.84886636902500    0.00000000000000    5.03315507598844
Cl        1.49576432476586   -1.08673639121363    5.03315507238288
62
 energy: -137.509886139370 gnorm: 0.112579380389 xtb: 6.4.1 (a3dbbd7)
C        -1.25886075225575    0.00368224458836    3.36922936539739
C        -0.38797817198960   -1.18601013425468    3.34412733041162
C         1.01497347505103   -0.73801067638885    3.36836775773130
C         0.99942993738915    0.74212364347412    3.33485455200400
C        -0.36327955920901    1.18313160268930    3.33289507791310
C         2.34181581961439   -2.59306622442852    0.57631079803372
C         3.19054589367982   -1.42423939457585    0.57657166220571
C         2.94420717185157   -0.69859006207198    1.80341887854572
C         1.96968685872000   -1.42824097494358    2.54788108001139
C         1.58044649719742   -2.59186208562986    1.80269142716787
C         3.18108889085329    1.42021411232677    0.59053993136426
C         2.33263608507786    2.59151362313259    0.59060254461255
C         1.57546379781782    2.59518976770777    1.82290058262043
C         1.95310386380468    1.42705307055194    2.58339911272801
C         2.94430243380394    0.69998366961027    1.81740619140434
C        -0.36416527252321    3.46552224951967    0.59084308350275
C        -1.73907976119786    3.01789605481657    0.59095472557900
C        -1.96902049039474    2.29618793001801    1.81807423881130
C        -0.73722354853260    2.29802445911276    2.58251820224512
C         0.25247489945525    3.02493505667782    1.82299642423427
C        -3.42086403775741    0.72209611413042    0.57630018208147
C        -3.42057371256951   -0.72314868503782    0.57590013037156
C        -2.80053984583339   -1.16465617566716    1.80178224267690
C        -2.43546845791906    0.00511729362205    2.54824749004772
C        -2.79370277378407    1.16646322210982    1.80255131949764
C        -1.74051740793052   -3.01537909647253    0.59122803373797
C        -0.36415557880941   -3.46373677820029    0.59126699238097
C         0.25340319275224   -3.01709286512052    1.81658398504773
C        -0.74236247575809   -2.28417905057490    2.58035640070481
C        -1.97718275335312   -2.28827391927644    1.81528274342576
C        -0.24964903080144   -3.01948528332049   -1.82517617645324
C         0.74444715113493   -2.29688760985529   -2.58560827278410
C         1.97629990608573   -2.29770430430913   -1.82785434280526
C         1.74384937527855   -3.02368387204129   -0.60182944381320
C         0.36736433484132   -3.46577063305888   -0.59416301944309
C         2.79409718869087   -1.17073722246016   -1.82810897378855
C         2.41395088611559   -0.00064935593989   -2.58559411786047
C         2.79353338939757    1.16895275752642   -1.82337580267219
C         3.40846675829800    0.72365182360592   -0.59504290512236
C         3.41341625250807   -0.72395323222407   -0.60084432103286
C         1.97456784963503    2.29469762040315   -1.82272491386260
C         0.74488305342178    2.29400427638748   -2.58292771524823
C        -0.24975797508842    3.01698843395467   -1.82254958581345
C         0.36543956830747    3.46570808672921   -0.59283383490997
C         1.74072419813658    3.01905937087930   -0.59289475808967
C        -1.57399160007142    2.58727758990284   -1.82304471706680
C        -1.95385621684518    1.41768802616896   -2.58541819872882
C        -2.94922298348678    0.69404585719359   -1.82832676568329
C        -3.18741108003996    1.41913770411674   -0.60094358817505
C        -2.33353508436812    2.58833706120962   -0.59462757221643
C        -2.94895289060760   -0.69838781500665   -1.82790355876073
C        -1.95186301019431   -1.42143746564718   -2.58575443733530
C        -1.57214290931069   -2.59017156960604   -1.82525539602530
C        -2.33437611086221   -2.58949345808344   -0.59453008180890
C        -3.18839955286973   -1.42286977389986   -0.60220067412757
C        -0.99533626955574   -0.72422472928540   -3.31611672934382
C        -0.99537963332562    0.72144486716768   -3.31546535466450
C         0.37939231236661    1.16828421114736   -3.31528733375375
C         1.22935692234827   -0.00105300696488   -3.31561307421421
C         0.37995105008174   -1.17082114548346   -3.31609582166143
Cl       -1.90625943896647    0.01803379281365    5.11482656629228
Cl        1.54868732823535   -1.10936538467933    5.11351258284782
62
 energy: -137.530030843287 gnorm: 0.075132348979 xtb: 6.4.1 (a3dbbd7)
C        -1.29837089227535    0.00614210476919    3.47364586435513
C        -0.38686637293617   -1.18446739243502    3.28494671874966
C         1.04886626071045   -0.75962827454707    3.47312599499234
C         0.97822805578970    0.75268772850948    3.27791004332413
C        -0.34197056444852    1.18084337157522    3.27668959787101
C         2.33886806515304   -2.58748029210904    0.56095607994537
C         3.17660587479224   -1.42457092257576    0.56279959405063
C         2.91772208708212   -0.70137221917921    1.78465467967027
C         1.98143574370314   -1.42922194833060    2.51031584355765
C         1.57760136862331   -2.57195161662833    1.77456178717897
C         3.16511203559117    1.41355411880037    0.58581046476084
C         2.32429891877141    2.58193715065461    0.58136256555003
C         1.57011532806194    2.59021673618386    1.80471147893924
C         1.94128356188172    1.42676770960197    2.55011668959828
C         2.93044365643722    0.70350626496456    1.80468353733476
C        -0.36302052819450    3.45359978698397    0.58128125915223
C        -1.72978594690233    3.00325146772196    0.58621173917907
C        -1.95662588698670    2.29100546896409    1.80521533860520
C        -0.72982620098076    2.29235235095226    2.55003180836826
C         0.25278346417907    3.01803263603375    1.80465360205802
C        -3.40951559821277    0.71397139992086    0.56245610010740
C        -3.41374727775392   -0.72007689393475    0.56096508695159
C        -2.78658345323861   -1.15174126206949    1.77422301513818
C        -2.44438950369779    0.01014633629643    2.50994794996842
C        -2.77401959657724    1.14819898931734    1.78387810660286
C        -1.73329503474337   -3.00062684015637    0.57953118742045
C        -0.36140744490175   -3.44742351468791    0.57963759408172
C         0.25725343697254   -3.00295150848032    1.79114619236153
C        -0.73048855677256   -2.24899872555337    2.53203430633834
C        -1.97223520996144   -2.27617818218798    1.79058572033530
C        -0.24913230433110   -3.00310164129875   -1.82408445172798
C         0.73918332779234   -2.28462722484253   -2.57705557412928
C         1.96530607103377   -2.28864225250803   -1.82376657764103
C         1.73651407636289   -3.01414395267535   -0.60919212128254
C         0.36788279437903   -3.45167295818371   -0.59939715527292
C         2.77903226654561   -1.16515208999179   -1.82334520608405
C         2.40243061660785   -0.00190219486813   -2.57447258888624
C         2.77989020958729    1.16051357793923   -1.81379048512580
C         3.39276363921360    0.71939417110798   -0.59583709369931
C         3.39496092192492   -0.72253449855122   -0.60294413488563
C         1.96332832615461    2.28166941810129   -1.81447405371962
C         0.74100446157959    2.28133853127425   -2.57014682228640
C        -0.24778488246701    2.99992304095293   -1.81440862536106
C         0.36424705940179    3.45047259572551   -0.59380548851159
C         1.73297474134054    3.00554115991556   -0.59374383299999
C        -1.56738561637502    2.57269031499831   -1.81348675648749
C        -1.94495241484291    1.41026137084705   -2.57430354566883
C        -2.93358805374467    0.69032501353406   -1.82350237956222
C        -3.17138612375209    1.40997091224352   -0.60296566604187
C        -2.32285933644962    2.57593404360892   -0.59550473277696
C        -2.93489583138989   -0.69692821093401   -1.82370757826915
C        -1.94072188947850   -1.41422770970793   -2.57710227581498
C        -1.56330400623371   -2.57633149242858   -1.82419871296046
C        -2.32666185496828   -2.57733370473431   -0.59969463736641
C        -3.17646270017272   -1.41873147288660   -0.60935480253950
C        -0.98944971567166   -0.71834938539498   -3.30197960746718
C        -0.98938072965624    0.71807124701749   -3.29984854385741
C         0.37733929318240    1.16157976927265   -3.30039931576096
C         1.22252624379222   -0.00050623665086   -3.29998796898170
C         0.37833555289278   -1.16265967433461   -3.30201310111610
Cl       -1.96438739257865    0.02822171152845    5.27347720152361
Cl        1.60306141689641   -1.13532259766416    5.27325683658550
62
 energy: -137.535617255878 gnorm: 0.035252559763 xtb: 6.4.1 (a3dbbd7)
C        -1.29379574167530    0.00311107909968    3.49159126414780
C        -0.38472874936415   -1.17928380621057    3.32918720927642
C         1.04456235705022   -0.75928458550527    3.49143671252201
C         0.98124645516386    0.74049266087407    3.30990367793717
C        -0.35291947094689    1.17338509246063    3.30850944058658
C         2.33595295762652   -2.58705416610303    0.56273295640310
C         3.17303332803790   -1.42179640672107    0.56475442463763
C         2.91542998715208   -0.70178099139192    1.79537222435466
C         1.97154002992874   -1.42461636768614    2.54046795472059
C         1.57596706747609   -2.56836067420076    1.78464216897662
C         3.16536575539722    1.41183606765656    0.58367158927638
C         2.32482256089901    2.58180527775192    0.57981997263142
C         1.56717223611683    2.58007362405736    1.80583357983452
C         1.94101839557202    1.41772744611621    2.56360591035057
C         2.92959844693685    0.70142850409754    1.80868848484167
C        -0.36326440667444    3.45383094126272    0.57981286738880
C        -1.73085241698079    3.00192061894932    0.58398227846373
C        -1.95689608857635    2.28870137533904    1.80900112592230
C        -0.73480580688016    2.28514064604864    2.56298808106619
C         0.24964937057023    3.00790032413987    1.80564983891903
C        -3.40475708623189    0.71420077271206    0.56448086703430
C        -3.41126256932872   -0.72112751384465    0.56265801502759
C        -2.78343527988201   -1.15000706787073    1.78421336478421
C        -2.43328837025246    0.00784935622830    2.54011665900998
C        -2.77217899889603    1.14649026488652    1.79464413556825
C        -1.73119684203132   -2.99462733332800    0.57449997825953
C        -0.35950009631072   -3.44107765439568    0.57462302742311
C         0.25554484585573   -2.99128174173840    1.79235613697259
C        -0.72857709848599   -2.24281786752936    2.55045930946026
C        -1.96413279148772   -2.26807794063426    1.79169354936978
C        -0.24935045783266   -3.00792073124941   -1.83624082865690
C         0.74110437254377   -2.28868626099649   -2.59125718234702
C         1.96854008401716   -2.29244486607819   -1.83504457665800
C         1.73813094503602   -3.01553441802583   -0.61495613566003
C         0.36805969393505   -3.45367817226137   -0.60754655050878
C         2.78313234049174   -1.16702566754307   -1.83323058131071
C         2.40556268244257   -0.00165633291053   -2.58590087733456
C         2.78252362728288    1.16207889526219   -1.82242204639646
C         3.39421321121818    0.71977335782016   -0.60068561278852
C         3.39507115283825   -0.72343221387263   -0.60729473017297
C         1.96555859772003    2.28470118320763   -1.82254696577179
C         0.74188049830507    2.28436880401612   -2.58029745015446
C        -0.24798232572656    3.00361310853892   -1.82240287236746
C         0.36445654308775    3.45404907705176   -0.59873270901567
C         1.73505284399402    3.00869563912902   -0.59868573893397
C        -1.56875155767863    2.57533565605772   -1.82206756090349
C        -1.94754958653062    1.41218432675379   -2.58569679688836
C        -2.93810112859294    0.69104360632841   -1.83333554167096
C        -3.17226800342319    1.40934158691305   -0.60733627577449
C        -2.32376029071183    2.57689472684752   -0.60029877632939
C        -2.93992397580608   -0.69827800610638   -1.83502375462665
C        -1.94468300583071   -1.41648874327511   -2.59130429957483
C        -1.56591568562527   -2.58044102509525   -1.83634710252826
C        -2.32787233248745   -2.57873692775931   -0.60780962657368
C        -3.17877843759535   -1.41892465592028   -0.61509113985584
C        -0.99115147169435   -0.71943247999632   -3.31741854012479
C        -0.99107993992972    0.71958927045645   -3.31383663862161
C         0.37797057927730    1.16392092784367   -3.31333407625558
C         1.22465173568310   -0.00010025293618   -3.31399149260428
C         0.37907710540429   -1.16446693803138   -3.31745848487694
Cl       -1.96839742974705    0.03971739639829    5.27107913956069
Cl        1.61216559189771   -1.12949619630120    5.27142916893026
62
 energy: -137.537058309207 gnorm: 0.023336083321 xtb: 6.4.1 (a3dbbd7)
C        -1.29562168844199    0.00005169518715    3.51081506639276
C        -0.38292509505752   -1.17588059779363    3.34091949827744
C         1.04586088076979   -0.76255282112698    3.51100452524889
C         0.97784759912712    0.73020710999702    3.31295811229019
C        -0.35833376164865    1.16401960855109    3.31177906515428
C         2.33317126495043   -2.58600599662800    0.56423599726673
C         3.16794484974520   -1.41995655719846    0.56694456377282
C         2.91165546038271   -0.70288623106898    1.80313059410165
C         1.96512276113921   -1.42094411104588    2.55446105127830
C         1.57503572422491   -2.56626334242630    1.78995369913726
C         3.16529111768361    1.41082455232269    0.58273423241874
C         2.32442546533353    2.58057251751821    0.57822330531946
C         1.56428437617934    2.57400039858090    1.80441942213714
C         1.93835706715993    1.41097156987625    2.56511182370156
C         2.92863519212427    0.70056492922843    1.81066007916814
C        -0.36358889969176    3.45304475629897    0.57820482426929
C        -1.73136372932044    3.00124317242288    0.58292257627410
C        -1.95676954803742    2.28749493277410    1.81076209823945
C        -0.73726888489915    2.27898037931360    2.56440962214186
C         0.24824756717227    3.00137151289477    1.80416374759650
C        -3.39893463479165    0.71288606728324    0.56679348747339
C        -3.40816914154300   -0.72147152968804    0.56419900103847
C        -2.78187971096186   -1.14952997918613    1.78962682153619
C        -2.42530903673246    0.00638083912817    2.55405981128962
C        -2.76943788412144    1.14312909126372    1.80264268498033
C        -1.72942214756062   -2.99080889302226    0.57008182970210
C        -0.35864626157047   -3.43662407807341    0.57019304437759
C         0.25500956791967   -2.98366608111417    1.79010591800809
C        -0.72590243189892   -2.23447429877779    2.55324457209145
C        -1.95949163918787   -2.26300004548709    1.78960662186799
C        -0.24989293911830   -3.01079930992185   -1.84321126968276
C         0.74202319497333   -2.29078804062872   -2.59771239383394
C         1.96964166101119   -2.29406969783669   -1.83904096185275
C         1.73819460464013   -3.01553884975362   -0.61717866353339
C         0.36793340220134   -3.45516773977790   -0.61230016397704
C         2.78466658852052   -1.16740996615816   -1.83601909552413
C         2.40727294406293   -0.00134319597228   -2.58995003189508
C         2.78417430488856    1.16323952095725   -1.82574328871100
C         3.39442246246008    0.72013025857124   -0.60225231490836
C         3.39350032779474   -0.72391461166192   -0.60748349430754
C         1.96710397064899    2.28683197275998   -1.82636886362522
C         0.74260459632113    2.28642078903739   -2.58473618405468
C        -0.24783663981697    3.00624154496279   -1.82624794372378
C         0.36466992361605    3.45598257167709   -0.60144953704245
C         1.73616219136450    3.01039189825611   -0.60139908189326
C        -1.56926190524418    2.57728184410837   -1.82545399436941
C        -1.94872328652324    1.41354591664193   -2.58978117789215
C        -2.93948579227372    0.69180761496310   -1.83606647201588
C        -3.17130204789449    1.40832873564965   -0.60749792651023
C        -2.32347309125594    2.57737123666974   -0.60194774091824
C        -2.94191857326531   -0.69877137638601   -1.83902261629371
C        -1.94675845088011   -1.41751310431313   -2.59773725990226
C        -1.56729724639225   -2.58298277617601   -1.84328989722328
C        -2.32857068849928   -2.57967439695969   -0.61245651551634
C        -3.17886219124257   -1.41860385178468   -0.61723460759585
C        -0.99185532107280   -0.71957852778823   -3.32401612736056
C        -0.99175305417268    0.72072619776348   -3.31915848447614
C         0.37845313926526    1.16541308011806   -3.31854976007919
C         1.22580685988644    0.00041296232082   -3.31928192168012
C         0.37948773495490   -1.16500871522622   -3.32405624494417
Cl       -1.97086698283543    0.05067383700235    5.27680525981470
Cl        1.62081386117126   -1.12205078233193    5.27778122734769
62
 energy: -137.537874419043 gnorm: 0.015103696821 xtb: 6.4.1 (a3dbbd7)
C        -1.29908890673028   -0.00250061226336    3.52650451613038
C        -0.38141323935053   -1.17357040566770    3.33830542747364
C         1.04896921415929   -0.76612351733304    3.52678038748708
C         0.97283478408831    0.72125126383167    3.30338747422144
C        -0.36210023697147    1.15490623372305    3.30273936662075
C         2.33186948543791   -2.58604116396304    0.56577882602591
C         3.16435056842242   -1.41942762880448    0.56908545602731
C         2.90906761600825   -0.70422679445269    1.80898596081409
C         1.96053894858176   -1.41824194772028    2.56159104655128
C         1.57472985783125   -2.56637374530721    1.79337071733021
C         3.16695771920189    1.41120587374459    0.58251953236519
C         2.32520990889574    2.58041177079169    0.57729577871322
C         1.56239404996145    2.57126122111638    1.80247535167413
C         1.93667227577800    1.40678682182850    2.56258332178724
C         2.92917063449540    0.70049584380588    1.81173651387247
C        -0.36433433313230    3.45402082679528    0.57728097287972
C        -1.73255389011037    3.00289196688997    0.58258180300079
C        -1.95760954731923    2.28799754738813    1.81167962118540
C        -0.73934896181628    2.27579975029038    2.56211267450964
C         0.24771394399419    2.99829421105142    1.80226280915256
C        -3.39482643052836    0.71145389702285    0.56908171122173
C        -3.40678672246760   -0.72173318000379    0.56579068715844
C        -2.78223615719616   -1.15055461997963    1.79323021755241
C        -2.41949789907750    0.00507360516135    2.56131438048026
C        -2.76767797064460    1.14020476955463    1.80884976345633
C        -1.72898012017547   -2.99032441224024    0.56714109364257
C        -0.35872697710133   -3.43560264929021    0.56719810607183
C         0.25501287542598   -2.98072101175909    1.78750177544808
C        -0.72423477509868   -2.22916014299840    2.55052959955429
C        -1.95812394331150   -2.26146718910857    1.78729532301522
C        -0.25047133336643   -3.01305317609327   -1.84668732983207
C         0.74251982654659   -2.29212945173620   -2.59999330824037
C         1.97001036171832   -2.29495241883293   -1.83938015266138
C         1.73827703033957   -3.01615293017921   -0.61751397444059
C         0.36776163501509   -3.45760167231340   -0.61472793048287
C         2.78528973612011   -1.16738304346630   -1.83542656935456
C         2.40840856912272   -0.00099358863902   -2.59045560924702
C         2.78561547439135    1.16434956036656   -1.82642818991796
C         3.39533197474490    0.72074055179375   -0.60222503553753
C         3.39273097275989   -0.72442135829548   -0.60604606882375
C         1.96853286412901    2.28876561711087   -1.82762328487861
C         0.74336980075889    2.28830925164420   -2.58620630970347
C        -0.24754138645445    3.00868253045976   -1.82757219968244
C         0.36500609574550    3.45832931371955   -0.60242085678648
C         1.73740970096347    3.01245843352016   -0.60238885876624
C        -1.56947377189693    2.57917602313910   -1.82628651268805
C        -1.94925586289709    1.41469387358578   -2.59036531947326
C        -2.93974375684611    0.69251277938148   -1.83540936665055
C        -3.17083197243325    1.40789833278246   -0.60602076111645
C        -2.32347574050240    2.57860648607809   -0.60207956753996
C        -2.94281055388240   -0.69894010345553   -1.83935695475048
C        -1.94803009018603   -1.41806870953009   -2.59999308234945
C        -1.56832996956401   -2.58495347873331   -1.84671671541197
C        -2.32980739405588   -2.58129799365642   -0.61475027855924
C        -3.17924182133070   -1.41863051256949   -0.61749336781035
C        -0.99214135614411   -0.71944162797061   -3.32582432944637
C        -0.99198880392839    0.72167448975404   -3.32018474475342
C         0.37892903392736    1.16661568819442   -3.31968834481646
C         1.22658724042563    0.00092163351030   -3.32024745352945
C         0.37973892754485   -1.16512689116835   -3.32585097542980
Cl       -1.96688467106709    0.05861198936831    5.27675413420921
Cl        1.62345542479270   -1.11192257108692    5.27792925141911
62
 energy: -137.538188669484 gnorm: 0.017495903681 xtb: 6.4.1 (a3dbbd7)
C        -1.30138416019542   -0.00314421373753    3.53323513886621
C        -0.38101060324187   -1.17336708832276    3.33076936791645
C         1.05133947596931   -0.76752997655171    3.53329953762116
C         0.96973577029367    0.71815150868541    3.29335678826114
C        -0.36281034020098    1.15113553485718    3.29321306639313
C         2.33200997744097   -2.58670222298536    0.56651553809101
C         3.16361712489740   -1.41996439751663    0.57003487934165
C         2.90831444082829   -0.70496645247974    1.81046931663930
C         1.95947136932566   -1.41758251861588    2.56164575291958
C         1.57464464167322   -2.56713504841991    1.79383059008665
C         3.16858206771679    1.41201275541224    0.58294647087206
C         2.32624952300614    2.58102422039855    0.57731042450989
C         1.56210202269074    2.57169369894866    1.80135035932604
C         1.93644112176849    1.40647568192058    2.55995338041796
C         2.93007950617278    0.70079122535883    1.81187592795032
C        -0.36486731747654    3.45551923649936    0.57732236207339
C        -1.73347372809155    3.00477938590188    0.58294710962459
C        -1.95849264011192    2.28905638170585    1.81179964370824
C        -0.73996273460670    2.27616827257819    2.55983200252408
C         0.24785700548377    2.99869583114435    1.80126840223224
C        -3.39396627575623    0.71075180492745    0.57009794304712
C        -3.40705827325056   -0.72188788718655    0.56653309788440
C        -2.78292633182083   -1.15153727697090    1.79381727419640
C        -2.41818488056183    0.00461905654952    2.56156332572334
C        -2.76720934455214    1.13901771514899    1.81054268056209
C        -1.72960653426422   -2.99188869145588    0.56687381602478
C        -0.35921109879151   -3.43703843180563    0.56687378307857
C         0.25522730801098   -2.98200873196601    1.78645884545761
C        -0.72432253202906   -2.22923366366738    2.54759538080370
C        -1.95929241179240   -2.26274433808006    1.78646287560076
C        -0.25065454814948   -3.01346424479017   -1.84651908769792
C         0.74251183357171   -2.29209416064359   -2.59913531851526
C         1.96977753458726   -2.29494932937324   -1.83794242694768
C         1.73824561566042   -3.01669116789893   -0.61681262638910
C         0.36762375097687   -3.45894480638777   -0.61468967164735
C         2.78503998487176   -1.16722933235321   -1.83368748271417
C         2.40847042723076   -0.00087032005360   -2.58908167999707
C         2.78601853857988    1.16465877713305   -1.82543752370740
C         3.39603391409277    0.72104942834224   -0.60140619447826
C         3.39263155592069   -0.72468589888554   -0.60465313550046
C         1.96899849722006    2.28932362407284   -1.82692198453475
C         0.74369323461603    2.28891573511909   -2.58552049068574
C        -0.24734490712623    3.00944557954669   -1.82692143825800
C         0.36520318221985    3.45944250574577   -0.60193708574106
C         1.73796926231413    3.01344092711808   -0.60193526533539
C        -1.56938652642166    2.57979442786917   -1.82541805857686
C        -1.94905254209842    1.41496595021647   -2.58905752044744
C        -2.93924729376475    0.69270345549153   -1.83364340390983
C        -3.17072264548786    1.40789358786667   -0.60461519808611
C        -2.32360625702828    2.57944870488636   -0.60138305475367
C        -2.94259278459551   -0.69884560257536   -1.83792440130984
C        -1.94800859832493   -1.41788917272642   -2.59912531199241
C        -1.56851428735896   -2.58526369177227   -1.84651249029452
C        -2.33048092485259   -2.58220734965722   -0.61464949267694
C        -3.17946270203430   -1.41882083617975   -0.61677521095200
C        -0.99199829031960   -0.71914206111513   -3.32456188738394
C        -0.99183438026198    0.72202622991053   -3.31887069327104
C         0.37914177569885    1.16697819947289   -3.31847804916542
C         1.22675033072593    0.00117675551896   -3.31888401045467
C         0.37979996780664   -1.16486262710997   -3.32457175074975
Cl       -1.95844334948430    0.05927862269536    5.27140325741604
Cl        1.61844643842168   -1.10447967097226    5.27218375537548
62
 energy: -137.537328650321 gnorm: 0.023238408434 xtb: 6.4.1 (a3dbbd7)
C        -1.30574567524732   -0.00458606564022    3.54730347324724
C        -0.38001596891742   -1.17390097541205    3.31203489057306
C         1.05825779751272   -0.77023765268250    3.54846129382337
C         0.96447577514047    0.71261404934662    3.26983779916942
C        -0.36214043016232    1.14318151017025    3.27112209306888