 Entering Gaussian System, Link 0=g16
 Input=dihept.gjf
 Output=dihept.log
 Initial command:
 /home/mkliu/g16/l1.exe "/data/scratch/Gau-180035.inp" -scrdir="/data/scratch/"
 Entering Link 1 = /home/mkliu/g16/l1.exe PID=    180036.
  
 Copyright (c) 1988,1990,1992,1993,1995,1998,2003,2009,2016,
            Gaussian, Inc.  All Rights Reserved.
  
 This is part of the Gaussian(R) 16 program.  It is based on
 the Gaussian(R) 09 system (copyright 2009, Gaussian, Inc.),
 the Gaussian(R) 03 system (copyright 2003, Gaussian, Inc.),
 the Gaussian(R) 98 system (copyright 1998, Gaussian, Inc.),
 the Gaussian(R) 94 system (copyright 1995, Gaussian, Inc.),
 the Gaussian 92(TM) system (copyright 1992, Gaussian, Inc.),
 the Gaussian 90(TM) system (copyright 1990, Gaussian, Inc.),
 the Gaussian 88(TM) system (copyright 1988, Gaussian, Inc.),
 the Gaussian 86(TM) system (copyright 1986, Carnegie Mellon
 University), and the Gaussian 82(TM) system (copyright 1983,
 Carnegie Mellon University). Gaussian is a federally registered
 trademark of Gaussian, Inc.
  
 This software contains proprietary and confidential information,
 including trade secrets, belonging to Gaussian, Inc.
  
 This software is provided under written license and may be
 used, copied, transmitted, or stored only in accord with that
 written license.
  
 The following legend is applicable only to US Government
 contracts under FAR:
  
                    RESTRICTED RIGHTS LEGEND
  
 Use, reproduction and disclosure by the US Government is
 subject to restrictions as set forth in subparagraphs (a)
 and (c) of the Commercial Computer Software - Restricted
 Rights clause in FAR 52.227-19.
  
 Gaussian, Inc.
 340 Quinnipiac St., Bldg. 40, Wallingford CT 06492
  
  
 ---------------------------------------------------------------
 Warning -- This program may not be used in any manner that
 competes with the business of Gaussian, Inc. or will provide
 assistance to any competitor of Gaussian, Inc.  The licensee
 of this program is prohibited from giving any competitor of
 Gaussian, Inc. access to this program.  By using this program,
 the user acknowledges that Gaussian, Inc. is engaged in the
 business of creating and licensing software in the field of
 computational chemistry and represents and warrants to the
 licensee that it is not a competitor of Gaussian, Inc. and that
 it will not use this program in any manner prohibited above.
 ---------------------------------------------------------------
  

 Cite this work as:
 Gaussian 16, Revision A.03,
 M. J. Frisch, G. W. Trucks, H. B. Schlegel, G. E. Scuseria, 
 M. A. Robb, J. R. Cheeseman, G. Scalmani, V. Barone, 
 G. A. Petersson, H. Nakatsuji, X. Li, M. Caricato, A. V. Marenich, 
 J. Bloino, B. G. Janesko, R. Gomperts, B. Mennucci, H. P. Hratchian, 
 J. V. Ortiz, A. F. Izmaylov, J. L. Sonnenberg, D. Williams-Young, 
 F. Ding, F. Lipparini, F. Egidi, J. Goings, B. Peng, A. Petrone, 
 T. Henderson, D. Ranasinghe, V. G. Zakrzewski, J. Gao, N. Rega, 
 G. Zheng, W. Liang, M. Hada, M. Ehara, K. Toyota, R. Fukuda, 
 J. Hasegawa, M. Ishida, T. Nakajima, Y. Honda, O. Kitao, H. Nakai, 
 T. Vreven, K. Throssell, J. A. Montgomery, Jr., J. E. Peralta, 
 F. Ogliaro, M. J. Bearpark, J. J. Heyd, E. N. Brothers, K. N. Kudin, 
 V. N. Staroverov, T. A. Keith, R. Kobayashi, J. Normand, 
 K. Raghavachari, A. P. Rendell, J. C. Burant, S. S. Iyengar, 
 J. Tomasi, M. Cossi, J. M. Millam, M. Klene, C. Adamo, R. Cammi, 
 J. W. Ochterski, R. L. Martin, K. Morokuma, O. Farkas, 
 J. B. Foresman, and D. J. Fox, Gaussian, Inc., Wallingford CT, 2016.
 
 ******************************************
 Gaussian 16:  ES64L-G16RevA.03 25-Dec-2016
                21-Jul-2022 
 ******************************************
 %mem=10GB
 %chk=dihept.chk
 %nprocshared=48
 Will use up to   48 processors via shared memory.
 -------------------------------------------------
 #P opt b3lyp/6-311G(d, p) empiricaldispersion=GD3
 -------------------------------------------------
 1/18=20,19=15,26=3,38=1/1,3;
 2/9=110,12=2,17=6,18=5,40=1/2;
 3/5=4,6=6,7=101,11=2,25=1,30=1,71=1,74=-5,124=31/1,2,3;
 4//1;
 5/5=2,38=5/2;
 6/7=2,8=2,9=2,10=2,28=1/1;
 7//1,2,3,16;
 1/18=20,19=15,26=3/3(2);
 2/9=110/2;
 99//99;
 2/9=110/2;
 3/5=4,6=6,7=101,11=2,25=1,30=1,71=1,74=-5,124=31/1,2,3;
 4/5=5,16=3,69=1/1;
 5/5=2,38=5/2;
 7//1,2,3,16;
 1/18=20,19=15,26=3/3(-5);
 2/9=110/2;
 6/7=2,8=2,9=2,10=2,19=2,28=1/1;
 99/9=1/99;
 Leave Link    1 at Thu Jul 21 22:49:53 2022, MaxMem=  1342177280 cpu:               3.0 elap:               0.1
 (Enter /home/mkliu/g16/l101.exe)
 -----
 force
 -----
 Symbolic Z-matrix:
 Charge =  0 Multiplicity = 1
 C                     12.81376   12.09166   21.88628 
 C                     12.82329   13.03548   22.90244 
 C                     12.71075   14.43348   22.57517 
 C                     12.64494   14.84566   21.24903 
 C                     13.51358   15.17456   23.4888 
 C                     14.13804   14.24914   24.39863 
 C                     15.72959   17.0797   18.88605 
 C                     13.75023   12.91808   24.00105 
 C                     15.42309   14.50031   24.85568 
 C                     16.88368   16.77443   18.11948 
 C                     16.08998   15.72172   24.49028 
 C                     15.47974   16.59918   23.59893 
 C                     14.20687   16.28748   23.02647 
 C                     19.23924   14.06413   22.59341 
 C                     16.24719   17.29087   22.60531 
 C                     19.19855   15.45347   22.57984 
 C                     19.29647   16.13917   21.32634 
 C                     17.43935   11.61138   19.3016 
 C                     17.69267   11.34963   20.72008 
 C                     18.48011   12.0765   21.61613 
 C                     18.04344   16.92272   18.92896 
 C                     17.60698   17.48711   20.17816 
 C                     16.14812   17.53255   20.18274 
 C                     15.47444   17.3746   21.38861 
 C                     14.20442   16.68751   21.63319 
 C                     13.41701   15.96065   20.73709 
 C                     13.6537   15.69394   19.31668 
 C                     14.67869   16.17619   18.51055 
 C                     15.24041   15.30255   17.48504 
 C                     16.63402   15.62168   17.32502 
 C                     17.58467   14.59659   17.3212 
 C                     17.16195   13.2303   17.4774 
 C                     18.75573   14.75548   18.11211 
 C                     15.81658   12.92695   17.36629 
 C                     14.83607   13.98437   17.37021 
 C                     13.7075   13.52537   18.12299 
 C                     18.976    13.57868   18.87312 
 C                     13.10459   14.38992   19.02911 
 C                     12.51203   13.85975   20.22174 
 C                     17.99442   12.60034   18.49736 
 C                     12.60458   12.50437   20.52394 
 C                     13.38922   11.6509   19.67066 
 C                     13.92436   12.15145   18.49546 
 C                     15.27663   11.83319   18.11675 
 C                     19.26005   13.2921   21.37354 
 C                     19.4639   13.95673   20.1695 
 C                     16.09661   11.16324   19.0172 
 C                     19.52852   15.41491   20.17053 
 C                     15.52766   10.60756   20.20973 
 C                     18.99406   15.89757   18.92514 
 C                     16.52458   10.66172   21.23357 
 C                     16.12344   10.75314   22.56157 
 C                     16.92625   11.49423   23.4752 
 C                     18.08653   12.10353   23.01103 
 C                     18.49538   13.34702   23.5869 
 C                     18.31594   17.19661   21.33026 
 C                     17.62944   17.14565   22.58613 
 C                     18.24507   16.13985   23.41236 
 C                     17.49376   15.43974   24.34157 
 C                     17.6697   14.01812   24.48401 
 C                     16.40288   13.4437   24.85176 
 C                     16.05388   12.18304   24.39097 
 C                     14.69596   11.8982   23.99729 
 C                     14.73908   10.96939   22.8948 
 C                     13.79352   11.03507   21.88238 
 C                     14.18426   10.80078   20.51764 
 
 ITRead=  0  0  0  0  0  0  0  0  0  0  0  0  0  0  0  0  0  0  0  0
 ITRead=  0  0  0  0  0  0  0  0  0  0  0  0  0  0  0  0  0  0  0  0
 ITRead=  0  0  0  0  0  0  0  0  0  0  0  0  0  0  0  0  0  0  0  0
 ITRead=  0  0  0  0  0  0
 MicOpt= -1 -1 -1 -1 -1 -1 -1 -1 -1 -1 -1 -1 -1 -1 -1 -1 -1 -1 -1 -1
 MicOpt= -1 -1 -1 -1 -1 -1 -1 -1 -1 -1 -1 -1 -1 -1 -1 -1 -1 -1 -1 -1
 MicOpt= -1 -1 -1 -1 -1 -1 -1 -1 -1 -1 -1 -1 -1 -1 -1 -1 -1 -1 -1 -1
 MicOpt= -1 -1 -1 -1 -1 -1
 NAtoms=     66 NQM=       66 NQMF=       0 NMMI=      0 NMMIF=      0
                NMic=       0 NMicF=      0.
                    Isotopes and Nuclear Properties:
 (Nuclear quadrupole moments (NQMom) in fm**2, nuclear magnetic moments (NMagM)
  in nuclear magnetons)

  Atom         1           2           3           4           5           6           7           8           9          10
 IAtWgt=          12          12          12          12          12          12          12          12          12          12
 AtmWgt=  12.0000000  12.0000000  12.0000000  12.0000000  12.0000000  12.0000000  12.0000000  12.0000000  12.0000000  12.0000000
 NucSpn=           0           0           0           0           0           0           0           0           0           0
 AtZEff=  -0.0000000  -0.0000000  -0.0000000  -0.0000000  -0.0000000  -0.0000000  -0.0000000  -0.0000000  -0.0000000  -0.0000000
 NQMom=    0.0000000   0.0000000   0.0000000   0.0000000   0.0000000   0.0000000   0.0000000   0.0000000   0.0000000   0.0000000
 NMagM=    0.0000000   0.0000000   0.0000000   0.0000000   0.0000000   0.0000000   0.0000000   0.0000000   0.0000000   0.0000000
 AtZNuc=   6.0000000   6.0000000   6.0000000   6.0000000   6.0000000   6.0000000   6.0000000   6.0000000   6.0000000   6.0000000

  Atom        11          12          13          14          15          16          17          18          19          20
 IAtWgt=          12          12          12          12          12          12          12          12          12          12
 AtmWgt=  12.0000000  12.0000000  12.0000000  12.0000000  12.0000000  12.0000000  12.0000000  12.0000000  12.0000000  12.0000000
 NucSpn=           0           0           0           0           0           0           0           0           0           0
 AtZEff=  -0.0000000  -0.0000000  -0.0000000  -0.0000000  -0.0000000  -0.0000000  -0.0000000  -0.0000000  -0.0000000  -0.0000000
 NQMom=    0.0000000   0.0000000   0.0000000   0.0000000   0.0000000   0.0000000   0.0000000   0.0000000   0.0000000   0.0000000
 NMagM=    0.0000000   0.0000000   0.0000000   0.0000000   0.0000000   0.0000000   0.0000000   0.0000000   0.0000000   0.0000000
 AtZNuc=   6.0000000   6.0000000   6.0000000   6.0000000   6.0000000   6.0000000   6.0000000   6.0000000   6.0000000   6.0000000

  Atom        21          22          23          24          25          26          27          28          29          30
 IAtWgt=          12          12          12          12          12          12          12          12          12          12
 AtmWgt=  12.0000000  12.0000000  12.0000000  12.0000000  12.0000000  12.0000000  12.0000000  12.0000000  12.0000000  12.0000000
 NucSpn=           0           0           0           0           0           0           0           0           0           0
 AtZEff=  -0.0000000  -0.0000000  -0.0000000  -0.0000000  -0.0000000  -0.0000000  -0.0000000  -0.0000000  -0.0000000  -0.0000000
 NQMom=    0.0000000   0.0000000   0.0000000   0.0000000   0.0000000   0.0000000   0.0000000   0.0000000   0.0000000   0.0000000
 NMagM=    0.0000000   0.0000000   0.0000000   0.0000000   0.0000000   0.0000000   0.0000000   0.0000000   0.0000000   0.0000000
 AtZNuc=   6.0000000   6.0000000   6.0000000   6.0000000   6.0000000   6.0000000   6.0000000   6.0000000   6.0000000   6.0000000

  Atom        31          32          33          34          35          36          37          38          39          40
 IAtWgt=          12          12          12          12          12          12          12          12          12          12
 AtmWgt=  12.0000000  12.0000000  12.0000000  12.0000000  12.0000000  12.0000000  12.0000000  12.0000000  12.0000000  12.0000000
 NucSpn=           0           0           0           0           0           0           0           0           0           0
 AtZEff=  -0.0000000  -0.0000000  -0.0000000  -0.0000000  -0.0000000  -0.0000000  -0.0000000  -0.0000000  -0.0000000  -0.0000000
 NQMom=    0.0000000   0.0000000   0.0000000   0.0000000   0.0000000   0.0000000   0.0000000   0.0000000   0.0000000   0.0000000
 NMagM=    0.0000000   0.0000000   0.0000000   0.0000000   0.0000000   0.0000000   0.0000000   0.0000000   0.0000000   0.0000000
 AtZNuc=   6.0000000   6.0000000   6.0000000   6.0000000   6.0000000   6.0000000   6.0000000   6.0000000   6.0000000   6.0000000

  Atom        41          42          43          44          45          46          47          48          49          50
 IAtWgt=          12          12          12          12          12          12          12          12          12          12
 AtmWgt=  12.0000000  12.0000000  12.0000000  12.0000000  12.0000000  12.0000000  12.0000000  12.0000000  12.0000000  12.0000000
 NucSpn=           0           0           0           0           0           0           0           0           0           0
 AtZEff=  -0.0000000  -0.0000000  -0.0000000  -0.0000000  -0.0000000  -0.0000000  -0.0000000  -0.0000000  -0.0000000  -0.0000000
 NQMom=    0.0000000   0.0000000   0.0000000   0.0000000   0.0000000   0.0000000   0.0000000   0.0000000   0.0000000   0.0000000
 NMagM=    0.0000000   0.0000000   0.0000000   0.0000000   0.0000000   0.0000000   0.0000000   0.0000000   0.0000000   0.0000000
 AtZNuc=   6.0000000   6.0000000   6.0000000   6.0000000   6.0000000   6.0000000   6.0000000   6.0000000   6.0000000   6.0000000

  Atom        51          52          53          54          55          56          57          58          59          60
 IAtWgt=          12          12          12          12          12          12          12          12          12          12
 AtmWgt=  12.0000000  12.0000000  12.0000000  12.0000000  12.0000000  12.0000000  12.0000000  12.0000000  12.0000000  12.0000000
 NucSpn=           0           0           0           0           0           0           0           0           0           0
 AtZEff=  -0.0000000  -0.0000000  -0.0000000  -0.0000000  -0.0000000  -0.0000000  -0.0000000  -0.0000000  -0.0000000  -0.0000000
 NQMom=    0.0000000   0.0000000   0.0000000   0.0000000   0.0000000   0.0000000   0.0000000   0.0000000   0.0000000   0.0000000
 NMagM=    0.0000000   0.0000000   0.0000000   0.0000000   0.0000000   0.0000000   0.0000000   0.0000000   0.0000000   0.0000000
 AtZNuc=   6.0000000   6.0000000   6.0000000   6.0000000   6.0000000   6.0000000   6.0000000   6.0000000   6.0000000   6.0000000

  Atom        61          62          63          64          65          66
 IAtWgt=          12          12          12          12          12          12
 AtmWgt=  12.0000000  12.0000000  12.0000000  12.0000000  12.0000000  12.0000000
 NucSpn=           0           0           0           0           0           0
 AtZEff=  -0.0000000  -0.0000000  -0.0000000  -0.0000000  -0.0000000  -0.0000000
 NQMom=    0.0000000   0.0000000   0.0000000   0.0000000   0.0000000   0.0000000
 NMagM=    0.0000000   0.0000000   0.0000000   0.0000000   0.0000000   0.0000000
 AtZNuc=   6.0000000   6.0000000   6.0000000   6.0000000   6.0000000   6.0000000
 Leave Link  101 at Thu Jul 21 22:49:54 2022, MaxMem=  1342177280 cpu:              29.5 elap:               0.6
 (Enter /home/mkliu/g16/l103.exe)

 GradGradGradGradGradGradGradGradGradGradGradGradGradGradGradGradGradGrad
 Berny optimization.
 Initialization pass.
                           ----------------------------
                           !    Initial Parameters    !
                           ! (Angstroms and Degrees)  !
 --------------------------                            --------------------------
 ! Name  Definition              Value          Derivative Info.                !
 --------------------------------------------------------------------------------
 ! R1    R(1,2)                  1.3869         estimate D2E/DX2                !
 ! R2    R(1,41)                 1.4388         estimate D2E/DX2                !
 ! R3    R(1,65)                 1.4409         estimate D2E/DX2                !
 ! R4    R(2,3)                  1.4402         estimate D2E/DX2                !
 ! R5    R(2,8)                  1.4422         estimate D2E/DX2                !
 ! R6    R(3,4)                  1.3903         estimate D2E/DX2                !
 ! R7    R(3,5)                  1.4242         estimate D2E/DX2                !
 ! R8    R(4,26)                 1.4496         estimate D2E/DX2                !
 ! R9    R(4,39)                 1.43           estimate D2E/DX2                !
 ! R10   R(5,6)                  1.4402         estimate D2E/DX2                !
 ! R11   R(5,13)                 1.3903         estimate D2E/DX2                !
 ! R12   R(6,8)                  1.4423         estimate D2E/DX2                !
 ! R13   R(6,9)                  1.3869         estimate D2E/DX2                !
 ! R14   R(7,10)                 1.4187         estimate D2E/DX2                !
 ! R15   R(7,23)                 1.4358         estimate D2E/DX2                !
 ! R16   R(7,28)                 1.4359         estimate D2E/DX2                !
 ! R17   R(8,63)                 1.3909         estimate D2E/DX2                !
 ! R18   R(9,11)                 1.4388         estimate D2E/DX2                !
 ! R19   R(9,61)                 1.441          estimate D2E/DX2                !
 ! R20   R(10,21)                1.4221         estimate D2E/DX2                !
 ! R21   R(10,30)                1.4221         estimate D2E/DX2                !
 ! R22   R(11,12)                1.3917         estimate D2E/DX2                !
 ! R23   R(11,59)                1.4395         estimate D2E/DX2                !
 ! R24   R(12,13)                1.4301         estimate D2E/DX2                !
 ! R25   R(12,15)                1.4334         estimate D2E/DX2                !
 ! R26   R(13,25)                1.4496         estimate D2E/DX2                !
 ! R27   R(14,16)                1.39           estimate D2E/DX2                !
 ! R28   R(14,45)                1.4438         estimate D2E/DX2                !
 ! R29   R(14,55)                1.4334         estimate D2E/DX2                !
 ! R30   R(15,24)                1.4438         estimate D2E/DX2                !
 ! R31   R(15,57)                1.39           estimate D2E/DX2                !
 ! R32   R(16,17)                1.4321         estimate D2E/DX2                !
 ! R33   R(16,58)                1.4399         estimate D2E/DX2                !
 ! R34   R(17,48)                1.3836         estimate D2E/DX2                !
 ! R35   R(17,56)                1.4421         estimate D2E/DX2                !
 ! R36   R(18,19)                1.4645         estimate D2E/DX2                !
 ! R37   R(18,40)                1.3903         estimate D2E/DX2                !
 ! R38   R(18,47)                1.4438         estimate D2E/DX2                !
 ! R39   R(19,20)                1.3969         estimate D2E/DX2                !
 ! R40   R(19,51)                1.4496         estimate D2E/DX2                !
 ! R41   R(20,45)                1.4645         estimate D2E/DX2                !
 ! R42   R(20,54)                1.4496         estimate D2E/DX2                !
 ! R43   R(21,22)                1.4386         estimate D2E/DX2                !
 ! R44   R(21,50)                1.3981         estimate D2E/DX2                !
 ! R45   R(22,23)                1.4596         estimate D2E/DX2                !
 ! R46   R(22,56)                1.3836         estimate D2E/DX2                !
 ! R47   R(23,24)                1.3903         estimate D2E/DX2                !
 ! R48   R(24,25)                1.4645         estimate D2E/DX2                !
 ! R49   R(25,26)                1.3969         estimate D2E/DX2                !
 ! R50   R(26,27)                1.4645         estimate D2E/DX2                !
 ! R51   R(27,28)                1.3903         estimate D2E/DX2                !
 ! R52   R(27,38)                1.4438         estimate D2E/DX2                !
 ! R53   R(28,29)                1.4596         estimate D2E/DX2                !
 ! R54   R(29,30)                1.4386         estimate D2E/DX2                !
 ! R55   R(29,35)                1.3836         estimate D2E/DX2                !
 ! R56   R(30,31)                1.3981         estimate D2E/DX2                !
 ! R57   R(31,32)                1.4387         estimate D2E/DX2                !
 ! R58   R(31,33)                1.422          estimate D2E/DX2                !
 ! R59   R(32,34)                1.3836         estimate D2E/DX2                !
 ! R60   R(32,40)                1.4595         estimate D2E/DX2                !
 ! R61   R(33,37)                1.4186         estimate D2E/DX2                !
 ! R62   R(33,50)                1.422          estimate D2E/DX2                !
 ! R63   R(34,35)                1.4421         estimate D2E/DX2                !
 ! R64   R(34,44)                1.4322         estimate D2E/DX2                !
 ! R65   R(35,36)                1.4321         estimate D2E/DX2                !
 ! R66   R(36,38)                1.39           estimate D2E/DX2                !
 ! R67   R(36,43)                1.4399         estimate D2E/DX2                !
 ! R68   R(37,40)                1.4359         estimate D2E/DX2                !
 ! R69   R(37,46)                1.4358         estimate D2E/DX2                !
 ! R70   R(38,39)                1.4334         estimate D2E/DX2                !
 ! R71   R(39,41)                1.3917         estimate D2E/DX2                !
 ! R72   R(41,42)                1.4395         estimate D2E/DX2                !
 ! R73   R(42,43)                1.3849         estimate D2E/DX2                !
 ! R74   R(42,66)                1.4395         estimate D2E/DX2                !
 ! R75   R(43,44)                1.4399         estimate D2E/DX2                !
 ! R76   R(44,47)                1.39           estimate D2E/DX2                !
 ! R77   R(45,46)                1.3903         estimate D2E/DX2                !
 ! R78   R(46,48)                1.4596         estimate D2E/DX2                !
 ! R79   R(47,49)                1.4334         estimate D2E/DX2                !
 ! R80   R(48,50)                1.4386         estimate D2E/DX2                !
 ! R81   R(49,51)                1.43           estimate D2E/DX2                !
 ! R82   R(49,66)                1.3917         estimate D2E/DX2                !
 ! R83   R(51,52)                1.3903         estimate D2E/DX2                !
 ! R84   R(52,53)                1.4242         estimate D2E/DX2                !
 ! R85   R(52,64)                1.4402         estimate D2E/DX2                !
 ! R86   R(53,54)                1.3903         estimate D2E/DX2                !
 ! R87   R(53,62)                1.4402         estimate D2E/DX2                !
 ! R88   R(54,55)                1.4301         estimate D2E/DX2                !
 ! R89   R(55,60)                1.3917         estimate D2E/DX2                !
 ! R90   R(56,57)                1.4322         estimate D2E/DX2                !
 ! R91   R(57,58)                1.4399         estimate D2E/DX2                !
 ! R92   R(58,59)                1.3849         estimate D2E/DX2                !
 ! R93   R(59,60)                1.4395         estimate D2E/DX2                !
 ! R94   R(60,61)                1.4388         estimate D2E/DX2                !
 ! R95   R(61,62)                1.3869         estimate D2E/DX2                !
 ! R96   R(62,63)                1.4423         estimate D2E/DX2                !
 ! R97   R(63,64)                1.4422         estimate D2E/DX2                !
 ! R98   R(64,65)                1.3869         estimate D2E/DX2                !
 ! R99   R(65,66)                1.4388         estimate D2E/DX2                !
 ! A1    A(2,1,41)             119.9707         estimate D2E/DX2                !
 ! A2    A(2,1,65)             119.7565         estimate D2E/DX2                !
 ! A3    A(41,1,65)            107.8558         estimate D2E/DX2                !
 ! A4    A(1,2,3)              119.575          estimate D2E/DX2                !
 ! A5    A(1,2,8)              120.4742         estimate D2E/DX2                !
 ! A6    A(3,2,8)              107.5986         estimate D2E/DX2                !
 ! A7    A(2,3,4)              120.5463         estimate D2E/DX2                !
 ! A8    A(2,3,5)              108.3772         estimate D2E/DX2                !
 ! A9    A(4,3,5)              118.9672         estimate D2E/DX2                !
 ! A10   A(3,4,26)             122.6627         estimate D2E/DX2                !
 ! A11   A(3,4,39)             119.0278         estimate D2E/DX2                !
 ! A12   A(26,4,39)            109.0312         estimate D2E/DX2                !
 ! A13   A(3,5,6)              108.3798         estimate D2E/DX2                !
 ! A14   A(3,5,13)             118.9662         estimate D2E/DX2                !
 ! A15   A(6,5,13)             120.5455         estimate D2E/DX2                !
 ! A16   A(5,6,8)              107.5951         estimate D2E/DX2                !
 ! A17   A(5,6,9)              119.577          estimate D2E/DX2                !
 ! A18   A(8,6,9)              120.4732         estimate D2E/DX2                !
 ! A19   A(10,7,23)            108.5848         estimate D2E/DX2                !
 ! A20   A(10,7,28)            108.5826         estimate D2E/DX2                !
 ! A21   A(23,7,28)            130.3886         estimate D2E/DX2                !
 ! A22   A(2,8,6)              107.919          estimate D2E/DX2                !
 ! A23   A(2,8,63)             119.6465         estimate D2E/DX2                !
 ! A24   A(6,8,63)             119.6455         estimate D2E/DX2                !
 ! A25   A(6,9,11)             119.9691         estimate D2E/DX2                !
 ! A26   A(6,9,61)             119.7585         estimate D2E/DX2                !
 ! A27   A(11,9,61)            107.8558         estimate D2E/DX2                !
 ! A28   A(7,10,21)            109.4765         estimate D2E/DX2                !
 ! A29   A(7,10,30)            109.4793         estimate D2E/DX2                !
 ! A30   A(21,10,30)           123.0727         estimate D2E/DX2                !
 ! A31   A(9,11,12)            119.647          estimate D2E/DX2                !
 ! A32   A(9,11,59)            108.1766         estimate D2E/DX2                !
 ! A33   A(12,11,59)           119.0083         estimate D2E/DX2                !
 ! A34   A(11,12,13)           120.6139         estimate D2E/DX2                !
 ! A35   A(11,12,15)           120.8932         estimate D2E/DX2                !
 ! A36   A(13,12,15)           107.7126         estimate D2E/DX2                !
 ! A37   A(5,13,12)            119.026          estimate D2E/DX2                !
 ! A38   A(5,13,25)            122.6617         estimate D2E/DX2                !
 ! A39   A(12,13,25)           109.0333         estimate D2E/DX2                !
 ! A40   A(16,14,45)           121.7794         estimate D2E/DX2                !
 ! A41   A(16,14,55)           119.4475         estimate D2E/DX2                !
 ! A42   A(45,14,55)           109.0001         estimate D2E/DX2                !
 ! A43   A(12,15,24)           109.0005         estimate D2E/DX2                !
 ! A44   A(12,15,57)           119.444          estimate D2E/DX2                !
 ! A45   A(24,15,57)           121.7808         estimate D2E/DX2                !
 ! A46   A(14,16,17)           119.0192         estimate D2E/DX2                !
 ! A47   A(14,16,58)           119.3538         estimate D2E/DX2                !
 ! A48   A(17,16,58)           108.8504         estimate D2E/DX2                !
 ! A49   A(16,17,48)           119.4728         estimate D2E/DX2                !
 ! A50   A(16,17,56)           107.5906         estimate D2E/DX2                !
 ! A51   A(48,17,56)           120.0096         estimate D2E/DX2                !
 ! A52   A(19,18,40)           128.1963         estimate D2E/DX2                !
 ! A53   A(19,18,47)           107.2278         estimate D2E/DX2                !
 ! A54   A(40,18,47)           118.5635         estimate D2E/DX2                !
 ! A55   A(18,19,20)           128.7416         estimate D2E/DX2                !
 ! A56   A(18,19,51)           106.7704         estimate D2E/DX2                !
 ! A57   A(20,19,51)           118.2904         estimate D2E/DX2                !
 ! A58   A(19,20,45)           128.7449         estimate D2E/DX2                !
 ! A59   A(19,20,54)           118.2882         estimate D2E/DX2                !
 ! A60   A(45,20,54)           106.7684         estimate D2E/DX2                !
 ! A61   A(10,21,22)           106.7237         estimate D2E/DX2                !
 ! A62   A(10,21,50)           118.4579         estimate D2E/DX2                !
 ! A63   A(22,21,50)           119.7585         estimate D2E/DX2                !
 ! A64   A(21,22,23)           108.5534         estimate D2E/DX2                !
 ! A65   A(21,22,56)           119.0268         estimate D2E/DX2                !
 ! A66   A(23,22,56)           121.0696         estimate D2E/DX2                !
 ! A67   A(7,23,22)            106.1824         estimate D2E/DX2                !
 ! A68   A(7,23,24)            127.3164         estimate D2E/DX2                !
 ! A69   A(22,23,24)           118.9145         estimate D2E/DX2                !
 ! A70   A(15,24,23)           118.5659         estimate D2E/DX2                !
 ! A71   A(15,24,25)           107.2293         estimate D2E/DX2                !
 ! A72   A(23,24,25)           128.1958         estimate D2E/DX2                !
 ! A73   A(13,25,24)           106.7693         estimate D2E/DX2                !
 ! A74   A(13,25,26)           118.2904         estimate D2E/DX2                !
 ! A75   A(24,25,26)           128.7411         estimate D2E/DX2                !
 ! A76   A(4,26,25)            118.2872         estimate D2E/DX2                !
 ! A77   A(4,26,27)            106.7703         estimate D2E/DX2                !
 ! A78   A(25,26,27)           128.744          estimate D2E/DX2                !
 ! A79   A(26,27,28)           128.1954         estimate D2E/DX2                !
 ! A80   A(26,27,38)           107.2287         estimate D2E/DX2                !
 ! A81   A(28,27,38)           118.5658         estimate D2E/DX2                !
 ! A82   A(7,28,27)            127.315          estimate D2E/DX2                !
 ! A83   A(7,28,29)            106.1834         estimate D2E/DX2                !
 ! A84   A(27,28,29)           118.9125         estimate D2E/DX2                !
 ! A85   A(28,29,30)           108.5528         estimate D2E/DX2                !
 ! A86   A(28,29,35)           121.0714         estimate D2E/DX2                !
 ! A87   A(30,29,35)           119.0268         estimate D2E/DX2                !
 ! A88   A(10,30,29)           106.723          estimate D2E/DX2                !
 ! A89   A(10,30,31)           118.4572         estimate D2E/DX2                !
 ! A90   A(29,30,31)           119.7595         estimate D2E/DX2                !
 ! A91   A(30,31,32)           119.751          estimate D2E/DX2                !
 ! A92   A(30,31,33)           118.4588         estimate D2E/DX2                !
 ! A93   A(32,31,33)           106.7203         estimate D2E/DX2                !
 ! A94   A(31,32,34)           119.0253         estimate D2E/DX2                !
 ! A95   A(31,32,40)           108.553          estimate D2E/DX2                !
 ! A96   A(34,32,40)           121.0709         estimate D2E/DX2                !
 ! A97   A(31,33,37)           109.4831         estimate D2E/DX2                !
 ! A98   A(31,33,50)           123.0758         estimate D2E/DX2                !
 ! A99   A(37,33,50)           109.4815         estimate D2E/DX2                !
 ! A100  A(32,34,35)           120.0104         estimate D2E/DX2                !
 ! A101  A(32,34,44)           119.4695         estimate D2E/DX2                !
 ! A102  A(35,34,44)           107.5921         estimate D2E/DX2                !
 ! A103  A(29,35,34)           120.0086         estimate D2E/DX2                !
 ! A104  A(29,35,36)           119.4733         estimate D2E/DX2                !
 ! A105  A(34,35,36)           107.5916         estimate D2E/DX2                !
 ! A106  A(35,36,38)           119.0213         estimate D2E/DX2                !
 ! A107  A(35,36,43)           108.8502         estimate D2E/DX2                !
 ! A108  A(38,36,43)           119.3516         estimate D2E/DX2                !
 ! A109  A(33,37,40)           108.5827         estimate D2E/DX2                !
 ! A110  A(33,37,46)           108.5836         estimate D2E/DX2                !
 ! A111  A(40,37,46)           130.3883         estimate D2E/DX2                !
 ! A112  A(27,38,36)           121.778          estimate D2E/DX2                !
 ! A113  A(27,38,39)           108.9993         estimate D2E/DX2                !
 ! A114  A(36,38,39)           119.4504         estimate D2E/DX2                !
 ! A115  A(4,39,38)            107.7156         estimate D2E/DX2                !
 ! A116  A(4,39,41)            120.6139         estimate D2E/DX2                !
 ! A117  A(38,39,41)           120.8897         estimate D2E/DX2                !
 ! A118  A(18,40,32)           118.9178         estimate D2E/DX2                !
 ! A119  A(18,40,37)           127.3151         estimate D2E/DX2                !
 ! A120  A(32,40,37)           106.1828         estimate D2E/DX2                !
 ! A121  A(1,41,39)            119.6449         estimate D2E/DX2                !
 ! A122  A(1,41,42)            108.1772         estimate D2E/DX2                !
 ! A123  A(39,41,42)           119.0082         estimate D2E/DX2                !
 ! A124  A(41,42,43)           119.9557         estimate D2E/DX2                !
 ! A125  A(41,42,66)           107.603          estimate D2E/DX2                !
 ! A126  A(43,42,66)           119.9553         estimate D2E/DX2                !
 ! A127  A(36,43,42)           120.409          estimate D2E/DX2                !
 ! A128  A(36,43,44)           106.5165         estimate D2E/DX2                !
 ! A129  A(42,43,44)           120.4095         estimate D2E/DX2                !
 ! A130  A(34,44,43)           108.8497         estimate D2E/DX2                !
 ! A131  A(34,44,47)           119.0227         estimate D2E/DX2                !
 ! A132  A(43,44,47)           119.3516         estimate D2E/DX2                !
 ! A133  A(14,45,20)           107.2301         estimate D2E/DX2                !
 ! A134  A(14,45,46)           118.5674         estimate D2E/DX2                !
 ! A135  A(20,45,46)           128.1935         estimate D2E/DX2                !
 ! A136  A(37,46,45)           127.3168         estimate D2E/DX2                !
 ! A137  A(37,46,48)           106.1841         estimate D2E/DX2                !
 ! A138  A(45,46,48)           118.9108         estimate D2E/DX2                !
 ! A139  A(18,47,44)           121.7776         estimate D2E/DX2                !
 ! A140  A(18,47,49)           109.0009         estimate D2E/DX2                !
 ! A141  A(44,47,49)           119.4496         estimate D2E/DX2                !
 ! A142  A(17,48,46)           121.0722         estimate D2E/DX2                !
 ! A143  A(17,48,50)           119.0286         estimate D2E/DX2                !
 ! A144  A(46,48,50)           108.5491         estimate D2E/DX2                !
 ! A145  A(47,49,51)           107.7134         estimate D2E/DX2                !
 ! A146  A(47,49,66)           120.8899         estimate D2E/DX2                !
 ! A147  A(51,49,66)           120.6149         estimate D2E/DX2                !
 ! A148  A(21,50,33)           118.4577         estimate D2E/DX2                !
 ! A149  A(21,50,48)           119.7522         estimate D2E/DX2                !
 ! A150  A(33,50,48)           106.7235         estimate D2E/DX2                !
 ! A151  A(19,51,49)           109.0323         estimate D2E/DX2                !
 ! A152  A(19,51,52)           122.6606         estimate D2E/DX2                !
 ! A153  A(49,51,52)           119.0276         estimate D2E/DX2                !
 ! A154  A(51,52,53)           118.9686         estimate D2E/DX2                !
 ! A155  A(51,52,64)           120.5452         estimate D2E/DX2                !
 ! A156  A(53,52,64)           108.3768         estimate D2E/DX2                !
 ! A157  A(52,53,54)           118.9661         estimate D2E/DX2                !
 ! A158  A(52,53,62)           108.3809         estimate D2E/DX2                !
 ! A159  A(54,53,62)           120.5443         estimate D2E/DX2                !
 ! A160  A(20,54,53)           122.6613         estimate D2E/DX2                !
 ! A161  A(20,54,55)           109.0314         estimate D2E/DX2                !
 ! A162  A(53,54,55)           119.0274         estimate D2E/DX2                !
 ! A163  A(14,55,54)           107.7149         estimate D2E/DX2                !
 ! A164  A(14,55,60)           120.8916         estimate D2E/DX2                !
 ! A165  A(54,55,60)           120.6141         estimate D2E/DX2                !
 ! A166  A(17,56,22)           120.0065         estimate D2E/DX2                !
 ! A167  A(17,56,57)           107.591          estimate D2E/DX2                !
 ! A168  A(22,56,57)           119.474          estimate D2E/DX2                !
 ! A169  A(15,57,56)           119.017          estimate D2E/DX2                !
 ! A170  A(15,57,58)           119.3559         estimate D2E/DX2                !
 ! A171  A(56,57,58)           108.8495         estimate D2E/DX2                !
 ! A172  A(16,58,57)           106.5188         estimate D2E/DX2                !
 ! A173  A(16,58,59)           120.409          estimate D2E/DX2                !
 ! A174  A(57,58,59)           120.4087         estimate D2E/DX2                !
 ! A175  A(11,59,58)           119.9543         estimate D2E/DX2                !
 ! A176  A(11,59,60)           107.6023         estimate D2E/DX2                !
 ! A177  A(58,59,60)           119.9548         estimate D2E/DX2                !
 ! A178  A(55,60,59)           119.0078         estimate D2E/DX2                !
 ! A179  A(55,60,61)           119.6448         estimate D2E/DX2                !
 ! A180  A(59,60,61)           108.1773         estimate D2E/DX2                !
 ! A181  A(9,61,60)            107.8565         estimate D2E/DX2                !
 ! A182  A(9,61,62)            119.7574         estimate D2E/DX2                !
 ! A183  A(60,61,62)           119.971          estimate D2E/DX2                !
 ! A184  A(53,62,61)           119.5772         estimate D2E/DX2                !
 ! A185  A(53,62,63)           107.5952         estimate D2E/DX2                !
 ! A186  A(61,62,63)           120.4741         estimate D2E/DX2                !
 ! A187  A(8,63,62)            119.6458         estimate D2E/DX2                !
 ! A188  A(8,63,64)            119.6448         estimate D2E/DX2                !
 ! A189  A(62,63,64)           107.9208         estimate D2E/DX2                !
 ! A190  A(52,64,63)           107.5961         estimate D2E/DX2                !
 ! A191  A(52,64,65)           119.5747         estimate D2E/DX2                !
 ! A192  A(63,64,65)           120.4747         estimate D2E/DX2                !
 ! A193  A(1,65,64)            119.7578         estimate D2E/DX2                !
 ! A194  A(1,65,66)            107.8562         estimate D2E/DX2                !
 ! A195  A(64,65,66)           119.9718         estimate D2E/DX2                !
 ! A196  A(42,66,49)           119.0086         estimate D2E/DX2                !
 ! A197  A(42,66,65)           108.1767         estimate D2E/DX2                !
 ! A198  A(49,66,65)           119.6441         estimate D2E/DX2                !
 ! D1    D(41,1,2,3)            -4.0519         estimate D2E/DX2                !
 ! D2    D(41,1,2,8)          -141.5538         estimate D2E/DX2                !
 ! D3    D(65,1,2,3)           133.4579         estimate D2E/DX2                !
 ! D4    D(65,1,2,8)            -4.044          estimate D2E/DX2                !
 ! D5    D(2,1,41,39)            4.7609         estimate D2E/DX2                !
 ! D6    D(2,1,41,42)          145.4881         estimate D2E/DX2                !
 ! D7    D(65,1,41,39)        -137.209          estimate D2E/DX2                !
 ! D8    D(65,1,41,42)           3.5182         estimate D2E/DX2                !
 ! D9    D(2,1,65,64)            0.0025         estimate D2E/DX2                !
 ! D10   D(2,1,65,66)         -142.0676         estimate D2E/DX2                !
 ! D11   D(41,1,65,64)         142.0684         estimate D2E/DX2                !
 ! D12   D(41,1,65,66)          -0.0017         estimate D2E/DX2                !
 ! D13   D(1,2,3,4)             -2.4959         estimate D2E/DX2                !
 ! D14   D(1,2,3,5)           -144.5531         estimate D2E/DX2                !
 ! D15   D(8,2,3,4)            139.8546         estimate D2E/DX2                !
 ! D16   D(8,2,3,5)             -2.2026         estimate D2E/DX2                !
 ! D17   D(1,2,8,6)            145.5009         estimate D2E/DX2                !
 ! D18   D(1,2,8,63)             4.0394         estimate D2E/DX2                !
 ! D19   D(3,2,8,6)              3.5543         estimate D2E/DX2                !
 ! D20   D(3,2,8,63)          -137.9073         estimate D2E/DX2                !
 ! D21   D(2,3,4,26)          -134.8099         estimate D2E/DX2                !
 ! D22   D(2,3,4,39)             8.1999         estimate D2E/DX2                !
 ! D23   D(5,3,4,26)             3.3577         estimate D2E/DX2                !
 ! D24   D(5,3,4,39)           146.3674         estimate D2E/DX2                !
 ! D25   D(2,3,5,6)             -0.0003         estimate D2E/DX2                !
 ! D26   D(2,3,5,13)           142.7528         estimate D2E/DX2                !
 ! D27   D(4,3,5,6)           -142.7526         estimate D2E/DX2                !
 ! D28   D(4,3,5,13)             0.0004         estimate D2E/DX2                !
 ! D29   D(3,4,26,25)           -3.3366         estimate D2E/DX2                !
 ! D30   D(3,4,26,27)          151.4138         estimate D2E/DX2                !
 ! D31   D(39,4,26,25)        -149.5213         estimate D2E/DX2                !
 ! D32   D(39,4,26,27)           5.2291         estimate D2E/DX2                !
 ! D33   D(3,4,39,38)         -152.0985         estimate D2E/DX2                !
 ! D34   D(3,4,39,41)           -7.4863         estimate D2E/DX2                !
 ! D35   D(26,4,39,38)          -4.4979         estimate D2E/DX2                !
 ! D36   D(26,4,39,41)         140.1143         estimate D2E/DX2                !
 ! D37   D(3,5,6,8)              2.2029         estimate D2E/DX2                !
 ! D38   D(3,5,6,9)            144.5498         estimate D2E/DX2                !
 ! D39   D(13,5,6,8)          -139.855          estimate D2E/DX2                !
 ! D40   D(13,5,6,9)             2.492          estimate D2E/DX2                !
 ! D41   D(3,5,13,12)         -146.3671         estimate D2E/DX2                !
 ! D42   D(3,5,13,25)           -3.3579         estimate D2E/DX2                !
 ! D43   D(6,5,13,12)           -8.1975         estimate D2E/DX2                !
 ! D44   D(6,5,13,25)          134.8116         estimate D2E/DX2                !
 ! D45   D(5,6,8,2)             -3.5543         estimate D2E/DX2                !
 ! D46   D(5,6,8,63)           137.9076         estimate D2E/DX2                !
 ! D47   D(9,6,8,2)           -145.4987         estimate D2E/DX2                !
 ! D48   D(9,6,8,63)            -4.0368         estimate D2E/DX2                !
 ! D49   D(5,6,9,11)             4.0553         estimate D2E/DX2                !
 ! D50   D(5,6,9,61)          -133.455          estimate D2E/DX2                !
 ! D51   D(8,6,9,11)           141.5525         estimate D2E/DX2                !
 ! D52   D(8,6,9,61)             4.0422         estimate D2E/DX2                !
 ! D53   D(23,7,10,21)           4.4427         estimate D2E/DX2                !
 ! D54   D(23,7,10,30)         142.094          estimate D2E/DX2                !
 ! D55   D(28,7,10,21)        -142.0963         estimate D2E/DX2                !
 ! D56   D(28,7,10,30)          -4.445          estimate D2E/DX2                !
 ! D57   D(10,7,23,22)          -0.1811         estimate D2E/DX2                !
 ! D58   D(10,7,23,24)        -148.8561         estimate D2E/DX2                !
 ! D59   D(28,7,23,22)         136.4922         estimate D2E/DX2                !
 ! D60   D(28,7,23,24)         -12.1828         estimate D2E/DX2                !
 ! D61   D(10,7,28,27)         148.8554         estimate D2E/DX2                !
 ! D62   D(10,7,28,29)           0.1853         estimate D2E/DX2                !
 ! D63   D(23,7,28,27)          12.1814         estimate D2E/DX2                !
 ! D64   D(23,7,28,29)        -136.4887         estimate D2E/DX2                !
 ! D65   D(2,8,63,62)          136.991          estimate D2E/DX2                !
 ! D66   D(2,8,63,64)           -0.0021         estimate D2E/DX2                !
 ! D67   D(6,8,63,62)           -0.0008         estimate D2E/DX2                !
 ! D68   D(6,8,63,64)         -136.9939         estimate D2E/DX2                !
 ! D69   D(6,9,11,12)           -4.7623         estimate D2E/DX2                !
 ! D70   D(6,9,11,59)         -145.4917         estimate D2E/DX2                !
 ! D71   D(61,9,11,12)         137.2089         estimate D2E/DX2                !
 ! D72   D(61,9,11,59)          -3.5204         estimate D2E/DX2                !
 ! D73   D(6,9,61,60)          142.0673         estimate D2E/DX2                !
 ! D74   D(6,9,61,62)           -0.0011         estimate D2E/DX2                !
 ! D75   D(11,9,61,60)           0.0016         estimate D2E/DX2                !
 ! D76   D(11,9,61,62)        -142.0668         estimate D2E/DX2                !
 ! D77   D(7,10,21,22)          -6.8983         estimate D2E/DX2                !
 ! D78   D(7,10,21,50)         131.8961         estimate D2E/DX2                !
 ! D79   D(30,10,21,22)       -137.6211         estimate D2E/DX2                !
 ! D80   D(30,10,21,50)          1.1734         estimate D2E/DX2                !
 ! D81   D(7,10,30,29)           6.8978         estimate D2E/DX2                !
 ! D82   D(7,10,30,31)        -131.8967         estimate D2E/DX2                !
 ! D83   D(21,10,30,29)        137.6194         estimate D2E/DX2                !
 ! D84   D(21,10,30,31)         -1.1751         estimate D2E/DX2                !
 ! D85   D(9,11,12,13)          -1.0383         estimate D2E/DX2                !
 ! D86   D(9,11,12,15)        -141.0351         estimate D2E/DX2                !
 ! D87   D(59,11,12,13)        135.516          estimate D2E/DX2                !
 ! D88   D(59,11,12,15)         -4.4808         estimate D2E/DX2                !
 ! D89   D(9,11,59,58)         147.6246         estimate D2E/DX2                !
 ! D90   D(9,11,59,60)           5.6778         estimate D2E/DX2                !
 ! D91   D(12,11,59,58)          6.6034         estimate D2E/DX2                !
 ! D92   D(12,11,59,60)       -135.3434         estimate D2E/DX2                !
 ! D93   D(11,12,13,5)           7.486          estimate D2E/DX2                !
 ! D94   D(11,12,13,25)       -140.1132         estimate D2E/DX2                !
 ! D95   D(15,12,13,5)         152.1001         estimate D2E/DX2                !
 ! D96   D(15,12,13,25)          4.5009         estimate D2E/DX2                !
 ! D97   D(11,12,15,24)        142.5141         estimate D2E/DX2                !
 ! D98   D(11,12,15,57)         -3.9988         estimate D2E/DX2                !
 ! D99   D(13,12,15,24)         -1.9818         estimate D2E/DX2                !
 ! D100  D(13,12,15,57)       -148.4946         estimate D2E/DX2                !
 ! D101  D(5,13,25,24)        -151.4124         estimate D2E/DX2                !
 ! D102  D(5,13,25,26)           3.3357         estimate D2E/DX2                !
 ! D103  D(12,13,25,24)         -5.2294         estimate D2E/DX2                !
 ! D104  D(12,13,25,26)        149.5187         estimate D2E/DX2                !
 ! D105  D(45,14,16,17)         -5.4884         estimate D2E/DX2                !
 ! D106  D(45,14,16,58)        131.8954         estimate D2E/DX2                !
 ! D107  D(55,14,16,17)       -147.6336         estimate D2E/DX2                !
 ! D108  D(55,14,16,58)        -10.2498         estimate D2E/DX2                !
 ! D109  D(16,14,45,20)       -144.3369         estimate D2E/DX2                !
 ! D110  D(16,14,45,46)         10.6171         estimate D2E/DX2                !
 ! D111  D(55,14,45,20)          1.2489         estimate D2E/DX2                !
 ! D112  D(55,14,45,46)        156.2028         estimate D2E/DX2                !
 ! D113  D(16,14,55,54)        148.4947         estimate D2E/DX2                !
 ! D114  D(16,14,55,60)          3.9974         estimate D2E/DX2                !
 ! D115  D(45,14,55,54)          1.9799         estimate D2E/DX2                !
 ! D116  D(45,14,55,60)       -142.5174         estimate D2E/DX2                !
 ! D117  D(12,15,24,23)       -156.2009         estimate D2E/DX2                !
 ! D118  D(12,15,24,25)         -1.246          estimate D2E/DX2                !
 ! D119  D(57,15,24,23)        -10.6191         estimate D2E/DX2                !
 ! D120  D(57,15,24,25)        144.3358         estimate D2E/DX2                !
 ! D121  D(12,15,57,56)        147.6335         estimate D2E/DX2                !
 ! D122  D(12,15,57,58)         10.2514         estimate D2E/DX2                !
 ! D123  D(24,15,57,56)          5.491          estimate D2E/DX2                !
 ! D124  D(24,15,57,58)       -131.891          estimate D2E/DX2                !
 ! D125  D(14,16,17,48)         -4.7756         estimate D2E/DX2                !
 ! D126  D(14,16,17,56)        136.6541         estimate D2E/DX2                !
 ! D127  D(58,16,17,48)       -146.1962         estimate D2E/DX2                !
 ! D128  D(58,16,17,56)         -4.7665         estimate D2E/DX2                !
 ! D129  D(14,16,58,57)       -133.6619         estimate D2E/DX2                !
 ! D130  D(14,16,58,59)          8.1724         estimate D2E/DX2                !
 ! D131  D(17,16,58,57)          7.6092         estimate D2E/DX2                !
 ! D132  D(17,16,58,59)        149.4435         estimate D2E/DX2                !
 ! D133  D(16,17,48,46)          9.8576         estimate D2E/DX2                !
 ! D134  D(16,17,48,50)        149.2489         estimate D2E/DX2                !
 ! D135  D(56,17,48,46)       -126.8021         estimate D2E/DX2                !
 ! D136  D(56,17,48,50)         12.5892         estimate D2E/DX2                !
 ! D137  D(16,17,56,22)       -141.1828         estimate D2E/DX2                !
 ! D138  D(16,17,56,57)          0.0            estimate D2E/DX2                !
 ! D139  D(48,17,56,22)          0.0013         estimate D2E/DX2                !
 ! D140  D(48,17,56,57)        141.1841         estimate D2E/DX2                !
 ! D141  D(40,18,19,20)          4.4802         estimate D2E/DX2                !
 ! D142  D(40,18,19,51)        155.6932         estimate D2E/DX2                !
 ! D143  D(47,18,19,20)       -147.2768         estimate D2E/DX2                !
 ! D144  D(47,18,19,51)          3.9362         estimate D2E/DX2                !
 ! D145  D(19,18,40,32)       -143.5968         estimate D2E/DX2                !
 ! D146  D(19,18,40,37)          1.6305         estimate D2E/DX2                !
 ! D147  D(47,18,40,32)          5.4313         estimate D2E/DX2                !
 ! D148  D(47,18,40,37)        150.6586         estimate D2E/DX2                !
 ! D149  D(19,18,47,44)        144.3365         estimate D2E/DX2                !
 ! D150  D(19,18,47,49)         -1.2521         estimate D2E/DX2                !
 ! D151  D(40,18,47,44)        -10.612          estimate D2E/DX2                !
 ! D152  D(40,18,47,49)       -156.2005         estimate D2E/DX2                !
 ! D153  D(18,19,20,45)          0.0031         estimate D2E/DX2                !
 ! D154  D(18,19,20,54)        148.4251         estimate D2E/DX2                !
 ! D155  D(51,19,20,45)       -148.4217         estimate D2E/DX2                !
 ! D156  D(51,19,20,54)          0.0002         estimate D2E/DX2                !
 ! D157  D(18,19,51,49)         -5.2317         estimate D2E/DX2                !
 ! D158  D(18,19,51,52)       -151.4145         estimate D2E/DX2                !
 ! D159  D(20,19,51,49)        149.5196         estimate D2E/DX2                !
 ! D160  D(20,19,51,52)          3.3367         estimate D2E/DX2                !
 ! D161  D(19,20,45,14)        147.2762         estimate D2E/DX2                !
 ! D162  D(19,20,45,46)         -4.4894         estimate D2E/DX2                !
 ! D163  D(54,20,45,14)         -3.9338         estimate D2E/DX2                !
 ! D164  D(54,20,45,46)       -155.6994         estimate D2E/DX2                !
 ! D165  D(19,20,54,53)         -3.3377         estimate D2E/DX2                !
 ! D166  D(19,20,54,55)       -149.5197         estimate D2E/DX2                !
 ! D167  D(45,20,54,53)        151.4128         estimate D2E/DX2                !
 ! D168  D(45,20,54,55)          5.2308         estimate D2E/DX2                !
 ! D169  D(10,21,22,23)          6.7294         estimate D2E/DX2                !
 ! D170  D(10,21,22,56)        150.7103         estimate D2E/DX2                !
 ! D171  D(50,21,22,23)       -131.4238         estimate D2E/DX2                !
 ! D172  D(50,21,22,56)         12.5571         estimate D2E/DX2                !
 ! D173  D(10,21,50,33)         -0.0081         estimate D2E/DX2                !
 ! D174  D(10,21,50,48)       -133.3858         estimate D2E/DX2                !
 ! D175  D(22,21,50,33)        133.3784         estimate D2E/DX2                !
 ! D176  D(22,21,50,48)          0.0006         estimate D2E/DX2                !
 ! D177  D(21,22,23,7)          -4.0716         estimate D2E/DX2                !
 ! D178  D(21,22,23,24)        147.7413         estimate D2E/DX2                !
 ! D179  D(56,22,23,7)        -147.1794         estimate D2E/DX2                !
 ! D180  D(56,22,23,24)          4.6335         estimate D2E/DX2                !
 ! D181  D(21,22,56,17)        -12.5903         estimate D2E/DX2                !
 ! D182  D(21,22,56,57)       -149.2481         estimate D2E/DX2                !
 ! D183  D(23,22,56,17)        126.8029         estimate D2E/DX2                !
 ! D184  D(23,22,56,57)         -9.8549         estimate D2E/DX2                !
 ! D185  D(7,23,24,15)         150.6606         estimate D2E/DX2                !
 ! D186  D(7,23,24,25)           1.6236         estimate D2E/DX2                !
 ! D187  D(22,23,24,15)          5.4386         estimate D2E/DX2                !
 ! D188  D(22,23,24,25)       -143.5984         estimate D2E/DX2                !
 ! D189  D(15,24,25,13)          3.9312         estimate D2E/DX2                !
 ! D190  D(15,24,25,26)       -147.2785         estimate D2E/DX2                !
 ! D191  D(23,24,25,13)        155.6965         estimate D2E/DX2                !
 ! D192  D(23,24,25,26)          4.4868         estimate D2E/DX2                !
 ! D193  D(13,25,26,4)           0.0006         estimate D2E/DX2                !
 ! D194  D(13,25,26,27)       -148.422          estimate D2E/DX2                !
 ! D195  D(24,25,26,4)         148.4216         estimate D2E/DX2                !
 ! D196  D(24,25,26,27)         -0.001          estimate D2E/DX2                !
 ! D197  D(4,26,27,28)        -155.6963         estimate D2E/DX2                !
 ! D198  D(4,26,27,38)          -3.9337         estimate D2E/DX2                !
 ! D199  D(25,26,27,28)         -4.4863         estimate D2E/DX2                !
 ! D200  D(25,26,27,38)        147.2763         estimate D2E/DX2                !
 ! D201  D(26,27,28,7)          -1.6217         estimate D2E/DX2                !
 ! D202  D(26,27,28,29)        143.5957         estimate D2E/DX2                !
 ! D203  D(38,27,28,7)        -150.6556         estimate D2E/DX2                !
 ! D204  D(38,27,28,29)         -5.4382         estimate D2E/DX2                !
 ! D205  D(26,27,38,36)       -144.3373         estimate D2E/DX2                !
 ! D206  D(26,27,38,39)          1.2505         estimate D2E/DX2                !
 ! D207  D(28,27,38,36)         10.6152         estimate D2E/DX2                !
 ! D208  D(28,27,38,39)        156.203          estimate D2E/DX2                !
 ! D209  D(7,28,29,30)           4.067          estimate D2E/DX2                !
 ! D210  D(7,28,29,35)         147.1761         estimate D2E/DX2                !
 ! D211  D(27,28,29,30)       -147.7417         estimate D2E/DX2                !
 ! D212  D(27,28,29,35)         -4.6325         estimate D2E/DX2                !
 ! D213  D(28,29,30,10)         -6.726          estimate D2E/DX2                !
 ! D214  D(28,29,30,31)        131.4264         estimate D2E/DX2                !
 ! D215  D(35,29,30,10)       -150.709          estimate D2E/DX2                !
 ! D216  D(35,29,30,31)        -12.5566         estimate D2E/DX2                !
 ! D217  D(28,29,35,34)       -126.8053         estimate D2E/DX2                !
 ! D218  D(28,29,35,36)          9.8555         estimate D2E/DX2                !
 ! D219  D(30,29,35,34)         12.5892         estimate D2E/DX2                !
 ! D220  D(30,29,35,36)        149.2501         estimate D2E/DX2                !
 ! D221  D(10,30,31,32)        133.3833         estimate D2E/DX2                !
 ! D222  D(10,30,31,33)          0.0113         estimate D2E/DX2                !
 ! D223  D(29,30,31,32)         -0.0023         estimate D2E/DX2                !
 ! D224  D(29,30,31,33)       -133.3743         estimate D2E/DX2                !
 ! D225  D(30,31,32,34)         12.5607         estimate D2E/DX2                !
 ! D226  D(30,31,32,40)       -131.4199         estimate D2E/DX2                !
 ! D227  D(33,31,32,34)        150.703          estimate D2E/DX2                !
 ! D228  D(33,31,32,40)          6.7224         estimate D2E/DX2                !
 ! D229  D(30,31,33,37)        131.8903         estimate D2E/DX2                !
 ! D230  D(30,31,33,50)          1.1531         estimate D2E/DX2                !
 ! D231  D(32,31,33,37)         -6.8893         estimate D2E/DX2                !
 ! D232  D(32,31,33,50)       -137.6266         estimate D2E/DX2                !
 ! D233  D(31,32,34,35)        -12.5933         estimate D2E/DX2                !
 ! D234  D(31,32,34,44)       -149.2522         estimate D2E/DX2                !
 ! D235  D(40,32,34,35)        126.7988         estimate D2E/DX2                !
 ! D236  D(40,32,34,44)         -9.8602         estimate D2E/DX2                !
 ! D237  D(31,32,40,18)        147.7469         estimate D2E/DX2                !
 ! D238  D(31,32,40,37)         -4.0695         estimate D2E/DX2                !
 ! D239  D(34,32,40,18)          4.6406         estimate D2E/DX2                !
 ! D240  D(34,32,40,37)       -147.1758         estimate D2E/DX2                !
 ! D241  D(31,33,37,40)          4.4351         estimate D2E/DX2                !
 ! D242  D(31,33,37,46)       -142.1023         estimate D2E/DX2                !
 ! D243  D(50,33,37,40)        142.0988         estimate D2E/DX2                !
 ! D244  D(50,33,37,46)         -4.4385         estimate D2E/DX2                !
 ! D245  D(31,33,50,21)         -1.1548         estimate D2E/DX2                !
 ! D246  D(31,33,50,48)        137.6294         estimate D2E/DX2                !
 ! D247  D(37,33,50,21)       -131.8927         estimate D2E/DX2                !
 ! D248  D(37,33,50,48)          6.8915         estimate D2E/DX2                !
 ! D249  D(32,34,35,29)          0.002          estimate D2E/DX2                !
 ! D250  D(32,34,35,36)       -141.183          estimate D2E/DX2                !
 ! D251  D(44,34,35,29)        141.1834         estimate D2E/DX2                !
 ! D252  D(44,34,35,36)         -0.0016         estimate D2E/DX2                !
 ! D253  D(32,34,44,43)        146.1972         estimate D2E/DX2                !
 ! D254  D(32,34,44,47)          4.777          estimate D2E/DX2                !
 ! D255  D(35,34,44,43)          4.7683         estimate D2E/DX2                !
 ! D256  D(35,34,44,47)       -136.652          estimate D2E/DX2                !
 ! D257  D(29,35,36,38)         -4.7763         estimate D2E/DX2                !
 ! D258  D(29,35,36,43)       -146.1956         estimate D2E/DX2                !
 ! D259  D(34,35,36,38)        136.6536         estimate D2E/DX2                !
 ! D260  D(34,35,36,43)         -4.7657         estimate D2E/DX2                !
 ! D261  D(35,36,38,27)         -5.4857         estimate D2E/DX2                !
 ! D262  D(35,36,38,39)       -147.6318         estimate D2E/DX2                !
 ! D263  D(43,36,38,27)        131.8977         estimate D2E/DX2                !
 ! D264  D(43,36,38,39)        -10.2484         estimate D2E/DX2                !
 ! D265  D(35,36,43,42)        149.442          estimate D2E/DX2                !
 ! D266  D(35,36,43,44)          7.6092         estimate D2E/DX2                !
 ! D267  D(38,36,43,42)          8.1704         estimate D2E/DX2                !
 ! D268  D(38,36,43,44)       -133.6624         estimate D2E/DX2                !
 ! D269  D(33,37,40,18)       -148.8581         estimate D2E/DX2                !
 ! D270  D(33,37,40,32)         -0.1774         estimate D2E/DX2                !
 ! D271  D(46,37,40,18)        -12.1866         estimate D2E/DX2                !
 ! D272  D(46,37,40,32)        136.4941         estimate D2E/DX2                !
 ! D273  D(33,37,46,45)        148.8522         estimate D2E/DX2                !
 ! D274  D(33,37,46,48)          0.1812         estimate D2E/DX2                !
 ! D275  D(40,37,46,45)         12.1809         estimate D2E/DX2                !
 ! D276  D(40,37,46,48)       -136.49           estimate D2E/DX2                !
 ! D277  D(27,38,39,4)           1.9773         estimate D2E/DX2                !
 ! D278  D(27,38,39,41)       -142.5182         estimate D2E/DX2                !
 ! D279  D(36,38,39,4)         148.4924         estimate D2E/DX2                !
 ! D280  D(36,38,39,41)          3.997          estimate D2E/DX2                !
 ! D281  D(4,39,41,1)            1.038          estimate D2E/DX2                !
 ! D282  D(4,39,41,42)        -135.5141         estimate D2E/DX2                !
 ! D283  D(38,39,41,1)         141.0351         estimate D2E/DX2                !
 ! D284  D(38,39,41,42)          4.4831         estimate D2E/DX2                !
 ! D285  D(1,41,42,43)        -147.6247         estimate D2E/DX2                !
 ! D286  D(1,41,42,66)          -5.6742         estimate D2E/DX2                !
 ! D287  D(39,41,42,43)         -6.6066         estimate D2E/DX2                !
 ! D288  D(39,41,42,66)        135.3439         estimate D2E/DX2                !
 ! D289  D(41,42,43,36)          0.3483         estimate D2E/DX2                !
 ! D290  D(41,42,43,44)        136.9579         estimate D2E/DX2                !
 ! D291  D(66,42,43,36)       -136.9595         estimate D2E/DX2                !
 ! D292  D(66,42,43,44)         -0.3499         estimate D2E/DX2                !
 ! D293  D(41,42,66,49)       -135.3435         estimate D2E/DX2                !
 ! D294  D(41,42,66,65)          5.6732         estimate D2E/DX2                !
 ! D295  D(43,42,66,49)          6.6072         estimate D2E/DX2                !
 ! D296  D(43,42,66,65)        147.6239         estimate D2E/DX2                !
 ! D297  D(36,43,44,34)         -7.6101         estimate D2E/DX2                !
 ! D298  D(36,43,44,47)        133.6632         estimate D2E/DX2                !
 ! D299  D(42,43,44,34)       -149.4427         estimate D2E/DX2                !
 ! D300  D(42,43,44,47)         -8.1694         estimate D2E/DX2                !
 ! D301  D(34,44,47,18)          5.4858         estimate D2E/DX2                !
 ! D302  D(34,44,47,49)        147.6335         estimate D2E/DX2                !
 ! D303  D(43,44,47,18)       -131.8986         estimate D2E/DX2                !
 ! D304  D(43,44,47,49)         10.2492         estimate D2E/DX2                !
 ! D305  D(14,45,46,37)       -150.6563         estimate D2E/DX2                !
 ! D306  D(14,45,46,48)         -5.4371         estimate D2E/DX2                !
 ! D307  D(20,45,46,37)         -1.6193         estimate D2E/DX2                !
 ! D308  D(20,45,46,48)        143.5998         estimate D2E/DX2                !
 ! D309  D(37,46,48,17)        147.1749         estimate D2E/DX2                !
 ! D310  D(37,46,48,50)          4.0669         estimate D2E/DX2                !
 ! D311  D(45,46,48,17)         -4.6357         estimate D2E/DX2                !
 ! D312  D(45,46,48,50)       -147.7437         estimate D2E/DX2                !
 ! D313  D(18,47,49,51)         -1.9771         estimate D2E/DX2                !
 ! D314  D(18,47,49,66)        142.5172         estimate D2E/DX2                !
 ! D315  D(44,47,49,51)       -148.4931         estimate D2E/DX2                !
 ! D316  D(44,47,49,66)         -3.9988         estimate D2E/DX2                !
 ! D317  D(17,48,50,21)        -12.5576         estimate D2E/DX2                !
 ! D318  D(17,48,50,33)       -150.7034         estimate D2E/DX2                !
 ! D319  D(46,48,50,21)        131.4239         estimate D2E/DX2                !
 ! D320  D(46,48,50,33)         -6.7219         estimate D2E/DX2                !
 ! D321  D(47,49,51,19)          4.4994         estimate D2E/DX2                !
 ! D322  D(47,49,51,52)        152.0974         estimate D2E/DX2                !
 ! D323  D(66,49,51,19)       -140.1114         estimate D2E/DX2                !
 ! D324  D(66,49,51,52)          7.4867         estimate D2E/DX2                !
 ! D325  D(47,49,66,42)         -4.4819         estimate D2E/DX2                !
 ! D326  D(47,49,66,65)       -141.0325         estimate D2E/DX2                !
 ! D327  D(51,49,66,42)        135.5129         estimate D2E/DX2                !
 ! D328  D(51,49,66,65)         -1.0377         estimate D2E/DX2                !
 ! D329  D(19,51,52,53)         -3.3579         estimate D2E/DX2                !
 ! D330  D(19,51,52,64)        134.8093         estimate D2E/DX2                !
 ! D331  D(49,51,52,53)       -146.3659         estimate D2E/DX2                !
 ! D332  D(49,51,52,64)         -8.1987         estimate D2E/DX2                !
 ! D333  D(51,52,53,54)         -0.0011         estimate D2E/DX2                !
 ! D334  D(51,52,53,62)        142.7513         estimate D2E/DX2                !
 ! D335  D(64,52,53,54)       -142.7528         estimate D2E/DX2                !
 ! D336  D(64,52,53,62)         -0.0004         estimate D2E/DX2                !
 ! D337  D(51,52,64,63)       -139.8551         estimate D2E/DX2                !
 ! D338  D(51,52,64,65)          2.4928         estimate D2E/DX2                !
 ! D339  D(53,52,64,63)          2.2026         estimate D2E/DX2                !
 ! D340  D(53,52,64,65)        144.5504         estimate D2E/DX2                !
 ! D341  D(52,53,54,20)          3.3598         estimate D2E/DX2                !
 ! D342  D(52,53,54,55)        146.3667         estimate D2E/DX2                !
 ! D343  D(62,53,54,20)       -134.81           estimate D2E/DX2                !
 ! D344  D(62,53,54,55)          8.1969         estimate D2E/DX2                !
 ! D345  D(52,53,62,61)       -144.5507         estimate D2E/DX2                !
 ! D346  D(52,53,62,63)         -2.2019         estimate D2E/DX2                !
 ! D347  D(54,53,62,61)         -2.4929         estimate D2E/DX2                !
 ! D348  D(54,53,62,63)        139.8558         estimate D2E/DX2                !
 ! D349  D(20,54,55,14)         -4.5007         estimate D2E/DX2                !
 ! D350  D(20,54,55,60)        140.1141         estimate D2E/DX2                !
 ! D351  D(53,54,55,14)       -152.0983         estimate D2E/DX2                !
 ! D352  D(53,54,55,60)         -7.4835         estimate D2E/DX2                !
 ! D353  D(14,55,60,59)          4.4826         estimate D2E/DX2                !
 ! D354  D(14,55,60,61)        141.0343         estimate D2E/DX2                !
 ! D355  D(54,55,60,59)       -135.5165         estimate D2E/DX2                !
 ! D356  D(54,55,60,61)          1.0352         estimate D2E/DX2                !
 ! D357  D(17,56,57,15)       -136.6537         estimate D2E/DX2                !
 ! D358  D(17,56,57,58)          4.7665         estimate D2E/DX2                !
 ! D359  D(22,56,57,15)          4.7728         estimate D2E/DX2                !
 ! D360  D(22,56,57,58)        146.193          estimate D2E/DX2                !
 ! D361  D(15,57,58,16)        133.6597         estimate D2E/DX2                !
 ! D362  D(15,57,58,59)         -8.1748         estimate D2E/DX2                !
 ! D363  D(56,57,58,16)         -7.6091         estimate D2E/DX2                !
 ! D364  D(56,57,58,59)       -149.4435         estimate D2E/DX2                !
 ! D365  D(16,58,59,11)       -136.9568         estimate D2E/DX2                !
 ! D366  D(16,58,59,60)          0.3467         estimate D2E/DX2                !
 ! D367  D(57,58,59,11)         -0.3443         estimate D2E/DX2                !
 ! D368  D(57,58,59,60)        136.9592         estimate D2E/DX2                !
 ! D369  D(11,59,60,55)        135.3409         estimate D2E/DX2                !
 ! D370  D(11,59,60,61)         -5.6768         estimate D2E/DX2                !
 ! D371  D(58,59,60,55)         -6.6057         estimate D2E/DX2                !
 ! D372  D(58,59,60,61)       -147.6234         estimate D2E/DX2                !
 ! D373  D(55,60,61,9)        -137.2089         estimate D2E/DX2                !
 ! D374  D(55,60,61,62)          4.7638         estimate D2E/DX2                !
 ! D375  D(59,60,61,9)           3.5178         estimate D2E/DX2                !
 ! D376  D(59,60,61,62)        145.4904         estimate D2E/DX2                !
 ! D377  D(9,61,62,53)         133.4579         estimate D2E/DX2                !
 ! D378  D(9,61,62,63)          -4.041          estimate D2E/DX2                !
 ! D379  D(60,61,62,53)         -4.0548         estimate D2E/DX2                !
 ! D380  D(60,61,62,63)       -141.5537         estimate D2E/DX2                !
 ! D381  D(53,62,63,8)        -137.9085         estimate D2E/DX2                !
 ! D382  D(53,62,63,64)          3.5535         estimate D2E/DX2                !
 ! D383  D(61,62,63,8)           4.0374         estimate D2E/DX2                !
 ! D384  D(61,62,63,64)        145.4993         estimate D2E/DX2                !
 ! D385  D(8,63,64,52)         137.9086         estimate D2E/DX2                !
 ! D386  D(8,63,64,65)          -4.0349         estimate D2E/DX2                !
 ! D387  D(62,63,64,52)         -3.5537         estimate D2E/DX2                !
 ! D388  D(62,63,64,65)       -145.4973         estimate D2E/DX2                !
 ! D389  D(52,64,65,1)        -133.4584         estimate D2E/DX2                !
 ! D390  D(52,64,65,66)          4.0557         estimate D2E/DX2                !
 ! D391  D(63,64,65,1)           4.0393         estimate D2E/DX2                !
 ! D392  D(63,64,65,66)        141.5534         estimate D2E/DX2                !
 ! D393  D(1,65,66,42)          -3.5155         estimate D2E/DX2                !
 ! D394  D(1,65,66,49)         137.2108         estimate D2E/DX2                !
 ! D395  D(64,65,66,42)       -145.4896         estimate D2E/DX2                !
 ! D396  D(64,65,66,49)         -4.7633         estimate D2E/DX2                !
 --------------------------------------------------------------------------------
 Trust Radius=3.00D-01 FncErr=1.00D-07 GrdErr=1.00D-06 EigMax=2.50D+02 EigMin=1.00D-04
 Number of steps in this run=    396 maximum allowed number of steps=    396.
 GradGradGradGradGradGradGradGradGradGradGradGradGradGradGradGradGradGrad

 Leave Link  103 at Thu Jul 21 22:49:54 2022, MaxMem=  1342177280 cpu:               1.7 elap:               0.0
 (Enter /home/mkliu/g16/l202.exe)
 Stoichiometry    C66
 Framework group  C1[X(C66)]
 Deg. of freedom   192
 Full point group                 C1      NOp   1
 Largest Abelian subgroup         C1      NOp   1
 Largest concise Abelian subgroup C1      NOp   1
                         Standard orientation:                         
 ---------------------------------------------------------------------
 Center     Atomic      Atomic             Coordinates (Angstroms)
 Number     Number       Type             X           Y           Z
 ---------------------------------------------------------------------
      1          6           0        3.058056   -2.314354    0.720549
      2          6           0        3.419956   -1.165997    1.408864
      3          6           0        2.609755   -0.711946    2.509583
      4          6           0        1.442902   -1.385304    2.852977
      5          6           0        2.609703    0.712287    2.509549
      6          6           0        3.419861    1.166403    1.408835
      7          6           0       -2.794292   -0.000028    2.387275
      8          6           0        3.879387    0.000165    0.695461
      9          6           0        3.057863    2.314639    0.720452
     10          6           0       -3.789960   -0.000120    1.376636
     11          6           0        1.930167    3.091669    1.161604
     12          6           0        1.148517    2.632466    2.217533
     13          6           0        1.442764    1.385574    2.852932
     14          6           0       -0.276329    2.787418   -2.200290
     15          6           0       -0.276389    2.787548    2.200198
     16          6           0       -0.875791    3.478704   -1.153939
     17          6           0       -2.183434    3.086560   -0.721118
     18          6           0       -0.883768   -1.615099   -2.783795
     19          6           0        0.200129   -0.698542   -3.144140
     20          6           0        0.200041    0.698354   -3.144173
     21          6           0       -3.777815    1.250041    0.698957
     22          6           0       -2.861895    2.099071    1.412949
     23          6           0       -2.194098    1.303351    2.438238
     24          6           0       -0.883976    1.615016    2.783747
     25          6           0        0.200013    0.698537    3.144161
     26          6           0        0.200045   -0.698369    3.144185
     27          6           0       -0.883827   -1.614938    2.783849
     28          6           0       -2.194011   -1.303399    2.438332
     29          6           0       -2.861707   -2.099244    1.413024
     30          6           0       -3.777729   -1.250323    0.699000
     31          6           0       -3.777793   -1.250318   -0.699056
     32          6           0       -2.861672   -2.099318   -1.413026
     33          6           0       -3.789840   -0.000180   -1.376688
     34          6           0       -2.183170   -3.086773   -0.720964
     35          6           0       -2.183174   -3.086717    0.721099
     36          6           0       -0.875523   -3.478762    1.153952
     37          6           0       -2.794243   -0.000163   -2.387292
     38          6           0       -0.276104   -2.787462    2.200280
     39          6           0        1.148739   -2.632240    2.217666
     40          6           0       -2.193915   -1.303558   -2.438238
     41          6           0        1.930438   -3.091470    1.161722
     42          6           0        1.281475   -3.640670    0.000095
     43          6           0       -0.090096   -3.832487    0.000082
     44          6           0       -0.875494   -3.478818   -1.153796
     45          6           0       -0.883922    1.614874   -2.783822
     46          6           0       -2.194080    1.303201   -2.438345
     47          6           0       -0.276053   -2.787575   -2.200157
     48          6           0       -2.861871    2.099033   -1.413073
     49          6           0        1.148808   -2.632390   -2.217527
     50          6           0       -3.777843    1.249995   -0.699114
     51          6           0        1.442964   -1.385480   -2.852916
     52          6           0        2.609795   -0.712089   -2.509543
     53          6           0        2.609750    0.712141   -2.509555
     54          6           0        1.442823    1.385418   -2.852979
     55          6           0        1.148536    2.632331   -2.217637
     56          6           0       -2.183440    3.086612    0.720977
     57          6           0       -0.875789    3.478792    1.153797
     58          6           0       -0.090440    3.832488   -0.000080
     59          6           0        1.281168    3.640801   -0.000067
     60          6           0        1.930194    3.091627   -1.161707
     61          6           0        3.057852    2.314604   -0.720526
     62          6           0        3.419869    1.166312   -1.408844
     63          6           0        3.879393    0.000138   -0.695429
     64          6           0        3.419997   -1.166109   -1.408767
     65          6           0        3.058058   -2.314381   -0.720400
     66          6           0        1.930463   -3.091548   -1.161558
 ---------------------------------------------------------------------
 Rotational constants (GHZ):           0.0753283           0.0710765           0.0627110
 Leave Link  202 at Thu Jul 21 22:49:54 2022, MaxMem=  1342177280 cpu:               0.2 elap:               0.0
 (Enter /home/mkliu/g16/l301.exe)
 Standard basis: 6-311G(d,p) (5D, 7F)
 Ernie: Thresh=  0.10000D-02 Tol=  0.10000D-05 Strict=F.
 There are  1254 symmetry adapted cartesian basis functions of A   symmetry.
 There are  1188 symmetry adapted basis functions of A   symmetry.
  1188 basis functions,  2112 primitive gaussians,  1254 cartesian basis functions
   198 alpha electrons      198 beta electrons
       nuclear repulsion energy      9729.4789199564 Hartrees.
 IExCor=  402 DFT=T Ex+Corr=B3LYP ExCW=0 ScaHFX=  0.200000
 ScaDFX=  0.800000  0.720000  1.000000  0.810000 ScalE2=  1.000000  1.000000
 IRadAn=      5 IRanWt=     -1 IRanGd=            0 ICorTp=0 IEmpDi=131
[...]
 Alpha virt. eigenvalues --    0.76020   0.76374   0.76681   0.77217   0.77311
 Alpha virt. eigenvalues --    0.77469   0.77798   0.77938   0.78047   0.78486
 Alpha virt. eigenvalues --    0.79108   0.79910   0.79915   0.81196   0.81341
 Alpha virt. eigenvalues --    0.81859   0.82055   0.82695   0.82946   0.83039
 Alpha virt. eigenvalues --    0.83334   0.83503   0.84096   0.84238   0.84355
 Alpha virt. eigenvalues --    0.85104   0.85174   0.86023   0.86322   0.86518
 Alpha virt. eigenvalues --    0.86742   0.87210   0.87323   0.88741   0.88785
 Alpha virt. eigenvalues --    0.89620   0.89624   0.89915   0.90708   0.92185
 Alpha virt. eigenvalues --    0.92308   0.92567   0.93047   0.93088   0.93395
 Alpha virt. eigenvalues --    0.93577   0.93646   0.94906   0.94913   0.95025
 Alpha virt. eigenvalues --    0.95112   0.95304   0.95929   0.95966   0.96129
 Alpha virt. eigenvalues --    0.97235   0.97507   0.98157   0.98395   0.98571
 Alpha virt. eigenvalues --    0.99159   0.99345   1.00920   1.01267   1.02129
 Alpha virt. eigenvalues --    1.02750   1.02775   1.03216   1.03484   1.04004
 Alpha virt. eigenvalues --    1.04422   1.04482   1.04709   1.04889   1.05633
 Alpha virt. eigenvalues --    1.06313   1.06579   1.06804   1.06819   1.07634
 Alpha virt. eigenvalues --    1.08381   1.08830   1.09055   1.09403   1.09789
 Alpha virt. eigenvalues --    1.10270   1.11283   1.11719   1.11812   1.12575
 Alpha virt. eigenvalues --    1.12727   1.13133   1.13867   1.13879   1.14536
 Alpha virt. eigenvalues --    1.15302   1.15851   1.16454   1.16733   1.17634
 Alpha virt. eigenvalues --    1.17838   1.17867   1.18275   1.19247   1.19388
 Alpha virt. eigenvalues --    1.19410   1.19506   1.20602   1.20943   1.21394
 Alpha virt. eigenvalues --    1.22014   1.22241   1.23363   1.23373   1.24243
 Alpha virt. eigenvalues --    1.25136   1.25348   1.25411   1.25696   1.25701
 Alpha virt. eigenvalues --    1.26724   1.26771   1.26846   1.27408   1.27589
 Alpha virt. eigenvalues --    1.28661   1.29582   1.30173   1.30462   1.30801
 Alpha virt. eigenvalues --    1.30870   1.32056   1.32149   1.32622   1.33122
 Alpha virt. eigenvalues --    1.33220   1.33330   1.33607   1.34083   1.34346
 Alpha virt. eigenvalues --    1.34462   1.34793   1.35112   1.35610   1.35687
 Alpha virt. eigenvalues --    1.36796   1.37155   1.37302   1.37344   1.37566
 Alpha virt. eigenvalues --    1.37843   1.38025   1.38584   1.39296   1.39824
 Alpha virt. eigenvalues --    1.40132   1.40171   1.40515   1.40788   1.40853
 Alpha virt. eigenvalues --    1.41244   1.42235   1.42253   1.42603   1.42673
 Alpha virt. eigenvalues --    1.42804   1.43222   1.43530   1.43757   1.44134
 Alpha virt. eigenvalues --    1.44497   1.44501   1.44838   1.45222   1.45809
 Alpha virt. eigenvalues --    1.45969   1.46108   1.46139   1.46222   1.46394
 Alpha virt. eigenvalues --    1.46653   1.46845   1.47159   1.47206   1.47994
 Alpha virt. eigenvalues --    1.48164   1.48305   1.48530   1.48598   1.48969
 Alpha virt. eigenvalues --    1.49029   1.49565   1.49898   1.50394   1.50462
 Alpha virt. eigenvalues --    1.50911   1.50965   1.51456   1.51510   1.52153
 Alpha virt. eigenvalues --    1.52183   1.52186   1.52442   1.52664   1.52764
 Alpha virt. eigenvalues --    1.54151   1.54970   1.55314   1.55600   1.55621
 Alpha virt. eigenvalues --    1.55804   1.55932   1.56866   1.57153   1.57644
 Alpha virt. eigenvalues --    1.59246   1.59392   1.59622   1.60082   1.60726
 Alpha virt. eigenvalues --    1.61984   1.62010   1.62159   1.62634   1.63017
 Alpha virt. eigenvalues --    1.63630   1.63698   1.64465   1.64577   1.65129
 Alpha virt. eigenvalues --    1.65501   1.65632   1.65910   1.65928   1.67355
 Alpha virt. eigenvalues --    1.67479   1.67491   1.67934   1.67999   1.68221
 Alpha virt. eigenvalues --    1.69732   1.70072   1.70444   1.71218   1.71376
 Alpha virt. eigenvalues --    1.71649   1.72542   1.72545   1.72889   1.73171
 Alpha virt. eigenvalues --    1.73378   1.73616   1.74588   1.75236   1.75338
 Alpha virt. eigenvalues --    1.75408   1.75750   1.76286   1.76579   1.77352
 Alpha virt. eigenvalues --    1.77444   1.77971   1.78017   1.78627   1.79362
 Alpha virt. eigenvalues --    1.79523   1.79565   1.79583   1.79906   1.80222
 Alpha virt. eigenvalues --    1.81201   1.81901   1.81962   1.82488   1.83267
 Alpha virt. eigenvalues --    1.83440   1.83596   1.84588   1.84663   1.85504
 Alpha virt. eigenvalues --    1.85833   1.86813   1.87677   1.88830   1.88926
 Alpha virt. eigenvalues --    1.88969   1.89387   1.89494   1.90619   1.91463
 Alpha virt. eigenvalues --    1.91669   1.91939   1.92401   1.92407   1.92786
 Alpha virt. eigenvalues --    1.92912   1.93245   1.94481   1.95408   1.95631
 Alpha virt. eigenvalues --    1.95728   1.96437   1.97979   1.99125   2.00485
 Alpha virt. eigenvalues --    2.00558   2.00803   2.00964   2.01042   2.01095
 Alpha virt. eigenvalues --    2.01313   2.02249   2.02449   2.02459   2.03337
 Alpha virt. eigenvalues --    2.03617   2.03769   2.03849   2.04240   2.04724
 Alpha virt. eigenvalues --    2.04840   2.05329   2.05578   2.06927   2.07142
 Alpha virt. eigenvalues --    2.08220   2.09050   2.09380   2.09447   2.09598
 Alpha virt. eigenvalues --    2.10232   2.10945   2.11043   2.11124   2.11153
 Alpha virt. eigenvalues --    2.13182   2.14802   2.15218   2.15464   2.16106
 Alpha virt. eigenvalues --    2.16798   2.16990   2.17338   2.17594   2.18303
 Alpha virt. eigenvalues --    2.19797   2.19947   2.20609   2.21478   2.22027
 Alpha virt. eigenvalues --    2.22200   2.23499   2.23932   2.23964   2.24126
 Alpha virt. eigenvalues --    2.24326   2.24328   2.24836   2.25145   2.26403
 Alpha virt. eigenvalues --    2.27137   2.28240   2.28357   2.29486   2.29501
 Alpha virt. eigenvalues --    2.29931   2.30028   2.30849   2.31350   2.32496
 Alpha virt. eigenvalues --    2.32985   2.34149   2.34287   2.34912   2.34921
 Alpha virt. eigenvalues --    2.36410   2.36951   2.37374   2.37936   2.38519
 Alpha virt. eigenvalues --    2.38694   2.39770   2.39822   2.40036   2.40330
 Alpha virt. eigenvalues --    2.41289   2.41583   2.42131   2.42360   2.42699
 Alpha virt. eigenvalues --    2.42860   2.43454   2.43913   2.44699   2.45279
 Alpha virt. eigenvalues --    2.45516   2.45688   2.46126   2.46519   2.47207
 Alpha virt. eigenvalues --    2.50157   2.51100   2.51270   2.51351   2.52304
 Alpha virt. eigenvalues --    2.52325   2.52498   2.52927   2.53887   2.54225
 Alpha virt. eigenvalues --    2.54295   2.55622   2.55947   2.56204   2.56420
 Alpha virt. eigenvalues --    2.56511   2.57194   2.57674   2.57676   2.58281
 Alpha virt. eigenvalues --    2.59292   2.59397   2.60090   2.60272   2.60526
 Alpha virt. eigenvalues --    2.61646   2.62089   2.62812   2.62988   2.63084
 Alpha virt. eigenvalues --    2.63602   2.63920   2.64212   2.65628   2.65870
 Alpha virt. eigenvalues --    2.66273   2.66737   2.68755   2.68959   2.69261
 Alpha virt. eigenvalues --    2.69792   2.70062   2.70335   2.70551   2.72692
 Alpha virt. eigenvalues --    2.73654   2.74563   2.74718   2.75440   2.76057
 Alpha virt. eigenvalues --    2.78136   2.79113   2.79214   2.79453   2.80502
 Alpha virt. eigenvalues --    2.80906   2.83434   2.83653   2.83708   2.83967
 Alpha virt. eigenvalues --    2.84256   2.84962   2.85061   2.88662   2.88892
 Alpha virt. eigenvalues --    2.89179   2.89278   2.89726   2.91116   2.91600
 Alpha virt. eigenvalues --    2.92345   2.92633   2.93120   2.93293   2.95089
 Alpha virt. eigenvalues --    2.95805   2.95854   2.96583   2.97517   2.97822
 Alpha virt. eigenvalues --    2.98319   2.98471   2.99060   2.99300   3.00353
 Alpha virt. eigenvalues --    3.00370   3.00517   3.00757   3.01652   3.01761
 Alpha virt. eigenvalues --    3.02328   3.03086   3.03592   3.03659   3.03875
 Alpha virt. eigenvalues --    3.03941   3.04030   3.04106   3.04429   3.04722
 Alpha virt. eigenvalues --    3.04780   3.04827   3.04829   3.05388   3.06381
 Alpha virt. eigenvalues --    3.06441   3.06521   3.06538   3.07365   3.08381
 Alpha virt. eigenvalues --    3.08833   3.09206   3.09507   3.10875   3.10943
 Alpha virt. eigenvalues --    3.11278   3.11476   3.11694   3.11757   3.12270
 Alpha virt. eigenvalues --    3.12581   3.12696   3.12886   3.13395   3.13610
 Alpha virt. eigenvalues --    3.13714   3.14175   3.14445   3.14751   3.14832
 Alpha virt. eigenvalues --    3.14897   3.15244   3.15785   3.16295   3.16553
 Alpha virt. eigenvalues --    3.16604   3.16659   3.17201   3.18799   3.19251
 Alpha virt. eigenvalues --    3.19318   3.19604   3.19757   3.20543   3.20659
 Alpha virt. eigenvalues --    3.21465   3.23745   3.27851   3.28375   3.35177
 Alpha virt. eigenvalues --    3.36958   3.37654   3.39535   3.42286   3.43018
 Alpha virt. eigenvalues --    3.43664   3.46478   3.48026   3.49158   3.49379
 Alpha virt. eigenvalues --    3.49421   3.51625   3.52098   3.53288   3.53374
 Alpha virt. eigenvalues --    3.55018   3.55424   3.55575   3.55974   3.58715
 Alpha virt. eigenvalues --    3.58923   3.59363   3.59530   3.61748   3.62698
 Alpha virt. eigenvalues --    3.63661   3.64074   3.65138   3.66698   3.66763
 Alpha virt. eigenvalues --    3.67035   3.69309   3.69566   3.69680   3.70473
 Alpha virt. eigenvalues --    3.71548   3.71875   3.73975   3.74342   3.74714
 Alpha virt. eigenvalues --    3.75484   3.75501   3.77431   3.82284   3.82503
 Alpha virt. eigenvalues --    3.82573   3.83786   3.83807   3.85295   3.85710
 Alpha virt. eigenvalues --    3.86898   3.87706   3.87794   3.88628   3.88896
 Alpha virt. eigenvalues --    3.89371   3.90704   3.90717   3.91053   3.91978
 Alpha virt. eigenvalues --    3.92444   3.94251   3.97486   4.01059   4.04389
 Alpha virt. eigenvalues --    4.20952   4.23155   4.23244   4.25913   4.30191
 Alpha virt. eigenvalues --    4.36039   4.37068   4.37375   4.40780   4.41008
 Alpha virt. eigenvalues --    4.42139   4.46233   4.51779   4.59207   4.59550
 Alpha virt. eigenvalues --    4.61759   4.62760   4.63921   4.64758   4.69383
 Alpha virt. eigenvalues --    4.69523   4.76221   4.77475   4.77554   4.91314
 Alpha virt. eigenvalues --    4.92392   4.94240   4.96576   4.98988   4.99495
 Alpha virt. eigenvalues --    5.03257   5.04315   5.04735   5.06775  22.98990
 Alpha virt. eigenvalues --   23.20058  23.20099  23.22162  23.44264  23.44852
 Alpha virt. eigenvalues --   23.46665  23.46833  23.48521  23.64553  23.65405
 Alpha virt. eigenvalues --   23.66218  23.67604  23.68937  23.71848  23.73264
 Alpha virt. eigenvalues --   23.78926  23.82033  23.83273  23.83467  23.84751
 Alpha virt. eigenvalues --   23.86681  23.88294  23.89815  23.90476  23.92406
 Alpha virt. eigenvalues --   23.93251  23.93704  23.93737  23.94813  23.95757
 Alpha virt. eigenvalues --   23.95844  23.97020  23.97581  23.97776  23.98059
 Alpha virt. eigenvalues --   23.98105  23.98347  23.99146  23.99673  23.99766
 Alpha virt. eigenvalues --   24.00621  24.01182  24.02459  24.03518  24.03853
 Alpha virt. eigenvalues --   24.05829  24.06742  24.06996  24.08175  24.08208
 Alpha virt. eigenvalues --   24.09269  24.09727  24.09939  24.09959  24.10343
 Alpha virt. eigenvalues --   24.10668  24.10921  24.11196  24.11513  24.11732
 Alpha virt. eigenvalues --   24.12191  24.12707  24.13611  24.14368  24.14951
          Condensed to atoms (all electrons):
 Mulliken charges:
               1
     1  C   -0.002331
     2  C    0.000309
     3  C   -0.003865
     4  C   -0.005882
     5  C   -0.003865
     6  C    0.000309
     7  C   -0.003104
     8  C   -0.000820
     9  C   -0.002331
    10  C   -0.037974
    11  C    0.007632
    12  C   -0.000963
    13  C   -0.005882
    14  C   -0.002309
    15  C   -0.002309
    16  C    0.002502
    17  C   -0.001537
    18  C    0.002011
    19  C    0.010806
    20  C    0.010805
    21  C    0.012398
    22  C   -0.009430
    23  C    0.016168
    24  C    0.002011
    25  C    0.010806
    26  C    0.010805
    27  C    0.002012
    28  C    0.016168
    29  C   -0.009430
    30  C    0.012398
    31  C    0.012397
    32  C   -0.009429
    33  C   -0.037971
    34  C   -0.001537
    35  C   -0.001538
    36  C    0.002502
    37  C   -0.003102
    38  C   -0.002309
    39  C   -0.000963
    40  C    0.016169
    41  C    0.007633
    42  C   -0.009979
    43  C    0.000855
    44  C    0.002501
    45  C    0.002012
    46  C    0.016168
    47  C   -0.002308
    48  C   -0.009429
    49  C   -0.000963
    50  C    0.012397
    51  C   -0.005882
    52  C   -0.003865
    53  C   -0.003865
    54  C   -0.005881
    55  C   -0.000963
    56  C   -0.001538
    57  C    0.002502
    58  C    0.000854
    59  C   -0.009978
    60  C    0.007633
    61  C   -0.002331
    62  C    0.000309
    63  C   -0.000820
    64  C    0.000309
    65  C   -0.002331
    66  C    0.007633
 Sum of Mulliken charges =  -0.00000
 Mulliken charges with hydrogens summed into heavy atoms:
               1
     1  C   -0.002331
     2  C    0.000309
     3  C   -0.003865
     4  C   -0.005882
     5  C   -0.003865
     6  C    0.000309
     7  C   -0.003104
     8  C   -0.000820
     9  C   -0.002331
    10  C   -0.037974
    11  C    0.007632
    12  C   -0.000963
    13  C   -0.005882
    14  C   -0.002309
    15  C   -0.002309
    16  C    0.002502
    17  C   -0.001537
    18  C    0.002011
    19  C    0.010806
    20  C    0.010805
    21  C    0.012398
    22  C   -0.009430
    23  C    0.016168
    24  C    0.002011
    25  C    0.010806
    26  C    0.010805
    27  C    0.002012
    28  C    0.016168
    29  C   -0.009430
    30  C    0.012398
    31  C    0.012397
    32  C   -0.009429
    33  C   -0.037971
    34  C   -0.001537
    35  C   -0.001538
    36  C    0.002502
    37  C   -0.003102
    38  C   -0.002309
    39  C   -0.000963
    40  C    0.016169
    41  C    0.007633
    42  C   -0.009979
    43  C    0.000855
    44  C    0.002501
    45  C    0.002012
    46  C    0.016168
    47  C   -0.002308
    48  C   -0.009429
    49  C   -0.000963
    50  C    0.012397
    51  C   -0.005882
    52  C   -0.003865
    53  C   -0.003865
    54  C   -0.005881
    55  C   -0.000963
    56  C   -0.001538
    57  C    0.002502
    58  C    0.000854
    59  C   -0.009978
    60  C    0.007633
    61  C   -0.002331
    62  C    0.000309
    63  C   -0.000820
    64  C    0.000309
    65  C   -0.002331
    66  C    0.007633
 Electronic spatial extent (au):  <R**2>=          20575.6360
 Charge=             -0.0000 electrons
 Dipole moment (field-independent basis, Debye):
    X=             -0.0375    Y=             -0.0000    Z=             -0.0001  Tot=              0.0375
 Quadrupole moment (field-independent basis, Debye-Ang):
   XX=           -372.0445   YY=           -367.0052   ZZ=           -367.3967
   XY=              0.0000   XZ=              0.0002   YZ=              0.0000
 Traceless Quadrupole moment (field-independent basis, Debye-Ang):
   XX=             -3.2291   YY=              1.8103   ZZ=              1.4188
   XY=              0.0000   XZ=              0.0002   YZ=              0.0000
 Octapole moment (field-independent basis, Debye-Ang**2):
  XXX=              9.4272  YYY=              0.0000  ZZZ=             -0.0010  XYY=             -3.2910
  XXY=             -0.0000  XXZ=             -0.0006  XZZ=             -1.2278  YZZ=             -0.0000
  YYZ=             -0.0004  XYZ=             -0.0000
 Hexadecapole moment (field-independent basis, Debye-Ang**3):
 XXXX=         -12401.6585 YYYY=         -11161.2328 ZZZZ=          -8544.6945 XXXY=              0.0001
 XXXZ=              0.0015 YYYX=             -0.0001 YYYZ=              0.0002 ZZZX=              0.0009
 ZZZY=              0.0001 XXYY=          -3918.6723 XXZZ=          -3508.2119 YYZZ=          -3292.1708
 XXYZ=              0.0000 YYXZ=              0.0004 ZZXY=              0.0000
 N-N= 9.674946255813D+03 E-N=-2.518054720464D+04  KE= 2.505101775909D+03
 No NMR shielding tensors so no spin-rotation constants.
 Leave Link  601 at Thu Jul 21 23:21:39 2022, MaxMem=  1342177280 cpu:              54.7 elap:               1.3
 (Enter /home/mkliu/g16/l9999.exe)
 1\1\GINC-NODE02\FOpt\RB3LYP\6-311G(d,p)\C66\MKLIU\21-Jul-2022\0\\#P op
 t b3lyp/6-311G(d, p) empiricaldispersion=GD3\\force\\0,1\C,12.79833050
 01,12.0848109376,21.8919397827\C,12.8060676252,13.0303980637,22.911644
 028\C,12.6900722649,14.4390032044,22.5851096638\C,12.6171527321,14.847
 8525702,21.2537925236\C,13.4956260787,15.1825928364,23.5018171151\C,14
 .128079482,14.2507205851,24.416071938\C,15.7311917549,17.106268997,18.
 8630474379\C,13.7385637707,12.9111501609,24.0169479958\C,15.4174133937
 ,14.5024329155,24.8724144084\C,16.8850977717,16.7961803538,18.10058571
 35\C,16.0892413808,15.7302210151,24.5059061492\C,15.4749928473,16.6131
 084668,23.612674261\C,14.192013563,16.3015737249,23.0459582289\C,19.25
 87188369,14.063772961,22.6051220435\C,16.2483526262,17.3102183041,22.6
 171076352\C,19.2123752608,15.4572289171,22.5850437676\C,19.3142907539,
 16.1480415698,21.3285699803\C,17.4485164971,11.5981047849,19.287461482
 6\C,17.7035592428,11.3277058966,20.721697705\C,18.4957800882,12.058987
 8244,21.6232318962\C,18.0496088906,16.9329137852,18.9188830164\C,17.62
 21899449,17.503907949,20.1750268947\C,16.1496280016,17.552554056,20.17
 67492043\C,15.4739957687,17.396060567,21.3884523042\C,14.1881694132,16
 .704410159,21.6403834666\C,13.39594908,15.9731279782,20.7388477868\C,1
 3.6410767783,15.7041329395,19.302620542\C,14.6718374925,16.1884369977,
 18.4950481289\C,15.238356733,15.3034398552,17.4622621703\C,16.63754808
 42,15.6294694379,17.3119810867\C,17.5925629517,14.5995607397,17.308176
 4439\C,17.1625679492,13.2283267817,17.4546031308\C,18.7775049275,14.75
 53649925,18.0930522083\C,15.8162546219,12.9190766393,17.3478621871\C,1
 4.8281335377,13.9846890899,17.3517965852\C,13.6975704344,13.5252064985
 ,18.1114264422\C,19.0025557948,13.5783580035,18.8500243748\C,13.085116
 7474,14.3903015137,19.0173968585\C,12.4921847494,13.8597397467,20.2182
 860007\C,18.0061475847,12.592641214,18.4817715734\C,12.5880117764,12.4
 983087264,20.5215639178\C,13.376301756,11.6389608729,19.6616932897\C,1
 3.9134487232,12.141386206,18.4863096077\C,15.2756753005,11.823343015,1
 8.1051431161\C,19.2814358716,13.2900333451,21.3732923586\C,19.48393904
 7,13.9567578037,20.1634740504\C,16.0954832004,11.1438557499,19.0054117
 207\C,19.5464021425,15.4287956461,20.1673655414\C,15.5261695724,10.587
 8238175,20.2062066661\C,19.0046254097,15.903007192,18.9150799232\C,16.
 5246959951,10.6338727756,21.2382349646\C,16.1274089965,10.7321037182,2
 2.5714237387\C,16.9329623108,11.4756937087,23.4881307818\C,18.09955674
 29,12.0875932155,23.0304003409\C,18.5089788217,13.3411908977,23.600593
 8503\C,18.3261687064,17.213654031,21.3325045156\C,17.6342701383,17.159
 0927045,22.5913263155\C,18.2536244047,16.1477116468,23.4253588028\C,17
 .5025391099,15.4478038986,24.3572841361\C,17.6781873296,14.0166662651,
 24.4995795559\C,16.4046181861,13.4378097058,24.8684835857\C,16.0547756
 131,12.1729286339,24.4084006832\C,14.6881998632,11.8870424423,24.01316
 66683\C,14.7327628756,10.9526070582,22.9039730483\C,13.7855341685,11.0
 201886067,21.8880098164\C,14.1769583358,10.7847534594,20.5152376235\\V
 ersion=ES64L-G16RevA.03\State=1-A\HF=-2515.3415315\RMSD=8.203e-09\RMSF
 =7.239e-05\Dipole=0.0069575,0.0064253,-0.011327\Quadrupole=0.3874149,0
 .4715669,-0.8589818,-0.6239221,1.3483539,1.2574966\PG=C01 [X(C66)]\\@


 READER, WHETHER YOU BE DILETTANTE OR PROFESSOR ... SHOW YOURSELF TO BE
 MORE HUMAN THAN CRITICAL, AND THEN YOUR PLEASURE WILL INCREASE.
                                           -- DOMENICO SCARLATTI (1738)
 Job cpu time:       1 days  1 hours 10 minutes 55.2 seconds.
 Elapsed time:       0 days  0 hours 31 minutes 32.8 seconds.
 File lengths (MBytes):  RWF=    867 Int=      0 D2E=      0 Chk=    107 Scr=      1
 Normal termination of Gaussian 16 at Thu Jul 21 23:21:41 2022.
