 Entering Gaussian System, Link 0=g16
 Input=10_addons_C84_14_Cl22_rank_0.gjf
 Output=10_addons_C84_14_Cl22_rank_0.log
 Initial command:
 /home/mkliu/g16/l1.exe "/data/scratch/Gau-169212.inp" -scrdir="/data/scratch/"
 Entering Link 1 = /home/mkliu/g16/l1.exe PID=    169213.
  
 Copyright (c) 1988,1990,1992,1993,1995,1998,2003,2009,2016,
            Gaussian, Inc.  All Rights Reserved.
  
 This is part of the Gaussian(R) 16 program.  It is based on
 the Gaussian(R) 09 system (copyright 2009, Gaussian, Inc.),
 the Gaussian(R) 03 system (copyright 2003, Gaussian, Inc.),
 the Gaussian(R) 98 system (copyright 1998, Gaussian, Inc.),
 the Gaussian(R) 94 system (copyright 1995, Gaussian, Inc.),
 the Gaussian 92(TM) system (copyright 1992, Gaussian, Inc.),
 the Gaussian 90(TM) system (copyright 1990, Gaussian, Inc.),
 the Gaussian 88(TM) system (copyright 1988, Gaussian, Inc.),
 the Gaussian 86(TM) system (copyright 1986, Carnegie Mellon
 University), and the Gaussian 82(TM) system (copyright 1983,
 Carnegie Mellon University). Gaussian is a federally registered
 trademark of Gaussian, Inc.
  
 This software contains proprietary and confidential information,
 including trade secrets, belonging to Gaussian, Inc.
  
 This software is provided under written license and may be
 used, copied, transmitted, or stored only in accord with that
 written license.
  
 The following legend is applicable only to US Government
 contracts under FAR:
  
                    RESTRICTED RIGHTS LEGEND
  
 Use, reproduction and disclosure by the US Government is
 subject to restrictions as set forth in subparagraphs (a)
 and (c) of the Commercial Computer Software - Restricted
 Rights clause in FAR 52.227-19.
  
 Gaussian, Inc.
 340 Quinnipiac St., Bldg. 40, Wallingford CT 06492
  
  
 ---------------------------------------------------------------
 Warning -- This program may not be used in any manner that
 competes with the business of Gaussian, Inc. or will provide
 assistance to any competitor of Gaussian, Inc.  The licensee
 of this program is prohibited from giving any competitor of
 Gaussian, Inc. access to this program.  By using this program,
 the user acknowledges that Gaussian, Inc. is engaged in the
 business of creating and licensing software in the field of
 computational chemistry and represents and warrants to the
 licensee that it is not a competitor of Gaussian, Inc. and that
 it will not use this program in any manner prohibited above.
 ---------------------------------------------------------------
  

 Cite this work as:
 Gaussian 16, Revision A.03,
 M. J. Frisch, G. W. Trucks, H. B. Schlegel, G. E. Scuseria, 
 M. A. Robb, J. R. Cheeseman, G. Scalmani, V. Barone, 
 G. A. Petersson, H. Nakatsuji, X. Li, M. Caricato, A. V. Marenich, 
 J. Bloino, B. G. Janesko, R. Gomperts, B. Mennucci, H. P. Hratchian, 
 J. V. Ortiz, A. F. Izmaylov, J. L. Sonnenberg, D. Williams-Young, 
 F. Ding, F. Lipparini, F. Egidi, J. Goings, B. Peng, A. Petrone, 
 T. Henderson, D. Ranasinghe, V. G. Zakrzewski, J. Gao, N. Rega, 
 G. Zheng, W. Liang, M. Hada, M. Ehara, K. Toyota, R. Fukuda, 
 J. Hasegawa, M. Ishida, T. Nakajima, Y. Honda, O. Kitao, H. Nakai, 
 T. Vreven, K. Throssell, J. A. Montgomery, Jr., J. E. Peralta, 
 F. Ogliaro, M. J. Bearpark, J. J. Heyd, E. N. Brothers, K. N. Kudin, 
 V. N. Staroverov, T. A. Keith, R. Kobayashi, J. Normand, 
 K. Raghavachari, A. P. Rendell, J. C. Burant, S. S. Iyengar, 
 J. Tomasi, M. Cossi, J. M. Millam, M. Klene, C. Adamo, R. Cammi, 
 J. W. Ochterski, R. L. Martin, K. Morokuma, O. Farkas, 
 J. B. Foresman, and D. J. Fox, Gaussian, Inc., Wallingford CT, 2016.
 
 ******************************************
 Gaussian 16:  ES64L-G16RevA.03 25-Dec-2016
                27-Jun-2022 
 ******************************************
 %mem=10GB
 %chk=10_addons_C84_14_Cl22_rank_0.chk
 %nprocshared=24
 Will use up to   24 processors via shared memory.
 ------------------------------------------------
 #P opt b3lyp/6-31G(d, p) empiricaldispersion=GD3
 ------------------------------------------------
 1/18=20,19=15,26=3,38=1/1,3;
 2/9=110,12=2,17=6,18=5,40=1/2;
 3/5=1,6=6,7=101,11=2,25=1,30=1,71=1,74=-5,124=31/1,2,3;
 4//1;
 5/5=2,38=5/2;
 6/7=2,8=2,9=2,10=2,28=1/1;
 7//1,2,3,16;
 1/18=20,19=15,26=3/3(2);
 2/9=110/2;
 99//99;
 2/9=110/2;
 3/5=1,6=6,7=101,11=2,25=1,30=1,71=1,74=-5,124=31/1,2,3;
 4/5=5,16=3,69=1/1;
 5/5=2,38=5/2;
 7//1,2,3,16;
 1/18=20,19=15,26=3/3(-5);
 2/9=110/2;
 6/7=2,8=2,9=2,10=2,19=2,28=1/1;
 99/9=1/99;
 Leave Link    1 at Mon Jun 27 13:15:22 2022, MaxMem=  1342177280 cpu:               0.7 elap:               0.0
 (Enter /home/mkliu/g16/l101.exe)
 -----
 force
 -----
 Symbolic Z-matrix:
 Charge =  0 Multiplicity = 1
 C                     8.28292   18.93339   10.52889 
 C                     12.50239   20.00645   8.90558 
 C                     8.27486   26.84157   10.53582 
 C                     12.28806   25.5862   8.96801 
 C                     7.96682   18.98186   9.14648 
 C                     11.89459   19.58287   10.20874 
 C                     7.96574   26.79033   9.14989 
 C                     11.86601   26.16835   10.21238 
 C                     8.96709   19.15677   8.16146 
 C                     12.15644   20.21999   11.37748 
 C                     12.14184   25.54227   11.39272 
 C                     8.96718   26.6341   8.16125 
 C                     10.29683   19.10294   8.62104 
 C                     10.29159   26.70793   8.63086 
 C                     10.61958   18.98641   9.99454 
 C                     10.60303   26.82357   10.00531 
 C                     9.61474   18.99414   10.98894 
 C                     9.60616   26.79875   11.00347 
 C                     9.8846    19.67224   12.21854 
 C                     9.87814   26.10502   12.23026 
 C                     8.80207   20.27074   12.90247 
 C                     8.80013   25.49519   12.90453 
 C                     7.47115   20.20062   12.40311 
 C                     7.46676   25.56059   12.40473 
 C                     7.21389   19.53488   11.25196 
 C                     7.20987   26.22575   11.25391 
 C                     6.10764   19.95908   10.33053 
 C                     6.10775   25.79784   10.33025 
 C                     6.68016   19.56264   9.00306 
 C                     6.68368   26.19563   9.00494 
 C                     6.37894   20.23002   7.8666 
 C                     6.38477   25.52926   7.86932 
 C                     7.33975   20.33757   6.82182 
 C                     7.35045   25.42574   6.82524 
 C                     8.6746    19.89622   6.97406 
 C                     8.67377   25.88466   6.96846 
 C                     9.73296   20.61599   6.3052 
 C                     9.73209   25.1579   6.29303 
 C                     11.0653   20.57979   6.85904 
 C                     12.74385   22.1581   7.78041 
 C                     12.69976   23.56253   7.78552 
 C                     11.05531   25.15704   6.85798 
 C                     11.33396   19.81076   7.95418 
 C                     12.89235   21.46142   8.95458 
 C                     12.87277   24.29203   8.96995 
 C                     11.33502   25.94579   7.99354 
 C                     13.09492   22.17815   10.16845 
 C                     13.10606   23.57037   10.17691 
 C                     13.08264   21.40221   11.47657 
 C                     13.06947   24.35455   11.47823 
 C                     12.40976   22.20187   12.55792 
 C                     12.40622   23.55728   12.56209 
 C                     11.14987   20.27948   12.38723 
 C                     11.14736   25.49242   12.4037 
 C                     11.30178   21.49171   13.10435 
 C                     11.29852   24.26899   13.10792 
 C                     8.95231   21.49304   13.60568 
 C                     8.95101   24.26831   13.60325 
 C                     7.72123   22.20311   13.53864 
 C                     7.71985   23.55845   13.53867 
 C                     6.67947   21.41454   12.79846 
 C                     6.67757   24.34473   12.79813 
 C                     6.24511   22.17772   11.54774 
 C                     6.24412   23.58022   11.54806 
 C                     5.95732   21.47946   10.36723 
 C                     5.95645   24.27827   10.36782 
 C                     5.65263   22.17834   9.18828 
 C                     5.65288   23.57962   9.18877 
 C                     5.44496   21.40875   7.88214 
 C                     5.45025   24.35132   7.88355 
 C                     5.95989   22.20196   6.7156 
 C                     5.9635    23.55873   6.71739 
 C                     7.01877   21.49353   6.06655 
 C                     7.02815   24.26247   6.07096 
 C                     8.03394   22.16006   5.39584 
 C                     8.03403   23.59076   5.40217 
 C                     9.37734   21.69955   5.47998 
 C                     9.38286   24.04709   5.50347 
 C                     12.09259   21.63013   6.5189 
 C                     11.87401   24.01654   6.70644 
 C                     10.21588   22.87817   5.41975 
 C                     11.45922   22.88056   5.98368 
 C                     10.19356   22.1645   13.66857 
 C                     10.19131   23.59503   13.67053 
 Cl                    4.52291   19.20389   10.70996 
 Cl                    3.70603   20.97192   7.74772 
 Cl                    3.71037   24.78891   7.74619 
 Cl                    4.5203    26.55183   10.704 
 Cl                    5.22053   21.04415   13.78146 
 Cl                    5.21533   24.70958   13.78005 
 Cl                    14.77478   20.93509   11.89398 
 Cl                    14.75307   24.85483   11.90813 
 Cl                    13.91861   18.99012   8.43373 
 Cl                    13.31825   20.94137   5.38025 
 
 ITRead=  0  0  0  0  0  0  0  0  0  0  0  0  0  0  0  0  0  0  0  0
 ITRead=  0  0  0  0  0  0  0  0  0  0  0  0  0  0  0  0  0  0  0  0
 ITRead=  0  0  0  0  0  0  0  0  0  0  0  0  0  0  0  0  0  0  0  0
 ITRead=  0  0  0  0  0  0  0  0  0  0  0  0  0  0  0  0  0  0  0  0
 ITRead=  0  0  0  0  0  0  0  0  0  0  0  0  0  0
 MicOpt= -1 -1 -1 -1 -1 -1 -1 -1 -1 -1 -1 -1 -1 -1 -1 -1 -1 -1 -1 -1
 MicOpt= -1 -1 -1 -1 -1 -1 -1 -1 -1 -1 -1 -1 -1 -1 -1 -1 -1 -1 -1 -1
 MicOpt= -1 -1 -1 -1 -1 -1 -1 -1 -1 -1 -1 -1 -1 -1 -1 -1 -1 -1 -1 -1
 MicOpt= -1 -1 -1 -1 -1 -1 -1 -1 -1 -1 -1 -1 -1 -1 -1 -1 -1 -1 -1 -1
 MicOpt= -1 -1 -1 -1 -1 -1 -1 -1 -1 -1 -1 -1 -1 -1
 NAtoms=     94 NQM=       94 NQMF=       0 NMMI=      0 NMMIF=      0
                NMic=       0 NMicF=      0.
                    Isotopes and Nuclear Properties:
 (Nuclear quadrupole moments (NQMom) in fm**2, nuclear magnetic moments (NMagM)
  in nuclear magnetons)

  Atom         1           2           3           4           5           6           7           8           9          10
 IAtWgt=          12          12          12          12          12          12          12          12          12          12
 AtmWgt=  12.0000000  12.0000000  12.0000000  12.0000000  12.0000000  12.0000000  12.0000000  12.0000000  12.0000000  12.0000000
 NucSpn=           0           0           0           0           0           0           0           0           0           0
 AtZEff=  -0.0000000  -0.0000000  -0.0000000  -0.0000000  -0.0000000  -0.0000000  -0.0000000  -0.0000000  -0.0000000  -0.0000000
 NQMom=    0.0000000   0.0000000   0.0000000   0.0000000   0.0000000   0.0000000   0.0000000   0.0000000   0.0000000   0.0000000
 NMagM=    0.0000000   0.0000000   0.0000000   0.0000000   0.0000000   0.0000000   0.0000000   0.0000000   0.0000000   0.0000000
 AtZNuc=   6.0000000   6.0000000   6.0000000   6.0000000   6.0000000   6.0000000   6.0000000   6.0000000   6.0000000   6.0000000

  Atom        11          12          13          14          15          16          17          18          19          20
 IAtWgt=          12          12          12          12          12          12          12          12          12          12
 AtmWgt=  12.0000000  12.0000000  12.0000000  12.0000000  12.0000000  12.0000000  12.0000000  12.0000000  12.0000000  12.0000000
 NucSpn=           0           0           0           0           0           0           0           0           0           0
 AtZEff=  -0.0000000  -0.0000000  -0.0000000  -0.0000000  -0.0000000  -0.0000000  -0.0000000  -0.0000000  -0.0000000  -0.0000000
 NQMom=    0.0000000   0.0000000   0.0000000   0.0000000   0.0000000   0.0000000   0.0000000   0.0000000   0.0000000   0.0000000
 NMagM=    0.0000000   0.0000000   0.0000000   0.0000000   0.0000000   0.0000000   0.0000000   0.0000000   0.0000000   0.0000000
 AtZNuc=   6.0000000   6.0000000   6.0000000   6.0000000   6.0000000   6.0000000   6.0000000   6.0000000   6.0000000   6.0000000

  Atom        21          22          23          24          25          26          27          28          29          30
 IAtWgt=          12          12          12          12          12          12          12          12          12          12
 AtmWgt=  12.0000000  12.0000000  12.0000000  12.0000000  12.0000000  12.0000000  12.0000000  12.0000000  12.0000000  12.0000000
 NucSpn=           0           0           0           0           0           0           0           0           0           0
 AtZEff=  -0.0000000  -0.0000000  -0.0000000  -0.0000000  -0.0000000  -0.0000000  -0.0000000  -0.0000000  -0.0000000  -0.0000000
 NQMom=    0.0000000   0.0000000   0.0000000   0.0000000   0.0000000   0.0000000   0.0000000   0.0000000   0.0000000   0.0000000
 NMagM=    0.0000000   0.0000000   0.0000000   0.0000000   0.0000000   0.0000000   0.0000000   0.0000000   0.0000000   0.0000000
 AtZNuc=   6.0000000   6.0000000   6.0000000   6.0000000   6.0000000   6.0000000   6.0000000   6.0000000   6.0000000   6.0000000

  Atom        31          32          33          34          35          36          37          38          39          40
 IAtWgt=          12          12          12          12          12          12          12          12          12          12
 AtmWgt=  12.0000000  12.0000000  12.0000000  12.0000000  12.0000000  12.0000000  12.0000000  12.0000000  12.0000000  12.0000000
 NucSpn=           0           0           0           0           0           0           0           0           0           0
 AtZEff=  -0.0000000  -0.0000000  -0.0000000  -0.0000000  -0.0000000  -0.0000000  -0.0000000  -0.0000000  -0.0000000  -0.0000000
 NQMom=    0.0000000   0.0000000   0.0000000   0.0000000   0.0000000   0.0000000   0.0000000   0.0000000   0.0000000   0.0000000
 NMagM=    0.0000000   0.0000000   0.0000000   0.0000000   0.0000000   0.0000000   0.0000000   0.0000000   0.0000000   0.0000000
 AtZNuc=   6.0000000   6.0000000   6.0000000   6.0000000   6.0000000   6.0000000   6.0000000   6.0000000   6.0000000   6.0000000

  Atom        41          42          43          44          45          46          47          48          49          50
 IAtWgt=          12          12          12          12          12          12          12          12          12          12
 AtmWgt=  12.0000000  12.0000000  12.0000000  12.0000000  12.0000000  12.0000000  12.0000000  12.0000000  12.0000000  12.0000000
 NucSpn=           0           0           0           0           0           0           0           0           0           0
 AtZEff=  -0.0000000  -0.0000000  -0.0000000  -0.0000000  -0.0000000  -0.0000000  -0.0000000  -0.0000000  -0.0000000  -0.0000000
 NQMom=    0.0000000   0.0000000   0.0000000   0.0000000   0.0000000   0.0000000   0.0000000   0.0000000   0.0000000   0.0000000
 NMagM=    0.0000000   0.0000000   0.0000000   0.0000000   0.0000000   0.0000000   0.0000000   0.0000000   0.0000000   0.0000000
 AtZNuc=   6.0000000   6.0000000   6.0000000   6.0000000   6.0000000   6.0000000   6.0000000   6.0000000   6.0000000   6.0000000

  Atom        51          52          53          54          55          56          57          58          59          60
 IAtWgt=          12          12          12          12          12          12          12          12          12          12
 AtmWgt=  12.0000000  12.0000000  12.0000000  12.0000000  12.0000000  12.0000000  12.0000000  12.0000000  12.0000000  12.0000000
 NucSpn=           0           0           0           0           0           0           0           0           0           0
 AtZEff=  -0.0000000  -0.0000000  -0.0000000  -0.0000000  -0.0000000  -0.0000000  -0.0000000  -0.0000000  -0.0000000  -0.0000000
 NQMom=    0.0000000   0.0000000   0.0000000   0.0000000   0.0000000   0.0000000   0.0000000   0.0000000   0.0000000   0.0000000
 NMagM=    0.0000000   0.0000000   0.0000000   0.0000000   0.0000000   0.0000000   0.0000000   0.0000000   0.0000000   0.0000000
 AtZNuc=   6.0000000   6.0000000   6.0000000   6.0000000   6.0000000   6.0000000   6.0000000   6.0000000   6.0000000   6.0000000

  Atom        61          62          63          64          65          66          67          68          69          70
 IAtWgt=          12          12          12          12          12          12          12          12          12          12
 AtmWgt=  12.0000000  12.0000000  12.0000000  12.0000000  12.0000000  12.0000000  12.0000000  12.0000000  12.0000000  12.0000000
 NucSpn=           0           0           0           0           0           0           0           0           0           0
 AtZEff=  -0.0000000  -0.0000000  -0.0000000  -0.0000000  -0.0000000  -0.0000000  -0.0000000  -0.0000000  -0.0000000  -0.0000000
 NQMom=    0.0000000   0.0000000   0.0000000   0.0000000   0.0000000   0.0000000   0.0000000   0.0000000   0.0000000   0.0000000
 NMagM=    0.0000000   0.0000000   0.0000000   0.0000000   0.0000000   0.0000000   0.0000000   0.0000000   0.0000000   0.0000000
 AtZNuc=   6.0000000   6.0000000   6.0000000   6.0000000   6.0000000   6.0000000   6.0000000   6.0000000   6.0000000   6.0000000

  Atom        71          72          73          74          75          76          77          78          79          80
 IAtWgt=          12          12          12          12          12          12          12          12          12          12
 AtmWgt=  12.0000000  12.0000000  12.0000000  12.0000000  12.0000000  12.0000000  12.0000000  12.0000000  12.0000000  12.0000000
 NucSpn=           0           0           0           0           0           0           0           0           0           0
 AtZEff=  -0.0000000  -0.0000000  -0.0000000  -0.0000000  -0.0000000  -0.0000000  -0.0000000  -0.0000000  -0.0000000  -0.0000000
 NQMom=    0.0000000   0.0000000   0.0000000   0.0000000   0.0000000   0.0000000   0.0000000   0.0000000   0.0000000   0.0000000
 NMagM=    0.0000000   0.0000000   0.0000000   0.0000000   0.0000000   0.0000000   0.0000000   0.0000000   0.0000000   0.0000000
 AtZNuc=   6.0000000   6.0000000   6.0000000   6.0000000   6.0000000   6.0000000   6.0000000   6.0000000   6.0000000   6.0000000

  Atom        81          82          83          84          85          86          87          88          89          90
 IAtWgt=          12          12          12          12          35          35          35          35          35          35
 AtmWgt=  12.0000000  12.0000000  12.0000000  12.0000000  34.9688527  34.9688527  34.9688527  34.9688527  34.9688527  34.9688527
 NucSpn=           0           0           0           0           3           3           3           3           3           3
 AtZEff=  -0.0000000  -0.0000000  -0.0000000  -0.0000000  -0.0000000  -0.0000000  -0.0000000  -0.0000000  -0.0000000  -0.0000000
 NQMom=    0.0000000   0.0000000   0.0000000   0.0000000  -8.1650000  -8.1650000  -8.1650000  -8.1650000  -8.1650000  -8.1650000
 NMagM=    0.0000000   0.0000000   0.0000000   0.0000000   0.8218740   0.8218740   0.8218740   0.8218740   0.8218740   0.8218740
 AtZNuc=   6.0000000   6.0000000   6.0000000   6.0000000  17.0000000  17.0000000  17.0000000  17.0000000  17.0000000  17.0000000

  Atom        91          92          93          94
 IAtWgt=          35          35          35          35
 AtmWgt=  34.9688527  34.9688527  34.9688527  34.9688527
 NucSpn=           3           3           3           3
 AtZEff=  -0.0000000  -0.0000000  -0.0000000  -0.0000000
 NQMom=   -8.1650000  -8.1650000  -8.1650000  -8.1650000
 NMagM=    0.8218740   0.8218740   0.8218740   0.8218740
 AtZNuc=  17.0000000  17.0000000  17.0000000  17.0000000
 Leave Link  101 at Mon Jun 27 13:15:23 2022, MaxMem=  1342177280 cpu:               6.7 elap:               0.3
 (Enter /home/mkliu/g16/l103.exe)

 GradGradGradGradGradGradGradGradGradGradGradGradGradGradGradGradGradGrad
 Berny optimization.
 Initialization pass.
                           ----------------------------
                           !    Initial Parameters    !
                           ! (Angstroms and Degrees)  !
 --------------------------                            --------------------------
 ! Name  Definition              Value          Derivative Info.                !
 --------------------------------------------------------------------------------
 ! R1    R(1,5)                  1.4189         estimate D2E/DX2                !
 ! R2    R(1,17)                 1.4103         estimate D2E/DX2                !
 ! R3    R(1,25)                 1.4239         estimate D2E/DX2                !
 ! R4    R(2,6)                  1.499          estimate D2E/DX2                !
 ! R5    R(2,43)                 1.5194         estimate D2E/DX2                !
 ! R6    R(2,44)                 1.5071         estimate D2E/DX2                !
 ! R7    R(2,93)                 1.8059         estimate D2E/DX2                !
 ! R8    R(3,7)                  1.4209         estimate D2E/DX2                !
 ! R9    R(3,18)                 1.4117         estimate D2E/DX2                !
 ! R10   R(3,26)                 1.4245         estimate D2E/DX2                !
 ! R11   R(4,8)                  1.4372         estimate D2E/DX2                !
 ! R12   R(4,45)                 1.4201         estimate D2E/DX2                !
 ! R13   R(4,46)                 1.4097         estimate D2E/DX2                !
 ! R14   R(5,9)                  1.4147         estimate D2E/DX2                !
 ! R15   R(5,29)                 1.4189         estimate D2E/DX2                !
 ! R16   R(6,10)                 1.3566         estimate D2E/DX2                !
 ! R17   R(6,15)                 1.4238         estimate D2E/DX2                !
 ! R18   R(7,12)                 1.4159         estimate D2E/DX2                !
 ! R19   R(7,30)                 1.4207         estimate D2E/DX2                !
 ! R20   R(8,11)                 1.3643         estimate D2E/DX2                !
 ! R21   R(8,16)                 1.4378         estimate D2E/DX2                !
 ! R22   R(9,13)                 1.408          estimate D2E/DX2                !
 ! R23   R(9,35)                 1.4291         estimate D2E/DX2                !
 ! R24   R(10,49)                1.5051         estimate D2E/DX2                !
 ! R25   R(10,53)                1.427          estimate D2E/DX2                !
 ! R26   R(11,50)                1.5095         estimate D2E/DX2                !
 ! R27   R(11,54)                1.419          estimate D2E/DX2                !
 ! R28   R(12,14)                1.4071         estimate D2E/DX2                !
 ! R29   R(12,36)                1.4389         estimate D2E/DX2                !
 ! R30   R(13,15)                1.4157         estimate D2E/DX2                !
 ! R31   R(13,43)                1.4217         estimate D2E/DX2                !
 ! R32   R(14,16)                1.414          estimate D2E/DX2                !
 ! R33   R(14,46)                1.4408         estimate D2E/DX2                !
 ! R34   R(15,17)                1.4137         estimate D2E/DX2                !
 ! R35   R(16,18)                1.4109         estimate D2E/DX2                !
 ! R36   R(17,19)                1.4299         estimate D2E/DX2                !
 ! R37   R(18,20)                1.4354         estimate D2E/DX2                !
 ! R38   R(19,21)                1.4134         estimate D2E/DX2                !
 ! R39   R(19,53)                1.4135         estimate D2E/DX2                !
 ! R40   R(20,22)                1.4102         estimate D2E/DX2                !
 ! R41   R(20,54)                1.42           estimate D2E/DX2                !
 ! R42   R(21,23)                1.4232         estimate D2E/DX2                !
 ! R43   R(21,57)                1.4181         estimate D2E/DX2                !
 ! R44   R(22,24)                1.4255         estimate D2E/DX2                !
 ! R45   R(22,58)                1.4199         estimate D2E/DX2                !
 ! R46   R(23,25)                1.3545         estimate D2E/DX2                !
 ! R47   R(23,61)                1.5022         estimate D2E/DX2                !
 ! R48   R(24,26)                1.3538         estimate D2E/DX2                !
 ! R49   R(24,62)                1.502          estimate D2E/DX2                !
 ! R50   R(25,27)                1.5009         estimate D2E/DX2                !
 ! R51   R(26,28)                1.5003         estimate D2E/DX2                !
 ! R52   R(27,29)                1.499          estimate D2E/DX2                !
 ! R53   R(27,65)                1.5282         estimate D2E/DX2                !
 ! R54   R(27,85)                1.796          estimate D2E/DX2                !
 ! R55   R(28,30)                1.4988         estimate D2E/DX2                !
 ! R56   R(28,66)                1.5275         estimate D2E/DX2                !
 ! R57   R(28,88)                1.7967         estimate D2E/DX2                !
 ! R58   R(29,31)                1.3519         estimate D2E/DX2                !
 ! R59   R(30,32)                1.3502         estimate D2E/DX2                !
 ! R60   R(31,33)                1.4235         estimate D2E/DX2                !
 ! R61   R(31,69)                1.504          estimate D2E/DX2                !
 ! R62   R(32,34)                1.426          estimate D2E/DX2                !
 ! R63   R(32,70)                1.5037         estimate D2E/DX2                !
 ! R64   R(33,35)                1.4141         estimate D2E/DX2                !
 ! R65   R(33,73)                1.4176         estimate D2E/DX2                !
 ! R66   R(34,36)                1.4079         estimate D2E/DX2                !
 ! R67   R(34,74)                1.4234         estimate D2E/DX2                !
 ! R68   R(35,37)                1.4442         estimate D2E/DX2                !
 ! R69   R(36,38)                1.4507         estimate D2E/DX2                !
 ! R70   R(37,39)                1.4433         estimate D2E/DX2                !
 ! R71   R(37,77)                1.4077         estimate D2E/DX2                !
 ! R72   R(38,42)                1.4388         estimate D2E/DX2                !
 ! R73   R(38,78)                1.4069         estimate D2E/DX2                !
 ! R74   R(39,43)                1.3649         estimate D2E/DX2                !
 ! R75   R(39,79)                1.5081         estimate D2E/DX2                !
 ! R76   R(40,41)                1.4051         estimate D2E/DX2                !
 ! R77   R(40,44)                1.3734         estimate D2E/DX2                !
 ! R78   R(40,79)                1.5147         estimate D2E/DX2                !
 ! R79   R(41,45)                1.4018         estimate D2E/DX2                !
 ! R80   R(41,80)                1.4326         estimate D2E/DX2                !
 ! R81   R(42,46)                1.4106         estimate D2E/DX2                !
 ! R82   R(42,80)                1.4121         estimate D2E/DX2                !
 ! R83   R(44,47)                1.4242         estimate D2E/DX2                !
 ! R84   R(45,48)                1.4255         estimate D2E/DX2                !
 ! R85   R(47,48)                1.3923         estimate D2E/DX2                !
 ! R86   R(47,49)                1.521          estimate D2E/DX2                !
 ! R87   R(48,50)                1.5198         estimate D2E/DX2                !
 ! R88   R(49,51)                1.5038         estimate D2E/DX2                !
 ! R89   R(49,91)                1.8044         estimate D2E/DX2                !
 ! R90   R(50,52)                1.5001         estimate D2E/DX2                !
 ! R91   R(50,92)                1.8082         estimate D2E/DX2                !
 ! R92   R(51,52)                1.3554         estimate D2E/DX2                !
 ! R93   R(51,55)                1.425          estimate D2E/DX2                !
 ! R94   R(52,56)                1.4253         estimate D2E/DX2                !
 ! R95   R(53,55)                1.4166         estimate D2E/DX2                !
 ! R96   R(54,56)                1.4197         estimate D2E/DX2                !
 ! R97   R(55,83)                1.4139         estimate D2E/DX2                !
 ! R98   R(56,84)                1.413          estimate D2E/DX2                !
 ! R99   R(57,59)                1.4228         estimate D2E/DX2                !
 ! R100  R(57,83)                1.4126         estimate D2E/DX2                !
 ! R101  R(58,60)                1.4226         estimate D2E/DX2                !
 ! R102  R(58,84)                1.4129         estimate D2E/DX2                !
 ! R103  R(59,60)                1.3553         estimate D2E/DX2                !
 ! R104  R(59,61)                1.5017         estimate D2E/DX2                !
 ! R105  R(60,62)                1.501          estimate D2E/DX2                !
 ! R106  R(61,63)                1.5282         estimate D2E/DX2                !
 ! R107  R(61,89)                1.7978         estimate D2E/DX2                !
 ! R108  R(62,64)                1.5281         estimate D2E/DX2                !
 ! R109  R(62,90)                1.7987         estimate D2E/DX2                !
 ! R110  R(63,64)                1.4025         estimate D2E/DX2                !
 ! R111  R(63,65)                1.4014         estimate D2E/DX2                !
 ! R112  R(64,66)                1.4011         estimate D2E/DX2                !
 ! R113  R(65,67)                1.404          estimate D2E/DX2                !
 ! R114  R(66,68)                1.4037         estimate D2E/DX2                !
 ! R115  R(67,68)                1.4013         estimate D2E/DX2                !
 ! R116  R(67,69)                1.5302         estimate D2E/DX2                !
 ! R117  R(68,70)                1.5298         estimate D2E/DX2                !
 ! R118  R(69,71)                1.5017         estimate D2E/DX2                !
 ! R119  R(69,86)                1.798          estimate D2E/DX2                !
 ! R120  R(70,72)                1.5005         estimate D2E/DX2                !
 ! R121  R(70,87)                1.7993         estimate D2E/DX2                !
 ! R122  R(71,72)                1.3568         estimate D2E/DX2                !
 ! R123  R(71,73)                1.4298         estimate D2E/DX2                !
 ! R124  R(72,74)                1.4306         estimate D2E/DX2                !
 ! R125  R(73,75)                1.3873         estimate D2E/DX2                !
 ! R126  R(74,76)                1.3821         estimate D2E/DX2                !
 ! R127  R(75,76)                1.4307         estimate D2E/DX2                !
 ! R128  R(75,77)                1.4226         estimate D2E/DX2                !
 ! R129  R(76,78)                1.4275         estimate D2E/DX2                !
 ! R130  R(77,81)                1.4477         estimate D2E/DX2                !
 ! R131  R(78,81)                1.4378         estimate D2E/DX2                !
 ! R132  R(79,82)                1.5004         estimate D2E/DX2                !
 ! R133  R(79,94)                1.8092         estimate D2E/DX2                !
 ! R134  R(80,82)                1.4089         estimate D2E/DX2                !
 ! R135  R(81,82)                1.3653         estimate D2E/DX2                !
 ! R136  R(83,84)                1.4305         estimate D2E/DX2                !
 ! A1    A(5,1,17)             121.7831         estimate D2E/DX2                !
 ! A2    A(5,1,25)             108.2439         estimate D2E/DX2                !
 ! A3    A(17,1,25)            121.6775         estimate D2E/DX2                !
 ! A4    A(6,2,43)             101.3114         estimate D2E/DX2                !
 ! A5    A(6,2,44)             110.4528         estimate D2E/DX2                !
 ! A6    A(6,2,93)             112.7117         estimate D2E/DX2                !
 ! A7    A(43,2,44)            110.1007         estimate D2E/DX2                !
 ! A8    A(43,2,93)            111.5292         estimate D2E/DX2                !
 ! A9    A(44,2,93)            110.4197         estimate D2E/DX2                !
 ! A10   A(7,3,18)             121.815          estimate D2E/DX2                !
 ! A11   A(7,3,26)             108.268          estimate D2E/DX2                !
 ! A12   A(18,3,26)            121.6654         estimate D2E/DX2                !
 ! A13   A(8,4,45)             119.266          estimate D2E/DX2                !
 ! A14   A(8,4,46)             107.2575         estimate D2E/DX2                !
 ! A15   A(45,4,46)            120.7819         estimate D2E/DX2                !
 ! A16   A(1,5,9)              121.6728         estimate D2E/DX2                !
 ! A17   A(1,5,29)             108.3287         estimate D2E/DX2                !
 ! A18   A(9,5,29)             121.3427         estimate D2E/DX2                !
 ! A19   A(2,6,10)             122.5459         estimate D2E/DX2                !
 ! A20   A(2,6,15)             110.5288         estimate D2E/DX2                !
 ! A21   A(10,6,15)            119.9458         estimate D2E/DX2                !
 ! A22   A(3,7,12)             122.0847         estimate D2E/DX2                !
 ! A23   A(3,7,30)             108.1155         estimate D2E/DX2                !
 ! A24   A(12,7,30)            121.3893         estimate D2E/DX2                !
 ! A25   A(4,8,11)             120.2546         estimate D2E/DX2                !
 ! A26   A(4,8,16)             108.5328         estimate D2E/DX2                !
 ! A27   A(11,8,16)            120.7521         estimate D2E/DX2                !
 ! A28   A(5,9,13)             115.8342         estimate D2E/DX2                !
 ! A29   A(5,9,35)             119.8537         estimate D2E/DX2                !
 ! A30   A(13,9,35)            118.9668         estimate D2E/DX2                !
 ! A31   A(6,10,49)            122.9824         estimate D2E/DX2                !
 ! A32   A(6,10,53)            119.5401         estimate D2E/DX2                !
 ! A33   A(49,10,53)           110.7779         estimate D2E/DX2                !
 ! A34   A(8,11,50)            122.2997         estimate D2E/DX2                !
 ! A35   A(8,11,54)            119.3949         estimate D2E/DX2                !
 ! A36   A(50,11,54)           111.2657         estimate D2E/DX2                !
 ! A37   A(7,12,14)            115.2705         estimate D2E/DX2                !
 ! A38   A(7,12,36)            119.4759         estimate D2E/DX2                !
 ! A39   A(14,12,36)           119.7287         estimate D2E/DX2                !
 ! A40   A(9,13,15)            122.3538         estimate D2E/DX2                !
 ! A41   A(9,13,43)            121.1189         estimate D2E/DX2                !
 ! A42   A(15,13,43)           109.2528         estimate D2E/DX2                !
 ! A43   A(12,14,16)           122.4106         estimate D2E/DX2                !
 ! A44   A(12,14,46)           120.4154         estimate D2E/DX2                !
 ! A45   A(16,14,46)           108.2835         estimate D2E/DX2                !
 ! A46   A(6,15,13)            108.398          estimate D2E/DX2                !
 ! A47   A(6,15,17)            121.8958         estimate D2E/DX2                !
 ! A48   A(13,15,17)           121.3274         estimate D2E/DX2                !
 ! A49   A(8,16,14)            107.2287         estimate D2E/DX2                !
 ! A50   A(8,16,18)            120.7124         estimate D2E/DX2                !
 ! A51   A(14,16,18)           122.0458         estimate D2E/DX2                !
 ! A52   A(1,17,15)            116.201          estimate D2E/DX2                !
 ! A53   A(1,17,19)            118.6301         estimate D2E/DX2                !
 ! A54   A(15,17,19)           118.2504         estimate D2E/DX2                !
 ! A55   A(3,18,16)            115.5574         estimate D2E/DX2                !
 ! A56   A(3,18,20)            118.4563         estimate D2E/DX2                !
 ! A57   A(16,18,20)           118.6378         estimate D2E/DX2                !
 ! A58   A(17,19,21)           118.1881         estimate D2E/DX2                !
 ! A59   A(17,19,53)           118.3775         estimate D2E/DX2                !
 ! A60   A(21,19,53)           116.4804         estimate D2E/DX2                !
 ! A61   A(18,20,22)           118.2173         estimate D2E/DX2                !
 ! A62   A(18,20,54)           118.8348         estimate D2E/DX2                !
 ! A63   A(22,20,54)           115.9973         estimate D2E/DX2                !
 ! A64   A(19,21,23)           121.706          estimate D2E/DX2                !
 ! A65   A(19,21,57)           121.5849         estimate D2E/DX2                !
 ! A66   A(23,21,57)           108.3919         estimate D2E/DX2                !
 ! A67   A(20,22,24)           121.8412         estimate D2E/DX2                !
 ! A68   A(20,22,58)           121.8502         estimate D2E/DX2                !
 ! A69   A(24,22,58)           108.154          estimate D2E/DX2                !
 ! A70   A(21,23,25)           120.002          estimate D2E/DX2                !
 ! A71   A(21,23,61)           111.1416         estimate D2E/DX2                !
 ! A72   A(25,23,61)           121.3834         estimate D2E/DX2                !
 ! A73   A(22,24,26)           119.8732         estimate D2E/DX2                !
 ! A74   A(22,24,62)           111.2545         estimate D2E/DX2                !
 ! A75   A(26,24,62)           121.3781         estimate D2E/DX2                !
 ! A76   A(1,25,23)            119.7767         estimate D2E/DX2                !
 ! A77   A(1,25,27)            111.1618         estimate D2E/DX2                !
 ! A78   A(23,25,27)           121.5227         estimate D2E/DX2                !
 ! A79   A(3,26,24)            119.9381         estimate D2E/DX2                !
 ! A80   A(3,26,28)            111.2331         estimate D2E/DX2                !
 ! A81   A(24,26,28)           121.5062         estimate D2E/DX2                !
 ! A82   A(25,27,29)           100.8011         estimate D2E/DX2                !
 ! A83   A(25,27,65)           109.8116         estimate D2E/DX2                !
 ! A84   A(25,27,85)           113.6911         estimate D2E/DX2                !
 ! A85   A(29,27,65)           108.7803         estimate D2E/DX2                !
 ! A86   A(29,27,85)           114.3857         estimate D2E/DX2                !
 ! A87   A(65,27,85)           109.0539         estimate D2E/DX2                !
 ! A88   A(26,28,30)           100.7434         estimate D2E/DX2                !
 ! A89   A(26,28,66)           109.9592         estimate D2E/DX2                !
 ! A90   A(26,28,88)           113.6579         estimate D2E/DX2                !
 ! A91   A(30,28,66)           108.895          estimate D2E/DX2                !
 ! A92   A(30,28,88)           114.335          estimate D2E/DX2                !
 ! A93   A(66,28,88)           108.9549         estimate D2E/DX2                !
 ! A94   A(5,29,27)            111.4114         estimate D2E/DX2                !
 ! A95   A(5,29,31)            119.279          estimate D2E/DX2                !
 ! A96   A(27,29,31)           121.9222         estimate D2E/DX2                !
 ! A97   A(7,30,28)            111.5707         estimate D2E/DX2                !
 ! A98   A(7,30,32)            119.4847         estimate D2E/DX2                !
 ! A99   A(28,30,32)           121.8481         estimate D2E/DX2                !
 ! A100  A(29,31,33)           120.2588         estimate D2E/DX2                !
 ! A101  A(29,31,69)           121.1031         estimate D2E/DX2                !
 ! A102  A(33,31,69)           111.5629         estimate D2E/DX2                !
 ! A103  A(30,32,34)           120.1148         estimate D2E/DX2                !
 ! A104  A(30,32,70)           121.0807         estimate D2E/DX2                !
 ! A105  A(34,32,70)           111.7734         estimate D2E/DX2                !
 ! A106  A(31,33,35)           122.312          estimate D2E/DX2                !
 ! A107  A(31,33,73)           107.4467         estimate D2E/DX2                !
 ! A108  A(35,33,73)           121.7062         estimate D2E/DX2                !
 ! A109  A(32,34,36)           122.5731         estimate D2E/DX2                !
 ! A110  A(32,34,74)           107.097          estimate D2E/DX2                !
 ! A111  A(36,34,74)           122.2161         estimate D2E/DX2                !
 ! A112  A(9,35,33)            116.3678         estimate D2E/DX2                !
 ! A113  A(9,35,37)            119.5197         estimate D2E/DX2                !
 ! A114  A(33,35,37)           119.1015         estimate D2E/DX2                !
 ! A115  A(12,36,34)           116.4707         estimate D2E/DX2                !
 ! A116  A(12,36,38)           119.8762         estimate D2E/DX2                !
 ! A117  A(34,36,38)           118.3619         estimate D2E/DX2                !
 ! A118  A(35,37,39)           119.0964         estimate D2E/DX2                !
 ! A119  A(35,37,77)           118.0353         estimate D2E/DX2                !
 ! A120  A(39,37,77)           118.5201         estimate D2E/DX2                !
 ! A121  A(36,38,42)           119.2374         estimate D2E/DX2                !
 ! A122  A(36,38,78)           118.4095         estimate D2E/DX2                !
 ! A123  A(42,38,78)           116.6275         estimate D2E/DX2                !
 ! A124  A(37,39,43)           120.2465         estimate D2E/DX2                !
 ! A125  A(37,39,79)           121.6545         estimate D2E/DX2                !
 ! A126  A(43,39,79)           116.0607         estimate D2E/DX2                !
 ! A127  A(41,40,44)           120.4854         estimate D2E/DX2                !
 ! A128  A(41,40,79)           109.7507         estimate D2E/DX2                !
 ! A129  A(44,40,79)           125.572          estimate D2E/DX2                !
 ! A130  A(40,41,45)           121.2887         estimate D2E/DX2                !
 ! A131  A(40,41,80)           109.3962         estimate D2E/DX2                !
 ! A132  A(45,41,80)           122.8647         estimate D2E/DX2                !
 ! A133  A(38,42,46)           119.8755         estimate D2E/DX2                !
 ! A134  A(38,42,80)           119.4433         estimate D2E/DX2                !
 ! A135  A(46,42,80)           115.0264         estimate D2E/DX2                !
 ! A136  A(2,43,13)            109.3531         estimate D2E/DX2                !
 ! A137  A(2,43,39)            125.5347         estimate D2E/DX2                !
 ! A138  A(13,43,39)           120.8821         estimate D2E/DX2                !
 ! A139  A(2,44,40)            115.7189         estimate D2E/DX2                !
 ! A140  A(2,44,47)            123.3928         estimate D2E/DX2                !
 ! A141  A(40,44,47)           119.2617         estimate D2E/DX2                !
 ! A142  A(4,45,41)            114.9784         estimate D2E/DX2                !
 ! A143  A(4,45,48)            121.9981         estimate D2E/DX2                !
 ! A144  A(41,45,48)           118.1751         estimate D2E/DX2                !
 ! A145  A(4,46,14)            108.5893         estimate D2E/DX2                !
 ! A146  A(4,46,42)            123.223          estimate D2E/DX2                !
 ! A147  A(14,46,42)           120.5487         estimate D2E/DX2                !
 ! A148  A(44,47,48)           120.6348         estimate D2E/DX2                !
 ! A149  A(44,47,49)           118.3695         estimate D2E/DX2                !
 ! A150  A(48,47,49)           120.3292         estimate D2E/DX2                !
 ! A151  A(45,48,47)           119.9852         estimate D2E/DX2                !
 ! A152  A(45,48,50)           117.3772         estimate D2E/DX2                !
 ! A153  A(47,48,50)           121.3973         estimate D2E/DX2                !
 ! A154  A(10,49,47)           110.4299         estimate D2E/DX2                !
 ! A155  A(10,49,51)           100.9334         estimate D2E/DX2                !
 ! A156  A(10,49,91)           112.8916         estimate D2E/DX2                !
 ! A157  A(47,49,51)           110.5337         estimate D2E/DX2                !
 ! A158  A(47,49,91)           108.8719         estimate D2E/DX2                !
 ! A159  A(51,49,91)           113.0123         estimate D2E/DX2                !
 ! A160  A(11,50,48)           111.8572         estimate D2E/DX2                !
 ! A161  A(11,50,52)           100.8016         estimate D2E/DX2                !
 ! A162  A(11,50,92)           111.5896         estimate D2E/DX2                !
 ! A163  A(48,50,52)           110.7987         estimate D2E/DX2                !
 ! A164  A(48,50,92)           108.9005         estimate D2E/DX2                !
 ! A165  A(52,50,92)           112.7634         estimate D2E/DX2                !
 ! A166  A(49,51,52)           122.3523         estimate D2E/DX2                !
 ! A167  A(49,51,55)           111.0164         estimate D2E/DX2                !
 ! A168  A(52,51,55)           119.68           estimate D2E/DX2                !
 ! A169  A(50,52,51)           121.8767         estimate D2E/DX2                !
 ! A170  A(50,52,56)           110.7889         estimate D2E/DX2                !
 ! A171  A(51,52,56)           120.1687         estimate D2E/DX2                !
 ! A172  A(10,53,19)           121.94           estimate D2E/DX2                !
 ! A173  A(10,53,55)           108.5561         estimate D2E/DX2                !
 ! A174  A(19,53,55)           121.6011         estimate D2E/DX2                !
 ! A175  A(11,54,20)           121.6182         estimate D2E/DX2                !
 ! A176  A(11,54,56)           108.0025         estimate D2E/DX2                !
 ! A177  A(20,54,56)           121.8389         estimate D2E/DX2                !
 ! A178  A(51,55,53)           108.4044         estimate D2E/DX2                !
 ! A179  A(51,55,83)           121.6896         estimate D2E/DX2                !
 ! A180  A(53,55,83)           121.6775         estimate D2E/DX2                !
 ! A181  A(52,56,54)           108.8502         estimate D2E/DX2                !
 ! A182  A(52,56,84)           121.5526         estimate D2E/DX2                !
 ! A183  A(54,56,84)           121.6742         estimate D2E/DX2                !
 ! A184  A(21,57,59)           108.3685         estimate D2E/DX2                !
 ! A185  A(21,57,83)           121.6586         estimate D2E/DX2                !
 ! A186  A(59,57,83)           121.68           estimate D2E/DX2                !
 ! A187  A(22,58,60)           108.472          estimate D2E/DX2                !
 ! A188  A(22,58,84)           121.9015         estimate D2E/DX2                !
 ! A189  A(60,58,84)           121.608          estimate D2E/DX2                !
 ! A190  A(57,59,60)           119.9973         estimate D2E/DX2                !
 ! A191  A(57,59,61)           111.1872         estimate D2E/DX2                !
 ! A192  A(60,59,61)           121.6304         estimate D2E/DX2                !
 ! A193  A(58,60,59)           119.8742         estimate D2E/DX2                !
 ! A194  A(58,60,62)           111.2201         estimate D2E/DX2                !
 ! A195  A(59,60,62)           121.6372         estimate D2E/DX2                !
 ! A196  A(23,61,59)           100.8634         estimate D2E/DX2                !
 ! A197  A(23,61,63)           109.7525         estimate D2E/DX2                !
 ! A198  A(23,61,89)           113.8973         estimate D2E/DX2                !
 ! A199  A(59,61,63)           109.7757         estimate D2E/DX2                !
 ! A200  A(59,61,89)           113.6821         estimate D2E/DX2                !
 ! A201  A(63,61,89)           108.6466         estimate D2E/DX2                !
 ! A202  A(24,62,60)           100.8608         estimate D2E/DX2                !
 ! A203  A(24,62,64)           109.8633         estimate D2E/DX2                !
 ! A204  A(24,62,90)           113.9492         estimate D2E/DX2                !
 ! A205  A(60,62,64)           109.7849         estimate D2E/DX2                !
 ! A206  A(60,62,90)           113.667          estimate D2E/DX2                !
 ! A207  A(64,62,90)           108.5098         estimate D2E/DX2                !
 ! A208  A(61,63,64)           119.9611         estimate D2E/DX2                !
 ! A209  A(61,63,65)           119.9309         estimate D2E/DX2                !
 ! A210  A(64,63,65)           119.8872         estimate D2E/DX2                !
 ! A211  A(62,64,63)           120.0195         estimate D2E/DX2                !
 ! A212  A(62,64,66)           119.8741         estimate D2E/DX2                !
 ! A213  A(63,64,66)           119.88           estimate D2E/DX2                !
 ! A214  A(27,65,63)           119.7172         estimate D2E/DX2                !
 ! A215  A(27,65,67)           119.7622         estimate D2E/DX2                !
 ! A216  A(63,65,67)           120.2577         estimate D2E/DX2                !
 ! A217  A(28,66,64)           119.7365         estimate D2E/DX2                !
 ! A218  A(28,66,68)           119.7273         estimate D2E/DX2                !
 ! A219  A(64,66,68)           120.2642         estimate D2E/DX2                !
 ! A220  A(65,67,68)           119.8317         estimate D2E/DX2                !
 ! A221  A(65,67,69)           119.727          estimate D2E/DX2                !
 ! A222  A(68,67,69)           120.2164         estimate D2E/DX2                !
 ! A223  A(66,68,67)           119.8704         estimate D2E/DX2                !
 ! A224  A(66,68,70)           119.6191         estimate D2E/DX2                !
 ! A225  A(67,68,70)           120.274          estimate D2E/DX2                !
 ! A226  A(31,69,67)           108.5853         estimate D2E/DX2                !
 ! A227  A(31,69,71)           101.1289         estimate D2E/DX2                !
 ! A228  A(31,69,86)           114.1687         estimate D2E/DX2                !
 ! A229  A(67,69,71)           110.5412         estimate D2E/DX2                !
 ! A230  A(67,69,86)           108.4975         estimate D2E/DX2                !
 ! A231  A(71,69,86)           113.6959         estimate D2E/DX2                !
 ! A232  A(32,70,68)           108.7193         estimate D2E/DX2                !
 ! A233  A(32,70,72)           101.1778         estimate D2E/DX2                !
 ! A234  A(32,70,87)           114.1869         estimate D2E/DX2                !
 ! A235  A(68,70,72)           110.5687         estimate D2E/DX2                !
 ! A236  A(68,70,87)           108.4149         estimate D2E/DX2                !
 ! A237  A(72,70,87)           113.571          estimate D2E/DX2                !
 ! A238  A(69,71,72)           121.8767         estimate D2E/DX2                !
 ! A239  A(69,71,73)           110.1722         estimate D2E/DX2                !
 ! A240  A(72,71,73)           119.6101         estimate D2E/DX2                !
 ! A241  A(70,72,71)           121.8923         estimate D2E/DX2                !
 ! A242  A(70,72,74)           110.2358         estimate D2E/DX2                !
 ! A243  A(71,72,74)           119.5582         estimate D2E/DX2                !
 ! A244  A(33,73,71)           109.2596         estimate D2E/DX2                !
 ! A245  A(33,73,75)           118.9239         estimate D2E/DX2                !
 ! A246  A(71,73,75)           121.5554         estimate D2E/DX2                !
 ! A247  A(34,74,72)           109.3351         estimate D2E/DX2                !
 ! A248  A(34,74,76)           119.2624         estimate D2E/DX2                !
 ! A249  A(72,74,76)           121.4121         estimate D2E/DX2                !
 ! A250  A(73,75,76)           118.5771         estimate D2E/DX2                !
 ! A251  A(73,75,77)           120.4559         estimate D2E/DX2                !
 ! A252  A(76,75,77)           108.8675         estimate D2E/DX2                !
 ! A253  A(74,76,75)           119.215          estimate D2E/DX2                !
 ! A254  A(74,76,78)           119.8657         estimate D2E/DX2                !
 ! A255  A(75,76,78)           108.6647         estimate D2E/DX2                !
 ! A256  A(37,77,75)           121.4937         estimate D2E/DX2                !
 ! A257  A(37,77,81)           120.3131         estimate D2E/DX2                !
 ! A258  A(75,77,81)           106.3176         estimate D2E/DX2                !
 ! A259  A(38,78,76)           121.7869         estimate D2E/DX2                !
 ! A260  A(38,78,81)           122.0572         estimate D2E/DX2                !
 ! A261  A(76,78,81)           106.4644         estimate D2E/DX2                !
 ! A262  A(39,79,40)           110.3535         estimate D2E/DX2                !
 ! A263  A(39,79,82)           111.9229         estimate D2E/DX2                !
 ! A264  A(39,79,94)           109.7726         estimate D2E/DX2                !
 ! A265  A(40,79,82)           100.8419         estimate D2E/DX2                !
 ! A266  A(40,79,94)           111.4434         estimate D2E/DX2                !
 ! A267  A(82,79,94)           112.2562         estimate D2E/DX2                !
 ! A268  A(41,80,42)           120.6176         estimate D2E/DX2                !
 ! A269  A(41,80,82)           107.4927         estimate D2E/DX2                !
 ! A270  A(42,80,82)           122.384          estimate D2E/DX2                !
 ! A271  A(77,81,78)           108.8966         estimate D2E/DX2                !
 ! A272  A(77,81,82)           120.7794         estimate D2E/DX2                !
 ! A273  A(78,81,82)           120.1426         estimate D2E/DX2                !
 ! A274  A(79,82,80)           111.3889         estimate D2E/DX2                !
 ! A275  A(79,82,81)           122.027          estimate D2E/DX2                !
 ! A276  A(80,82,81)           118.7799         estimate D2E/DX2                !
 ! A277  A(55,83,57)           116.4082         estimate D2E/DX2                !
 ! A278  A(55,83,84)           118.5298         estimate D2E/DX2                !
 ! A279  A(57,83,84)           118.2946         estimate D2E/DX2                !
 ! A280  A(56,84,58)           116.2075         estimate D2E/DX2                !
 ! A281  A(56,84,83)           118.3712         estimate D2E/DX2                !
 ! A282  A(58,84,83)           118.545          estimate D2E/DX2                !
 ! D1    D(17,1,5,9)            -3.0165         estimate D2E/DX2                !
 ! D2    D(17,1,5,29)         -151.0364         estimate D2E/DX2                !
 ! D3    D(25,1,5,9)           145.7121         estimate D2E/DX2                !
 ! D4    D(25,1,5,29)           -2.3078         estimate D2E/DX2                !
 ! D5    D(5,1,17,15)           -5.4038         estimate D2E/DX2                !
 ! D6    D(5,1,17,19)          145.0134         estimate D2E/DX2                !
 ! D7    D(25,1,17,15)        -150.0021         estimate D2E/DX2                !
 ! D8    D(25,1,17,19)           0.415          estimate D2E/DX2                !
 ! D9    D(5,1,25,23)         -147.8699         estimate D2E/DX2                !
 ! D10   D(5,1,25,27)            2.2898         estimate D2E/DX2                !
 ! D11   D(17,1,25,23)           0.8983         estimate D2E/DX2                !
 ! D12   D(17,1,25,27)         151.0581         estimate D2E/DX2                !
 ! D13   D(43,2,6,10)         -141.0491         estimate D2E/DX2                !
 ! D14   D(43,2,6,15)            9.5619         estimate D2E/DX2                !
 ! D15   D(44,2,6,10)          -24.3915         estimate D2E/DX2                !
 ! D16   D(44,2,6,15)          126.2195         estimate D2E/DX2                !
 ! D17   D(93,2,6,10)           99.6481         estimate D2E/DX2                !
 ! D18   D(93,2,6,15)         -109.7409         estimate D2E/DX2                !
 ! D19   D(6,2,43,13)          -10.6544         estimate D2E/DX2                !
 ! D20   D(6,2,43,39)          146.1797         estimate D2E/DX2                !
 ! D21   D(44,2,43,13)        -127.5698         estimate D2E/DX2                !
 ! D22   D(44,2,43,39)          29.2643         estimate D2E/DX2                !
 ! D23   D(93,2,43,13)         109.4902         estimate D2E/DX2                !
 ! D24   D(93,2,43,39)         -93.6756         estimate D2E/DX2                !
 ! D25   D(6,2,44,40)         -144.957          estimate D2E/DX2                !
 ! D26   D(6,2,44,47)           20.3594         estimate D2E/DX2                !
 ! D27   D(43,2,44,40)         -33.8937         estimate D2E/DX2                !
 ! D28   D(43,2,44,47)         131.4228         estimate D2E/DX2                !
 ! D29   D(93,2,44,40)          89.6947         estimate D2E/DX2                !
 ! D30   D(93,2,44,47)        -104.9888         estimate D2E/DX2                !
 ! D31   D(18,3,7,12)            2.851          estimate D2E/DX2                !
 ! D32   D(18,3,7,30)          151.2703         estimate D2E/DX2                !
 ! D33   D(26,3,7,12)         -145.9478         estimate D2E/DX2                !
 ! D34   D(26,3,7,30)            2.4715         estimate D2E/DX2                !
 ! D35   D(7,3,18,16)            5.463          estimate D2E/DX2                !
 ! D36   D(7,3,18,20)         -144.2411         estimate D2E/DX2                !
 ! D37   D(26,3,18,16)         150.1544         estimate D2E/DX2                !
 ! D38   D(26,3,18,20)           0.4503         estimate D2E/DX2                !
 ! D39   D(7,3,26,24)          147.7907         estimate D2E/DX2                !
 ! D40   D(7,3,26,28)           -2.7544         estimate D2E/DX2                !
 ! D41   D(18,3,26,24)          -1.0642         estimate D2E/DX2                !
 ! D42   D(18,3,26,28)        -151.6093         estimate D2E/DX2                !
 ! D43   D(45,4,8,11)            6.3316         estimate D2E/DX2                !
 ! D44   D(45,4,8,16)         -138.7397         estimate D2E/DX2                !
 ! D45   D(46,4,8,11)          148.3673         estimate D2E/DX2                !
 ! D46   D(46,4,8,16)            3.296          estimate D2E/DX2                !
 ! D47   D(8,4,45,41)          152.2333         estimate D2E/DX2                !
 ! D48   D(8,4,45,48)           -2.6279         estimate D2E/DX2                !
 ! D49   D(46,4,45,41)          15.3753         estimate D2E/DX2                !
 ! D50   D(46,4,45,48)        -139.4858         estimate D2E/DX2                !
 ! D51   D(8,4,46,14)           -2.1346         estimate D2E/DX2                !
 ! D52   D(8,4,46,42)         -151.5985         estimate D2E/DX2                !
 ! D53   D(45,4,46,14)         139.2089         estimate D2E/DX2                !
 ! D54   D(45,4,46,42)         -10.2549         estimate D2E/DX2                !
 ! D55   D(1,5,9,13)             8.0067         estimate D2E/DX2                !
 ! D56   D(1,5,9,35)          -145.9274         estimate D2E/DX2                !
 ! D57   D(29,5,9,13)          151.9448         estimate D2E/DX2                !
 ! D58   D(29,5,9,35)           -1.9893         estimate D2E/DX2                !
 ! D59   D(1,5,29,27)            1.5163         estimate D2E/DX2                !
 ! D60   D(1,5,29,31)          152.0929         estimate D2E/DX2                !
 ! D61   D(9,5,29,27)         -146.6296         estimate D2E/DX2                !
 ! D62   D(9,5,29,31)            3.947          estimate D2E/DX2                !
 ! D63   D(2,6,10,49)           -0.3092         estimate D2E/DX2                !
 ! D64   D(2,6,10,53)          148.3248         estimate D2E/DX2                !
 ! D65   D(15,6,10,49)        -148.2781         estimate D2E/DX2                !
 ! D66   D(15,6,10,53)           0.3559         estimate D2E/DX2                !
 ! D67   D(2,6,15,13)           -5.2376         estimate D2E/DX2                !
 ! D68   D(2,6,15,17)         -153.7095         estimate D2E/DX2                !
 ! D69   D(10,6,15,13)         146.2462         estimate D2E/DX2                !
 ! D70   D(10,6,15,17)          -2.2256         estimate D2E/DX2                !
 ! D71   D(3,7,12,14)           -7.8944         estimate D2E/DX2                !
 ! D72   D(3,7,12,36)          145.8365         estimate D2E/DX2                !
 ! D73   D(30,7,12,14)        -152.2274         estimate D2E/DX2                !
 ! D74   D(30,7,12,36)           1.5035         estimate D2E/DX2                !
 ! D75   D(3,7,30,28)           -1.3286         estimate D2E/DX2                !
 ! D76   D(3,7,30,32)         -152.416          estimate D2E/DX2                !
 ! D77   D(12,7,30,28)         147.3537         estimate D2E/DX2                !
 ! D78   D(12,7,30,32)          -3.7337         estimate D2E/DX2                !
 ! D79   D(4,8,11,50)            9.8485         estimate D2E/DX2                !
 ! D80   D(4,8,11,54)         -138.214          estimate D2E/DX2                !
 ! D81   D(16,8,11,50)         150.6737         estimate D2E/DX2                !
 ! D82   D(16,8,11,54)           2.6112         estimate D2E/DX2                !
 ! D83   D(4,8,16,14)           -3.1882         estimate D2E/DX2                !
 ! D84   D(4,8,16,18)          142.9483         estimate D2E/DX2                !
 ! D85   D(11,8,16,14)        -148.054          estimate D2E/DX2                !
 ! D86   D(11,8,16,18)          -1.9175         estimate D2E/DX2                !
 ! D87   D(5,9,13,15)           -4.7723         estimate D2E/DX2                !
 ! D88   D(5,9,13,43)         -151.741          estimate D2E/DX2                !
 ! D89   D(35,9,13,15)         149.4051         estimate D2E/DX2                !
 ! D90   D(35,9,13,43)           2.4363         estimate D2E/DX2                !
 ! D91   D(5,9,35,33)           -4.2352         estimate D2E/DX2                !
 ! D92   D(5,9,35,37)          150.5199         estimate D2E/DX2                !
 ! D93   D(13,9,35,33)        -157.3605         estimate D2E/DX2                !
 ! D94   D(13,9,35,37)          -2.6055         estimate D2E/DX2                !
 ! D95   D(6,10,49,47)          28.6534         estimate D2E/DX2                !
 ! D96   D(6,10,49,51)         145.6011         estimate D2E/DX2                !
 ! D97   D(6,10,49,91)         -93.4843         estimate D2E/DX2                !
 ! D98   D(53,10,49,47)       -122.3771         estimate D2E/DX2                !
 ! D99   D(53,10,49,51)         -5.4294         estimate D2E/DX2                !
 ! D100  D(53,10,49,91)        115.4852         estimate D2E/DX2                !
 ! D101  D(6,10,53,19)           1.0804         estimate D2E/DX2                !
 ! D102  D(6,10,53,55)        -148.3059         estimate D2E/DX2                !
 ! D103  D(49,10,53,19)        153.2413         estimate D2E/DX2                !
 ! D104  D(49,10,53,55)          3.855          estimate D2E/DX2                !
 ! D105  D(8,11,50,48)         -27.1454         estimate D2E/DX2                !
 ! D106  D(8,11,50,52)        -144.9216         estimate D2E/DX2                !
 ! D107  D(8,11,50,92)          95.1363         estimate D2E/DX2                !
 ! D108  D(54,11,50,48)        123.2135         estimate D2E/DX2                !
 ! D109  D(54,11,50,52)          5.4373         estimate D2E/DX2                !
 ! D110  D(54,11,50,92)       -114.5049         estimate D2E/DX2                !
 ! D111  D(8,11,54,20)          -1.4286         estimate D2E/DX2                !
 ! D112  D(8,11,54,56)         146.9403         estimate D2E/DX2                !
 ! D113  D(50,11,54,20)       -152.7555         estimate D2E/DX2                !
 ! D114  D(50,11,54,56)         -4.3867         estimate D2E/DX2                !
 ! D115  D(7,12,14,16)           4.803          estimate D2E/DX2                !
 ! D116  D(7,12,14,46)         148.2798         estimate D2E/DX2                !
 ! D117  D(36,12,14,16)       -148.8569         estimate D2E/DX2                !
 ! D118  D(36,12,14,46)         -5.3801         estimate D2E/DX2                !
 ! D119  D(7,12,36,34)           4.2753         estimate D2E/DX2                !
 ! D120  D(7,12,36,38)        -149.6291         estimate D2E/DX2                !
 ! D121  D(14,12,36,34)        156.8305         estimate D2E/DX2                !
 ! D122  D(14,12,36,38)          2.926          estimate D2E/DX2                !
 ! D123  D(9,13,15,6)         -152.3318         estimate D2E/DX2                !
 ! D124  D(9,13,15,17)          -3.6462         estimate D2E/DX2                !
 ! D125  D(43,13,15,6)          -1.9554         estimate D2E/DX2                !
 ! D126  D(43,13,15,17)        146.7301         estimate D2E/DX2                !
 ! D127  D(9,13,43,2)          159.0789         estimate D2E/DX2                !
 ! D128  D(9,13,43,39)           0.9805         estimate D2E/DX2                !
 ! D129  D(15,13,43,2)           8.272          estimate D2E/DX2                !
 ! D130  D(15,13,43,39)       -149.8264         estimate D2E/DX2                !
 ! D131  D(12,14,16,8)         149.1365         estimate D2E/DX2                !
 ! D132  D(12,14,16,18)          3.5516         estimate D2E/DX2                !
 ! D133  D(46,14,16,8)           1.8563         estimate D2E/DX2                !
 ! D134  D(46,14,16,18)       -143.7286         estimate D2E/DX2                !
 ! D135  D(12,14,46,4)        -147.877          estimate D2E/DX2                !
 ! D136  D(12,14,46,42)          2.5497         estimate D2E/DX2                !
 ! D137  D(16,14,46,4)           0.1746         estimate D2E/DX2                !
 ! D138  D(16,14,46,42)        150.6013         estimate D2E/DX2                !
 ! D139  D(6,15,17,1)          153.1158         estimate D2E/DX2                !
 ! D140  D(6,15,17,19)           2.5822         estimate D2E/DX2                !
 ! D141  D(13,15,17,1)           8.6279         estimate D2E/DX2                !
 ! D142  D(13,15,17,19)       -141.9057         estimate D2E/DX2                !
 ! D143  D(8,16,18,3)         -149.6863         estimate D2E/DX2                !
 ! D144  D(8,16,18,20)          -0.04           estimate D2E/DX2                !
 ! D145  D(14,16,18,3)          -8.581          estimate D2E/DX2                !
 ! D146  D(14,16,18,20)        141.0653         estimate D2E/DX2                !
 ! D147  D(1,17,19,21)          -1.1049         estimate D2E/DX2                !
 ! D148  D(1,17,19,53)        -150.9288         estimate D2E/DX2                !
 ! D149  D(15,17,19,21)        148.7062         estimate D2E/DX2                !
 ! D150  D(15,17,19,53)         -1.1178         estimate D2E/DX2                !
 ! D151  D(3,18,20,22)           0.2696         estimate D2E/DX2                !
 ! D152  D(3,18,20,54)         149.9547         estimate D2E/DX2                !
 ! D153  D(16,18,20,22)       -148.496          estimate D2E/DX2                !
 ! D154  D(16,18,20,54)          1.1891         estimate D2E/DX2                !
 ! D155  D(17,19,21,23)          0.5649         estimate D2E/DX2                !
 ! D156  D(17,19,21,57)       -144.0399         estimate D2E/DX2                !
 ! D157  D(53,19,21,23)        150.955          estimate D2E/DX2                !
 ! D158  D(53,19,21,57)          6.3502         estimate D2E/DX2                !
 ! D159  D(17,19,53,10)         -0.6756         estimate D2E/DX2                !
 ! D160  D(17,19,53,55)        144.7955         estimate D2E/DX2                !
 ! D161  D(21,19,53,10)       -151.0077         estimate D2E/DX2                !
 ! D162  D(21,19,53,55)         -5.5366         estimate D2E/DX2                !
 ! D163  D(18,20,22,24)         -0.4145         estimate D2E/DX2                !
 ! D164  D(18,20,22,58)        144.4288         estimate D2E/DX2                !
 ! D165  D(54,20,22,24)       -150.9457         estimate D2E/DX2                !
 ! D166  D(54,20,22,58)         -6.1024         estimate D2E/DX2                !
 ! D167  D(18,20,54,11)         -0.4979         estimate D2E/DX2                !
 ! D168  D(18,20,54,56)       -144.5455         estimate D2E/DX2                !
 ! D169  D(22,20,54,11)        149.843          estimate D2E/DX2                !
 ! D170  D(22,20,54,56)          5.7954         estimate D2E/DX2                !
 ! D171  D(19,21,23,25)          0.7448         estimate D2E/DX2                !
 ! D172  D(19,21,23,61)       -149.4837         estimate D2E/DX2                !
 ! D173  D(57,21,23,25)        149.4145         estimate D2E/DX2                !
 ! D174  D(57,21,23,61)         -0.814          estimate D2E/DX2                !
 ! D175  D(19,21,57,59)        148.0743         estimate D2E/DX2                !
 ! D176  D(19,21,57,83)         -0.6695         estimate D2E/DX2                !
 ! D177  D(23,21,57,59)         -0.6408         estimate D2E/DX2                !
 ! D178  D(23,21,57,83)       -149.3845         estimate D2E/DX2                !
 ! D179  D(20,22,24,26)         -0.1853         estimate D2E/DX2                !
 ! D180  D(20,22,24,62)        150.0092         estimate D2E/DX2                !
 ! D181  D(58,22,24,26)       -149.2055         estimate D2E/DX2                !
 ! D182  D(58,22,24,62)          0.9891         estimate D2E/DX2                !
 ! D183  D(20,22,58,60)       -148.7048         estimate D2E/DX2                !
 ! D184  D(20,22,58,84)          0.4802         estimate D2E/DX2                !
 ! D185  D(24,22,58,60)          0.312          estimate D2E/DX2                !
 ! D186  D(24,22,58,84)        149.4969         estimate D2E/DX2                !
 ! D187  D(21,23,25,1)          -1.4576         estimate D2E/DX2                !
 ! D188  D(21,23,25,27)       -148.4767         estimate D2E/DX2                !
 ! D189  D(61,23,25,1)         145.6894         estimate D2E/DX2                !
 ! D190  D(61,23,25,27)         -1.3297         estimate D2E/DX2                !
 ! D191  D(21,23,61,59)          1.7996         estimate D2E/DX2                !
 ! D192  D(21,23,61,63)        117.5825         estimate D2E/DX2                !
 ! D193  D(21,23,61,89)       -120.3662         estimate D2E/DX2                !
 ! D194  D(25,23,61,59)       -147.9553         estimate D2E/DX2                !
 ! D195  D(25,23,61,63)        -32.1724         estimate D2E/DX2                !
 ! D196  D(25,23,61,89)         89.8789         estimate D2E/DX2                !
 ! D197  D(22,24,26,3)           0.9108         estimate D2E/DX2                !
 ! D198  D(22,24,26,28)        148.3898         estimate D2E/DX2                !
 ! D199  D(62,24,26,3)        -146.2283         estimate D2E/DX2                !
 ! D200  D(62,24,26,28)          1.2507         estimate D2E/DX2                !
 ! D201  D(22,24,62,60)         -1.7605         estimate D2E/DX2                !
 ! D202  D(22,24,62,64)       -117.5955         estimate D2E/DX2                !
 ! D203  D(22,24,62,90)        120.4117         estimate D2E/DX2                !
 ! D204  D(26,24,62,60)        147.9183         estimate D2E/DX2                !
 ! D205  D(26,24,62,64)         32.0834         estimate D2E/DX2                !
 ! D206  D(26,24,62,90)        -89.9095         estimate D2E/DX2                !
 ! D207  D(1,25,27,29)          -1.3002         estimate D2E/DX2                !
 ! D208  D(1,25,27,65)        -115.9515         estimate D2E/DX2                !
 ! D209  D(1,25,27,85)         121.5687         estimate D2E/DX2                !
 ! D210  D(23,25,27,29)        148.2587         estimate D2E/DX2                !
 ! D211  D(23,25,27,65)         33.6074         estimate D2E/DX2                !
 ! D212  D(23,25,27,85)        -88.8724         estimate D2E/DX2                !
 ! D213  D(3,26,28,30)           1.8354         estimate D2E/DX2                !
 ! D214  D(3,26,28,66)         116.6435         estimate D2E/DX2                !
 ! D215  D(3,26,28,88)        -120.9183         estimate D2E/DX2                !
 ! D216  D(24,26,28,30)       -148.1777         estimate D2E/DX2                !
 ! D217  D(24,26,28,66)        -33.3696         estimate D2E/DX2                !
 ! D218  D(24,26,28,88)         89.0685         estimate D2E/DX2                !
 ! D219  D(25,27,29,5)          -0.1417         estimate D2E/DX2                !
 ! D220  D(25,27,29,31)       -149.8203         estimate D2E/DX2                !
 ! D221  D(65,27,29,5)         115.2826         estimate D2E/DX2                !
 ! D222  D(65,27,29,31)        -34.396          estimate D2E/DX2                !
 ! D223  D(85,27,29,5)        -122.5266         estimate D2E/DX2                !
 ! D224  D(85,27,29,31)         87.7948         estimate D2E/DX2                !
 ! D225  D(25,27,65,63)        -31.6324         estimate D2E/DX2                !
 ! D226  D(25,27,65,67)        142.495          estimate D2E/DX2                !
 ! D227  D(29,27,65,63)       -141.0768         estimate D2E/DX2                !
 ! D228  D(29,27,65,67)         33.0506         estimate D2E/DX2                !
 ! D229  D(85,27,65,63)         93.5558         estimate D2E/DX2                !
 ! D230  D(85,27,65,67)        -92.3168         estimate D2E/DX2                !
 ! D231  D(26,28,30,7)          -0.2883         estimate D2E/DX2                !
 ! D232  D(26,28,30,32)        150.0123         estimate D2E/DX2                !
 ! D233  D(66,28,30,7)        -115.8938         estimate D2E/DX2                !
 ! D234  D(66,28,30,32)         34.4069         estimate D2E/DX2                !
 ! D235  D(88,28,30,7)         121.9926         estimate D2E/DX2                !
 ! D236  D(88,28,30,32)        -87.7067         estimate D2E/DX2                !
 ! D237  D(26,28,66,64)         31.3979         estimate D2E/DX2                !
 ! D238  D(26,28,66,68)       -142.6275         estimate D2E/DX2                !
 ! D239  D(30,28,66,64)        140.9049         estimate D2E/DX2                !
 ! D240  D(30,28,66,68)        -33.1205         estimate D2E/DX2                !
 ! D241  D(88,28,66,64)        -93.7804         estimate D2E/DX2                !
 ! D242  D(88,28,66,68)         92.1943         estimate D2E/DX2                !
 ! D243  D(5,29,31,33)           0.5445         estimate D2E/DX2                !
 ! D244  D(5,29,31,69)        -147.5472         estimate D2E/DX2                !
 ! D245  D(27,29,31,33)        147.9395         estimate D2E/DX2                !
 ! D246  D(27,29,31,69)         -0.1523         estimate D2E/DX2                !
 ! D247  D(7,30,32,34)          -0.034          estimate D2E/DX2                !
 ! D248  D(7,30,32,70)         148.213          estimate D2E/DX2                !
 ! D249  D(28,30,32,34)       -148.0757         estimate D2E/DX2                !
 ! D250  D(28,30,32,70)          0.1712         estimate D2E/DX2                !
 ! D251  D(29,31,33,35)         -7.2096         estimate D2E/DX2                !
 ! D252  D(29,31,33,73)       -155.4883         estimate D2E/DX2                !
 ! D253  D(69,31,33,35)        143.671          estimate D2E/DX2                !
 ! D254  D(69,31,33,73)         -4.6077         estimate D2E/DX2                !
 ! D255  D(29,31,69,67)         35.0807         estimate D2E/DX2                !
 ! D256  D(29,31,69,71)        151.4034         estimate D2E/DX2                !
 ! D257  D(29,31,69,86)        -86.1023         estimate D2E/DX2                !
 ! D258  D(33,31,69,67)       -115.5192         estimate D2E/DX2                !
 ! D259  D(33,31,69,71)          0.8035         estimate D2E/DX2                !
 ! D260  D(33,31,69,86)        123.2977         estimate D2E/DX2                !
 ! D261  D(30,32,34,36)          6.252          estimate D2E/DX2                !
 ! D262  D(30,32,34,74)        155.3867         estimate D2E/DX2                !
 ! D263  D(70,32,34,36)       -144.7136         estimate D2E/DX2                !
 ! D264  D(70,32,34,74)          4.4211         estimate D2E/DX2                !
 ! D265  D(30,32,70,68)        -35.096          estimate D2E/DX2                !
 ! D266  D(30,32,70,72)       -151.5247         estimate D2E/DX2                !
 ! D267  D(30,32,70,87)         86.091          estimate D2E/DX2                !
 ! D268  D(34,32,70,68)        115.5505         estimate D2E/DX2                !
 ! D269  D(34,32,70,72)         -0.8783         estimate D2E/DX2                !
 ! D270  D(34,32,70,87)       -123.2626         estimate D2E/DX2                !
 ! D271  D(31,33,35,9)           8.8556         estimate D2E/DX2                !
 ! D272  D(31,33,35,37)       -146.0099         estimate D2E/DX2                !
 ! D273  D(73,33,35,9)         152.7274         estimate D2E/DX2                !
 ! D274  D(73,33,35,37)         -2.1381         estimate D2E/DX2                !
 ! D275  D(31,33,73,71)          6.6762         estimate D2E/DX2                !
 ! D276  D(31,33,73,75)        152.4091         estimate D2E/DX2                !
 ! D277  D(35,33,73,71)       -141.8356         estimate D2E/DX2                !
 ! D278  D(35,33,73,75)          3.8974         estimate D2E/DX2                !
 ! D279  D(32,34,36,12)         -8.201          estimate D2E/DX2                !
 ! D280  D(32,34,36,38)        146.1129         estimate D2E/DX2                !
 ! D281  D(74,34,36,12)       -152.7799         estimate D2E/DX2                !
 ! D282  D(74,34,36,38)          1.534          estimate D2E/DX2                !
 ! D283  D(32,34,74,72)         -6.2968         estimate D2E/DX2                !
 ! D284  D(32,34,74,76)       -152.3691         estimate D2E/DX2                !
 ! D285  D(36,34,74,72)        142.9728         estimate D2E/DX2                !
 ! D286  D(36,34,74,76)         -3.0994         estimate D2E/DX2                !
 ! D287  D(9,35,37,39)          -0.4482         estimate D2E/DX2                !
 ! D288  D(9,35,37,77)        -156.7121         estimate D2E/DX2                !
 ! D289  D(33,35,37,39)        153.6184         estimate D2E/DX2                !
 ! D290  D(33,35,37,77)         -2.6455         estimate D2E/DX2                !
 ! D291  D(12,36,38,42)          2.3342         estimate D2E/DX2                !
 ! D292  D(12,36,38,78)        154.7976         estimate D2E/DX2                !
 ! D293  D(34,36,38,42)       -151.0846         estimate D2E/DX2                !
 ! D294  D(34,36,38,78)          1.3788         estimate D2E/DX2                !
 ! D295  D(35,37,39,43)          3.8587         estimate D2E/DX2                !
 ! D296  D(35,37,39,79)       -159.2639         estimate D2E/DX2                !
 ! D297  D(77,37,39,43)        160.0076         estimate D2E/DX2                !
 ! D298  D(77,37,39,79)         -3.115          estimate D2E/DX2                !
 ! D299  D(35,37,77,75)          5.7487         estimate D2E/DX2                !
 ! D300  D(35,37,77,81)        143.4694         estimate D2E/DX2                !
[...]
 Alpha virt. eigenvalues --    1.31204   1.31652   1.31833   1.32126   1.32665
 Alpha virt. eigenvalues --    1.32779   1.33008   1.33825   1.34119   1.34356
 Alpha virt. eigenvalues --    1.34579   1.35070   1.35497   1.36000   1.36376
 Alpha virt. eigenvalues --    1.36733   1.36940   1.37383   1.38270   1.38396
 Alpha virt. eigenvalues --    1.38908   1.39981   1.40160   1.40827   1.40922
 Alpha virt. eigenvalues --    1.41492   1.42054   1.43316   1.43325   1.44456
 Alpha virt. eigenvalues --    1.44778   1.45205   1.46007   1.46084   1.46368
 Alpha virt. eigenvalues --    1.46894   1.47319   1.47761   1.48000   1.48430
 Alpha virt. eigenvalues --    1.48863   1.49705   1.50332   1.50460   1.51008
 Alpha virt. eigenvalues --    1.51838   1.51937   1.52781   1.53183   1.53603
 Alpha virt. eigenvalues --    1.53812   1.54831   1.55353   1.55868   1.56278
 Alpha virt. eigenvalues --    1.56517   1.57073   1.58084   1.58932   1.59124
 Alpha virt. eigenvalues --    1.59282   1.59999   1.60177   1.60749   1.61908
 Alpha virt. eigenvalues --    1.62088   1.62318   1.62754   1.63137   1.63376
 Alpha virt. eigenvalues --    1.63940   1.64275   1.64399   1.64470   1.64681
 Alpha virt. eigenvalues --    1.64798   1.65338   1.65517   1.65722   1.66192
 Alpha virt. eigenvalues --    1.66221   1.66565   1.66616   1.66966   1.67122
 Alpha virt. eigenvalues --    1.67168   1.67678   1.67953   1.68202   1.68408
 Alpha virt. eigenvalues --    1.68478   1.68711   1.68926   1.69037   1.69379
 Alpha virt. eigenvalues --    1.69402   1.69641   1.70061   1.70142   1.70615
 Alpha virt. eigenvalues --    1.70671   1.70784   1.71199   1.71322   1.71822
 Alpha virt. eigenvalues --    1.72069   1.72357   1.72446   1.72703   1.72812
 Alpha virt. eigenvalues --    1.73614   1.73768   1.74101   1.74540   1.74626
 Alpha virt. eigenvalues --    1.74965   1.75123   1.75258   1.75399   1.75734
 Alpha virt. eigenvalues --    1.75975   1.76173   1.76646   1.76679   1.76827
 Alpha virt. eigenvalues --    1.77005   1.77380   1.77477   1.77538   1.77905
 Alpha virt. eigenvalues --    1.78268   1.78490   1.78581   1.78759   1.78968
 Alpha virt. eigenvalues --    1.79094   1.79586   1.79723   1.79846   1.79964
 Alpha virt. eigenvalues --    1.80391   1.80682   1.81139   1.81240   1.81669
 Alpha virt. eigenvalues --    1.81793   1.81870   1.82109   1.82283   1.82500
 Alpha virt. eigenvalues --    1.83235   1.83430   1.83810   1.84095   1.84526
 Alpha virt. eigenvalues --    1.84937   1.85249   1.85993   1.86427   1.86925
 Alpha virt. eigenvalues --    1.87159   1.87490   1.87562   1.88035   1.88266
 Alpha virt. eigenvalues --    1.88543   1.88972   1.89151   1.89178   1.89864
 Alpha virt. eigenvalues --    1.90309   1.90428   1.90820   1.91543   1.92136
 Alpha virt. eigenvalues --    1.92476   1.92780   1.93053   1.93547   1.93811
 Alpha virt. eigenvalues --    1.94224   1.94594   1.94699   1.94959   1.95129
 Alpha virt. eigenvalues --    1.95408   1.95672   1.96408   1.96978   1.97228
 Alpha virt. eigenvalues --    1.97470   1.97904   1.98306   1.98391   1.98561
 Alpha virt. eigenvalues --    1.99105   1.99521   1.99617   1.99944   2.00118
 Alpha virt. eigenvalues --    2.00364   2.00824   2.00911   2.01193   2.01339
 Alpha virt. eigenvalues --    2.01519   2.01793   2.02166   2.02499   2.02736
 Alpha virt. eigenvalues --    2.02866   2.03486   2.03959   2.04168   2.04213
 Alpha virt. eigenvalues --    2.04724   2.05136   2.05851   2.06300   2.07075
 Alpha virt. eigenvalues --    2.07260   2.07557   2.07689   2.07940   2.08380
 Alpha virt. eigenvalues --    2.08706   2.08951   2.09350   2.09744   2.10097
 Alpha virt. eigenvalues --    2.10309   2.10572   2.11309   2.11696   2.11760
 Alpha virt. eigenvalues --    2.12116   2.12447   2.12626   2.13476   2.14099
 Alpha virt. eigenvalues --    2.14461   2.14669   2.15697   2.15891   2.16253
 Alpha virt. eigenvalues --    2.16974   2.17291   2.17563   2.17991   2.18073
 Alpha virt. eigenvalues --    2.18295   2.18631   2.19076   2.19846   2.20337
 Alpha virt. eigenvalues --    2.20530   2.20984   2.21247   2.21527   2.22097
 Alpha virt. eigenvalues --    2.22460   2.22676   2.22925   2.23723   2.24205
 Alpha virt. eigenvalues --    2.24595   2.25046   2.25371   2.25584   2.25943
 Alpha virt. eigenvalues --    2.26308   2.26559   2.27286   2.27688   2.27926
 Alpha virt. eigenvalues --    2.28546   2.28665   2.29053   2.29465   2.29710
 Alpha virt. eigenvalues --    2.30088   2.30419   2.31288   2.31716   2.32396
 Alpha virt. eigenvalues --    2.32838   2.33350   2.33858   2.34253   2.34856
 Alpha virt. eigenvalues --    2.35058   2.35936   2.36103   2.36875   2.37773
 Alpha virt. eigenvalues --    2.38324   2.38950   2.39257   2.39424   2.39900
 Alpha virt. eigenvalues --    2.40733   2.40983   2.41156   2.41536   2.42262
 Alpha virt. eigenvalues --    2.42420   2.42593   2.43149   2.43842   2.44080
 Alpha virt. eigenvalues --    2.44571   2.44886   2.45339   2.46127   2.46538
 Alpha virt. eigenvalues --    2.47791   2.48346   2.48477   2.49322   2.49936
 Alpha virt. eigenvalues --    2.50825   2.51246   2.51538   2.51999   2.52213
 Alpha virt. eigenvalues --    2.52489   2.53021   2.53316   2.53607   2.54039
 Alpha virt. eigenvalues --    2.54460   2.54493   2.55130   2.55616   2.56196
 Alpha virt. eigenvalues --    2.56455   2.56695   2.57041   2.57219   2.57442
 Alpha virt. eigenvalues --    2.57550   2.57758   2.58312   2.58441   2.58650
 Alpha virt. eigenvalues --    2.59257   2.59659   2.60357   2.60585   2.60779
 Alpha virt. eigenvalues --    2.61317   2.61594   2.62064   2.62160   2.62756
 Alpha virt. eigenvalues --    2.62981   2.63036   2.63376   2.64086   2.64229
 Alpha virt. eigenvalues --    2.64755   2.65049   2.65295   2.65517   2.65792
 Alpha virt. eigenvalues --    2.66437   2.66767   2.67170   2.67936   2.68139
 Alpha virt. eigenvalues --    2.68416   2.68914   2.69220   2.69294   2.69753
 Alpha virt. eigenvalues --    2.70182   2.70695   2.71076   2.71309   2.71453
 Alpha virt. eigenvalues --    2.72017   2.72077   2.72662   2.72977   2.73335
 Alpha virt. eigenvalues --    2.73771   2.74134   2.74389   2.74610   2.75235
 Alpha virt. eigenvalues --    2.75498   2.75902   2.76400   2.76555   2.76770
 Alpha virt. eigenvalues --    2.76924   2.77756   2.78162   2.78569   2.79045
 Alpha virt. eigenvalues --    2.79803   2.80481   2.80643   2.81056   2.81469
 Alpha virt. eigenvalues --    2.81748   2.82105   2.82957   2.83227   2.83452
 Alpha virt. eigenvalues --    2.84175   2.85853   2.85873   2.86898   2.87463
 Alpha virt. eigenvalues --    2.87755   2.87868   2.88667   2.88880   2.89242
 Alpha virt. eigenvalues --    2.89517   2.90275   2.90550   2.91048   2.91360
 Alpha virt. eigenvalues --    2.91694   2.92096   2.92442   2.93005   2.93198
 Alpha virt. eigenvalues --    2.93501   2.93996   2.94265   2.94440   2.95900
 Alpha virt. eigenvalues --    2.97113   2.98149   2.99342   2.99426   3.01033
 Alpha virt. eigenvalues --    3.01868   3.02052   3.03365   3.04710   3.05820
 Alpha virt. eigenvalues --    3.08371   3.09476   3.09845   3.10858   3.11489
 Alpha virt. eigenvalues --    3.12929   3.14747   3.15933   3.16885   3.17910
 Alpha virt. eigenvalues --    3.19867   3.20725   3.22053   3.22958   3.23404
 Alpha virt. eigenvalues --    3.24958   3.27570   3.29339   3.30846   3.32091
 Alpha virt. eigenvalues --    3.34302   3.34867   3.37339   3.38803   3.40408
 Alpha virt. eigenvalues --    3.43467   3.45545   3.47151   3.48900   3.50097
 Alpha virt. eigenvalues --    3.51298   3.54442   3.57063   3.71307   4.00982
 Alpha virt. eigenvalues --    4.01534   4.01958   4.02440   4.02832   4.03584
 Alpha virt. eigenvalues --    4.04060   4.05042   4.05319   4.06003   4.06946
 Alpha virt. eigenvalues --    4.07988   4.08145   4.08843   4.08893   4.09858
 Alpha virt. eigenvalues --    4.10342   4.10603   4.11295   4.12066   4.12455
 Alpha virt. eigenvalues --    4.13421   4.15943   4.16382   4.16611   4.17576
 Alpha virt. eigenvalues --    4.18038   4.19033   4.19536   4.19933   4.20711
 Alpha virt. eigenvalues --    4.22202   4.22669   4.23488   4.24218   4.25274
 Alpha virt. eigenvalues --    4.26257   4.26960   4.27131   4.27460   4.27520
 Alpha virt. eigenvalues --    4.27816   4.28648   4.29327   4.29514   4.30460
 Alpha virt. eigenvalues --    4.31178   4.33275   4.34190   4.35290   4.36596
 Alpha virt. eigenvalues --    4.37772   4.38643   4.39588   4.40650   4.41347
 Alpha virt. eigenvalues --    4.41871   4.43185   4.43800   4.45475   4.47013
 Alpha virt. eigenvalues --    4.47908   4.48195   4.50593   4.51477   4.52543
 Alpha virt. eigenvalues --    4.53804   4.56890   4.58104   4.58464   4.59690
 Alpha virt. eigenvalues --    4.61493   4.62240   4.63935   4.65005   4.66851
 Alpha virt. eigenvalues --    4.68304   4.73464   4.79160   4.79508   4.80850
 Alpha virt. eigenvalues --    4.82042   4.85264   4.86370   4.89001   4.92379
 Alpha virt. eigenvalues --    4.94465   4.99253   5.04346   5.06824   5.08982
 Alpha virt. eigenvalues --    5.14976   5.17358   5.29348
          Condensed to atoms (all electrons):
 Mulliken charges:
               1
     1  C    0.005429
     2  C   -0.380329
     3  C    0.003464
     4  C   -0.041803
     5  C    0.009020
     6  C    0.091781
     7  C    0.006871
     8  C   -0.001501
     9  C    0.040880
    10  C    0.089024
    11  C    0.079695
    12  C    0.047758
    13  C    0.004397
    14  C   -0.029242
    15  C    0.008582
    16  C   -0.023755
    17  C    0.043779
    18  C    0.051448
    19  C    0.044685
    20  C    0.039471
    21  C    0.007581
    22  C    0.009222
    23  C    0.089107
    24  C    0.083392
    25  C    0.088777
    26  C    0.090057
    27  C   -0.375756
    28  C   -0.375701
    29  C    0.085602
    30  C    0.086377
    31  C    0.090772
    32  C    0.085343
    33  C    0.003371
    34  C    0.000691
    35  C    0.034118
    36  C    0.036558
    37  C    0.074061
    38  C    0.046233
    39  C    0.119526
    40  C    0.081608
    41  C   -0.000575
    42  C    0.047504
    43  C    0.078827
    44  C    0.146213
    45  C    0.081331
    46  C   -0.020787
    47  C    0.123054
    48  C    0.099541
    49  C   -0.374698
    50  C   -0.361792
    51  C    0.089143
    52  C    0.093591
    53  C    0.007055
    54  C    0.011645
    55  C    0.007432
    56  C    0.005421
    57  C    0.007474
    58  C    0.009182
    59  C    0.089134
    60  C    0.088942
    61  C   -0.375113
    62  C   -0.374498
    63  C    0.124309
    64  C    0.125806
    65  C    0.129405
    66  C    0.128898
    67  C    0.123474
    68  C    0.126171
    69  C   -0.371992
    70  C   -0.371867
    71  C    0.090908
    72  C    0.088994
    73  C    0.023803
    74  C    0.025641
    75  C   -0.011050
    76  C   -0.015002
    77  C   -0.045383
    78  C   -0.021505
    79  C   -0.368479
    80  C    0.009446
    81  C    0.004470
    82  C    0.073251
    83  C    0.043059
    84  C    0.044381
    85  Cl   0.021318
    86  Cl   0.017124
    87  Cl   0.012257
    88  Cl   0.019529
    89  Cl   0.021775
    90  Cl   0.017189
    91  Cl   0.007901
    92  Cl  -0.002674
    93  Cl   0.006870
    94  Cl  -0.006645
 Sum of Mulliken charges =  -0.00000
 Mulliken charges with hydrogens summed into heavy atoms:
               1
     1  C    0.005429
     2  C   -0.380329
     3  C    0.003464
     4  C   -0.041803
     5  C    0.009020
     6  C    0.091781
     7  C    0.006871
     8  C   -0.001501
     9  C    0.040880
    10  C    0.089024
    11  C    0.079695
    12  C    0.047758
    13  C    0.004397
    14  C   -0.029242
    15  C    0.008582
    16  C   -0.023755
    17  C    0.043779
    18  C    0.051448
    19  C    0.044685
    20  C    0.039471
    21  C    0.007581
    22  C    0.009222
    23  C    0.089107
    24  C    0.083392
    25  C    0.088777
    26  C    0.090057
    27  C   -0.375756
    28  C   -0.375701
    29  C    0.085602
    30  C    0.086377
    31  C    0.090772
    32  C    0.085343
    33  C    0.003371
    34  C    0.000691
    35  C    0.034118
    36  C    0.036558
    37  C    0.074061
    38  C    0.046233
    39  C    0.119526
    40  C    0.081608
    41  C   -0.000575
    42  C    0.047504
    43  C    0.078827
    44  C    0.146213
    45  C    0.081331
    46  C   -0.020787
    47  C    0.123054
    48  C    0.099541
    49  C   -0.374698
    50  C   -0.361792
    51  C    0.089143
    52  C    0.093591
    53  C    0.007055
    54  C    0.011645
    55  C    0.007432
    56  C    0.005421
    57  C    0.007474
    58  C    0.009182
    59  C    0.089134
    60  C    0.088942
    61  C   -0.375113
    62  C   -0.374498
    63  C    0.124309
    64  C    0.125806
    65  C    0.129405
    66  C    0.128898
    67  C    0.123474
    68  C    0.126171
    69  C   -0.371992
    70  C   -0.371867
    71  C    0.090908
    72  C    0.088994
    73  C    0.023803
    74  C    0.025641
    75  C   -0.011050
    76  C   -0.015002
    77  C   -0.045383
    78  C   -0.021505
    79  C   -0.368479
    80  C    0.009446
    81  C    0.004470
    82  C    0.073251
    83  C    0.043059
    84  C    0.044381
    85  Cl   0.021318
    86  Cl   0.017124
    87  Cl   0.012257
    88  Cl   0.019529
    89  Cl   0.021775
    90  Cl   0.017189
    91  Cl   0.007901
    92  Cl  -0.002674
    93  Cl   0.006870
    94  Cl  -0.006645
 Electronic spatial extent (au):  <R**2>=          56809.9658
 Charge=             -0.0000 electrons
 Dipole moment (field-independent basis, Debye):
    X=             -1.1058    Y=             -0.3580    Z=             -0.7609  Tot=              1.3892
 Quadrupole moment (field-independent basis, Debye-Ang):
   XX=           -648.2160   YY=           -587.9462   ZZ=           -581.4877
   XY=              4.1445   XZ=             -3.7970   YZ=             -1.6874
 Traceless Quadrupole moment (field-independent basis, Debye-Ang):
   XX=            -42.3327   YY=             17.9371   ZZ=             24.3956
   XY=              4.1445   XZ=             -3.7970   YZ=             -1.6874
 Octapole moment (field-independent basis, Debye-Ang**2):
  XXX=             82.9693  YYY=            -24.5878  ZZZ=             27.3906  XYY=             30.0533
  XXY=             -4.1018  XXZ=             -3.6484  XZZ=            -17.7982  YZZ=              2.9716
  YYZ=             18.2394  XYZ=              6.9172
 Hexadecapole moment (field-independent basis, Debye-Ang**3):
 XXXX=         -36122.6575 YYYY=         -23959.5413 ZZZZ=         -21049.3409 XXXY=           -104.4396
 XXXZ=            212.5826 YYYX=             60.0185 YYYZ=             37.6226 ZZZX=            -69.6046
 ZZZY=              7.5684 XXYY=         -10280.7440 XXZZ=          -9558.8985 YYZZ=          -7500.7260
 XXYZ=            -38.3079 YYXZ=            -72.8198 ZZXY=            -21.7754
 N-N= 2.228211090215D+04 E-N=-6.289868590042D+04  KE= 7.759022142591D+03
 No NMR shielding tensors so no spin-rotation constants.
 Leave Link  601 at Mon Jun 27 14:42:10 2022, MaxMem=  1342177280 cpu:              25.2 elap:               1.3
 (Enter /home/mkliu/g16/l9999.exe)
 1\1\GINC-NODE05\FOpt\RB3LYP\6-31G(d,p)\C84Cl10\MKLIU\27-Jun-2022\0\\#P
  opt b3lyp/6-31G(d, p) empiricaldispersion=GD3\\force\\0,1\C,8.2762655
 968,18.9129991517,10.5333902662\C,12.5230342685,19.9965078581,8.900921
 9753\C,8.2676709647,26.8623959898,10.5421094226\C,12.3179945066,25.611
 1895628,8.961031587\C,7.9560176618,18.9587257626,9.1444611054\C,11.908
 4477265,19.5714640879,10.2126137934\C,7.9547106745,26.8126774122,9.148
 4804978\C,11.8880676213,26.1901759956,10.2121017331\C,8.9664004842,19.
 128576232,8.1536242303\C,12.1719515382,20.2053483943,11.3841637309\C,1
 2.1542133061,25.5606569811,11.3955254037\C,8.9699544798,26.6589862469,
 8.1579870316\C,10.3056344764,19.0733762258,8.6109395688\C,10.304746983
 3,26.7408406604,8.6240320547\C,10.6292827829,18.967251393,9.9913303749
 \C,10.6168911251,26.8535282944,10.0046034463\C,9.6171761275,18.9757354
 184,10.9917901492\C,9.6096804241,26.8199472784,11.0055737193\C,9.88985
 77273,19.6593931862,12.2344357242\C,9.8815828485,26.1212947829,12.2466
 717979\C,8.7984761156,20.256824874,12.9237802859\C,8.7949416477,25.513
 2450752,12.9266578213\C,7.4605840053,20.1804109714,12.4195517528\C,7.4
 542778896,25.5831998504,12.4242198215\C,7.203944307,19.5159501068,11.2
 667712204\C,7.1998259328,26.2458791143,11.2694627318\C,6.0870857028,19
 .9370740137,10.3356036045\C,6.0879351517,25.8206598682,10.3352311983\C
 ,6.6622986475,19.5392773051,8.9942961571\C,6.6659278888,26.2191216374,
 8.9956644635\C,6.3594161676,20.2065712896,7.8570617962\C,6.3645395679,
 25.5535906532,7.8584236288\C,7.3249918768,20.3237316351,6.8055640761\C
 ,7.3383079428,25.4401123255,6.8100519768\C,8.6691317452,19.874107813,6
 .9557911079\C,8.6699219463,25.9035521548,6.9538127076\C,9.7362367481,2
 0.5990106607,6.2745729432\C,9.7400181489,25.1684456385,6.2702416469\C,
 11.0820445699,20.5608919304,6.836941024\C,12.7945963023,22.1584824512,
 7.7590690666\C,12.7442389867,23.5680889247,7.7649308161\C,11.074126456
 1,25.1694731423,6.8437966054\C,11.3440728901,19.7902367022,7.937427453
 3\C,12.9441598198,21.4539101757,8.9349741348\C,12.9111065888,24.306405
 6109,8.952625791\C,11.3579561064,25.9707432635,7.983562359\C,13.141748
 6233,22.1769422844,10.162165327\C,13.147913816,23.5800580196,10.170298
 8908\C,13.1056859767,21.3988771091,11.4829354859\C,13.0928164741,24.36
 29822795,11.4851723297\C,12.4329084951,22.2034339521,12.5796447215\C,1
 2.4307353088,23.5598552538,12.5830476612\C,11.1657545492,20.2660660717
 ,12.4067841818\C,11.1617541271,25.5087216502,12.4187772351\C,11.320248
 9541,21.4823269623,13.1276770555\C,11.3157046127,24.2800546158,13.1264
 680686\C,8.9501926367,21.4843930827,13.6312624373\C,8.9486666488,24.27
 76714244,13.6257390479\C,7.7146751713,22.2032687353,13.566053731\C,7.7
 125280448,23.5597457424,13.566323413\C,6.6628309934,21.4040502915,12.8
 237769293\C,6.6608131238,24.356597346,12.8240180248\C,6.1788819358,22.
 1725087075,11.5742697636\C,6.1783707652,23.5864349787,11.5743394315\C,
 5.8888205252,21.4683804852,10.3851645326\C,5.8888829534,24.2898080428,
 10.3854064582\C,5.5827069101,22.1735178192,9.1969458524\C,5.5834474955
 ,23.585186885,9.1971481591\C,5.419653294,21.3988528237,7.8672350629\C,
 5.4259326478,24.3614783489,7.8678513859\C,5.9468790407,22.2004861872,6
 .6965064996\C,5.950688948,23.5592174675,6.6984103028\C,7.0107425666,21
 .4840422653,6.0447966161\C,7.0225738575,24.2688100484,6.0506491764\C,8
 .029617059,22.1524633135,5.3680270729\C,8.0297139088,23.5953863389,5.3
 757847096\C,9.379404055,21.690793831,5.4451955947\C,9.3857719726,24.05
 28845135,5.4715826212\C,12.1110747831,21.6263056434,6.4950569873\C,11.
 8924377121,24.0192743614,6.6879638922\C,10.2277531531,22.8784630834,5.
 388486722\C,11.4698696461,22.8852951412,5.9602931969\C,10.2008599663,2
 2.158245293,13.6909989126\C,10.1985764305,23.6027263857,13.6914225774\
 Cl,4.5100871466,19.0767206445,10.7219698821\Cl,3.6560655206,20.9268041
 957,7.6400445824\Cl,3.6582501689,24.8290304058,7.6385489196\Cl,4.50698
 8069,26.6776430426,10.7166771355\Cl,5.229316791,20.9832955159,13.89567
 51193\Cl,5.2186778328,24.7646672432,13.893209898\Cl,14.8170252594,20.8
 869533638,11.9523073479\Cl,14.7971434625,24.9110151747,11.9609932395\C
 l,13.941791863,18.899449837,8.4478388061\Cl,13.3516214637,20.955340326
 7,5.2884024422\\Version=ES64L-G16RevA.03\State=1-A\HF=-7803.0481124\RM
 SD=6.117e-09\RMSF=1.740e-05\Dipole=0.4847064,0.251319,-0.0249496\Quadr
 upole=-29.8316232,15.4846037,14.3470195,6.5776112,6.547773,-3.7178993\
 PG=C01 [X(C84Cl10)]\\@


 THOSE WHO ARE UNABLE TO LEARN FROM PAST MEETINGS
 ARE CONDEMNED TO REPEAT THEM.
 Job cpu time:       1 days 10 hours 32 minutes 26.5 seconds.
 Elapsed time:       0 days  1 hours 26 minutes 28.4 seconds.
 File lengths (MBytes):  RWF=   1291 Int=      0 D2E=      0 Chk=    162 Scr=      1
 Normal termination of Gaussian 16 at Mon Jun 27 14:42:13 2022.
