 Entering Gaussian System, Link 0=g16
 Input=10_addons_C84_14_Cl22_rank_3.gjf
 Output=10_addons_C84_14_Cl22_rank_3.log
 Initial command:
 /home/mkliu/g16/l1.exe "/data/scratch/Gau-178871.inp" -scrdir="/data/scratch/"
 Entering Link 1 = /home/mkliu/g16/l1.exe PID=    178872.
  
 Copyright (c) 1988,1990,1992,1993,1995,1998,2003,2009,2016,
            Gaussian, Inc.  All Rights Reserved.
  
 This is part of the Gaussian(R) 16 program.  It is based on
 the Gaussian(R) 09 system (copyright 2009, Gaussian, Inc.),
 the Gaussian(R) 03 system (copyright 2003, Gaussian, Inc.),
 the Gaussian(R) 98 system (copyright 1998, Gaussian, Inc.),
 the Gaussian(R) 94 system (copyright 1995, Gaussian, Inc.),
 the Gaussian 92(TM) system (copyright 1992, Gaussian, Inc.),
 the Gaussian 90(TM) system (copyright 1990, Gaussian, Inc.),
 the Gaussian 88(TM) system (copyright 1988, Gaussian, Inc.),
 the Gaussian 86(TM) system (copyright 1986, Carnegie Mellon
 University), and the Gaussian 82(TM) system (copyright 1983,
 Carnegie Mellon University). Gaussian is a federally registered
 trademark of Gaussian, Inc.
  
 This software contains proprietary and confidential information,
 including trade secrets, belonging to Gaussian, Inc.
  
 This software is provided under written license and may be
 used, copied, transmitted, or stored only in accord with that
 written license.
  
 The following legend is applicable only to US Government
 contracts under FAR:
  
                    RESTRICTED RIGHTS LEGEND
  
 Use, reproduction and disclosure by the US Government is
 subject to restrictions as set forth in subparagraphs (a)
 and (c) of the Commercial Computer Software - Restricted
 Rights clause in FAR 52.227-19.
  
 Gaussian, Inc.
 340 Quinnipiac St., Bldg. 40, Wallingford CT 06492
  
  
 ---------------------------------------------------------------
 Warning -- This program may not be used in any manner that
 competes with the business of Gaussian, Inc. or will provide
 assistance to any competitor of Gaussian, Inc.  The licensee
 of this program is prohibited from giving any competitor of
 Gaussian, Inc. access to this program.  By using this program,
 the user acknowledges that Gaussian, Inc. is engaged in the
 business of creating and licensing software in the field of
 computational chemistry and represents and warrants to the
 licensee that it is not a competitor of Gaussian, Inc. and that
 it will not use this program in any manner prohibited above.
 ---------------------------------------------------------------
  

 Cite this work as:
 Gaussian 16, Revision A.03,
 M. J. Frisch, G. W. Trucks, H. B. Schlegel, G. E. Scuseria, 
 M. A. Robb, J. R. Cheeseman, G. Scalmani, V. Barone, 
 G. A. Petersson, H. Nakatsuji, X. Li, M. Caricato, A. V. Marenich, 
 J. Bloino, B. G. Janesko, R. Gomperts, B. Mennucci, H. P. Hratchian, 
 J. V. Ortiz, A. F. Izmaylov, J. L. Sonnenberg, D. Williams-Young, 
 F. Ding, F. Lipparini, F. Egidi, J. Goings, B. Peng, A. Petrone, 
 T. Henderson, D. Ranasinghe, V. G. Zakrzewski, J. Gao, N. Rega, 
 G. Zheng, W. Liang, M. Hada, M. Ehara, K. Toyota, R. Fukuda, 
 J. Hasegawa, M. Ishida, T. Nakajima, Y. Honda, O. Kitao, H. Nakai, 
 T. Vreven, K. Throssell, J. A. Montgomery, Jr., J. E. Peralta, 
 F. Ogliaro, M. J. Bearpark, J. J. Heyd, E. N. Brothers, K. N. Kudin, 
 V. N. Staroverov, T. A. Keith, R. Kobayashi, J. Normand, 
 K. Raghavachari, A. P. Rendell, J. C. Burant, S. S. Iyengar, 
 J. Tomasi, M. Cossi, J. M. Millam, M. Klene, C. Adamo, R. Cammi, 
 J. W. Ochterski, R. L. Martin, K. Morokuma, O. Farkas, 
 J. B. Foresman, and D. J. Fox, Gaussian, Inc., Wallingford CT, 2016.
 
 ******************************************
 Gaussian 16:  ES64L-G16RevA.03 25-Dec-2016
                29-Jun-2022 
 ******************************************
 %mem=10GB
 %chk=10_addons_C84_14_Cl22_rank_3.chk
 %nprocshared=24
 Will use up to   24 processors via shared memory.
 ------------------------------------------------
 #P opt b3lyp/6-31G(d, p) empiricaldispersion=GD3
 ------------------------------------------------
 1/18=20,19=15,26=3,38=1/1,3;
 2/9=110,12=2,17=6,18=5,40=1/2;
 3/5=1,6=6,7=101,11=2,25=1,30=1,71=1,74=-5,124=31/1,2,3;
 4//1;
 5/5=2,38=5/2;
 6/7=2,8=2,9=2,10=2,28=1/1;
 7//1,2,3,16;
 1/18=20,19=15,26=3/3(2);
 2/9=110/2;
 99//99;
 2/9=110/2;
 3/5=1,6=6,7=101,11=2,25=1,30=1,71=1,74=-5,124=31/1,2,3;
 4/5=5,16=3,69=1/1;
 5/5=2,38=5/2;
 7//1,2,3,16;
 1/18=20,19=15,26=3/3(-5);
 2/9=110/2;
 6/7=2,8=2,9=2,10=2,19=2,28=1/1;
 99/9=1/99;
 Leave Link    1 at Wed Jun 29 15:50:56 2022, MaxMem=  1342177280 cpu:               1.5 elap:               0.1
 (Enter /home/mkliu/g16/l101.exe)
 -----
 force
 -----
 Symbolic Z-matrix:
 Charge =  0 Multiplicity = 1
 C                     8.29152   18.942    10.53718 
 C                     12.50038   20.00697   8.91144 
 C                     8.28391   26.84389   10.54348 
 C                     12.28053   25.57207   8.97357 
 C                     7.9729    18.99558   9.14601 
 C                     11.902    19.56785   10.21765 
 C                     7.97      26.79204   9.16236 
 C                     11.86425   26.16016   10.20773 
 C                     8.97324   19.18259   8.16587 
 C                     12.16089   20.20933   11.39187 
 C                     12.13995   25.51035   11.38736 
 C                     8.96893   26.63657   8.16735 
 C                     10.30155   19.12686   8.62446 
 C                     10.29361   26.7123   8.6331 
 C                     10.63214   18.98046   10.01174 
 C                     10.60993   26.83076   10.00908 
 C                     9.62755   18.9941   11.00004 
 C                     9.61394   26.80068   11.01048 
 C                     9.89577   19.67037   12.23104 
 C                     9.88746   26.11527   12.24905 
 C                     8.81385   20.27678   12.91076 
 C                     8.80637   25.50215   12.91972 
 C                     7.49084   20.20995   12.4117 
 C                     7.46871   25.56389   12.41174 
 C                     7.23159   19.54059   11.25359 
 C                     7.21218   26.22727   11.26504 
 C                     6.1246    19.96542   10.33097 
 C                     6.10892   25.80188   10.34156 
 C                     6.69574   19.5699   9.00314 
 C                     6.68338   26.20183   9.01702 
 C                     6.39436   20.24183   7.85564 
 C                     6.38162   25.53765   7.88188 
 C                     7.33458   20.34143   6.81278 
 C                     7.34743   25.42893   6.8361 
 C                     8.68701   19.92717   6.98087 
 C                     8.67374   25.88403   6.98002 
 C                     9.74105   20.63068   6.32939 
 C                     9.72683   25.15033   6.3101 
 C                     11.03984   20.60715   6.85945 
 C                     12.74817   22.15492   7.77055 
 C                     12.70844   23.55975   7.77797 
 C                     11.05079   25.15456   6.8655 
 C                     11.32354   19.82469   7.97255 
 C                     12.90307   21.45909   8.9584 
 C                     12.89108   24.29544   8.9597 
 C                     11.33236   25.95073   7.99114 
 C                     13.12556   22.16119   10.1592 
 C                     13.13649   23.58025   10.18076 
 C                     13.07478   21.40133   11.47413 
 C                     12.85657   24.27649   11.39961 
 C                     12.4089   22.19488   12.56542 
 C                     12.39695   23.56708   12.54126 
 C                     11.16209   20.27446   12.39722 
 C                     11.15117   25.50937   12.44307 
 C                     11.31719   21.49912   13.11489 
 C                     11.30176   24.29671   13.14789 
 C                     8.96935   21.50647   13.61518 
 C                     8.9568    24.28214   13.62222 
 C                     7.73014   22.21242   13.5455 
 C                     7.7252    23.56444   13.54514 
 C                     6.69391   21.42061   12.80183 
 C                     6.68178   24.34738   12.80395 
 C                     6.25717   22.18122   11.55017 
 C                     6.24918   23.58304   11.55347 
 C                     5.97368   21.48403   10.36768 
 C                     5.95837   24.28168   10.3748 
 C                     5.66518   22.18259   9.18871 
 C                     5.65688   23.58413   9.19445 
 C                     5.45545   21.41581   7.88024 
 C                     5.44564   24.35984   7.8935 
 C                     5.96621   22.21232   6.71487 
 C                     5.95972   23.57085   6.72475 
 C                     7.01758   21.51001   6.05061 
 C                     7.02171   24.26917   6.08778 
 C                     8.00775   22.17135   5.36057 
 C                     8.03111   23.57667   5.42378 
 C                     9.4049    21.63018   5.23815 
 C                     9.38232   24.03262   5.52471 
 C                     12.08956   21.63073   6.51012 
 C                     11.86841   24.01351   6.71105 
 C                     10.22049   22.88928   5.39924 
 C                     11.44813   22.87902   5.97927 
 C                     10.20126   22.17551   13.68736 
 C                     10.19997   23.61119   13.69913 
 Cl                    4.54093   19.20821   10.71052 
 Cl                    3.71706   20.97823   7.74868 
 Cl                    3.70698   24.79582   7.76249 
 Cl                    4.52055   26.55383   10.71776 
 Cl                    5.23104   21.04041   13.77811 
 Cl                    5.21734   24.7065   13.78644 
 Cl                    13.29391   20.9181   5.37056 
 Cl                    13.90289   18.98324   8.41507 
 Cl                    14.76297   20.91693   11.91935 
 Cl                    9.69084   20.82972   3.63776 
 
 ITRead=  0  0  0  0  0  0  0  0  0  0  0  0  0  0  0  0  0  0  0  0
 ITRead=  0  0  0  0  0  0  0  0  0  0  0  0  0  0  0  0  0  0  0  0
 ITRead=  0  0  0  0  0  0  0  0  0  0  0  0  0  0  0  0  0  0  0  0
 ITRead=  0  0  0  0  0  0  0  0  0  0  0  0  0  0  0  0  0  0  0  0
 ITRead=  0  0  0  0  0  0  0  0  0  0  0  0  0  0
 MicOpt= -1 -1 -1 -1 -1 -1 -1 -1 -1 -1 -1 -1 -1 -1 -1 -1 -1 -1 -1 -1
 MicOpt= -1 -1 -1 -1 -1 -1 -1 -1 -1 -1 -1 -1 -1 -1 -1 -1 -1 -1 -1 -1
 MicOpt= -1 -1 -1 -1 -1 -1 -1 -1 -1 -1 -1 -1 -1 -1 -1 -1 -1 -1 -1 -1
 MicOpt= -1 -1 -1 -1 -1 -1 -1 -1 -1 -1 -1 -1 -1 -1 -1 -1 -1 -1 -1 -1
 MicOpt= -1 -1 -1 -1 -1 -1 -1 -1 -1 -1 -1 -1 -1 -1
 NAtoms=     94 NQM=       94 NQMF=       0 NMMI=      0 NMMIF=      0
                NMic=       0 NMicF=      0.
                    Isotopes and Nuclear Properties:
 (Nuclear quadrupole moments (NQMom) in fm**2, nuclear magnetic moments (NMagM)
  in nuclear magnetons)

  Atom         1           2           3           4           5           6           7           8           9          10
 IAtWgt=          12          12          12          12          12          12          12          12          12          12
 AtmWgt=  12.0000000  12.0000000  12.0000000  12.0000000  12.0000000  12.0000000  12.0000000  12.0000000  12.0000000  12.0000000
 NucSpn=           0           0           0           0           0           0           0           0           0           0
 AtZEff=  -0.0000000  -0.0000000  -0.0000000  -0.0000000  -0.0000000  -0.0000000  -0.0000000  -0.0000000  -0.0000000  -0.0000000
 NQMom=    0.0000000   0.0000000   0.0000000   0.0000000   0.0000000   0.0000000   0.0000000   0.0000000   0.0000000   0.0000000
 NMagM=    0.0000000   0.0000000   0.0000000   0.0000000   0.0000000   0.0000000   0.0000000   0.0000000   0.0000000   0.0000000
 AtZNuc=   6.0000000   6.0000000   6.0000000   6.0000000   6.0000000   6.0000000   6.0000000   6.0000000   6.0000000   6.0000000

  Atom        11          12          13          14          15          16          17          18          19          20
 IAtWgt=          12          12          12          12          12          12          12          12          12          12
 AtmWgt=  12.0000000  12.0000000  12.0000000  12.0000000  12.0000000  12.0000000  12.0000000  12.0000000  12.0000000  12.0000000
 NucSpn=           0           0           0           0           0           0           0           0           0           0
 AtZEff=  -0.0000000  -0.0000000  -0.0000000  -0.0000000  -0.0000000  -0.0000000  -0.0000000  -0.0000000  -0.0000000  -0.0000000
 NQMom=    0.0000000   0.0000000   0.0000000   0.0000000   0.0000000   0.0000000   0.0000000   0.0000000   0.0000000   0.0000000
 NMagM=    0.0000000   0.0000000   0.0000000   0.0000000   0.0000000   0.0000000   0.0000000   0.0000000   0.0000000   0.0000000
 AtZNuc=   6.0000000   6.0000000   6.0000000   6.0000000   6.0000000   6.0000000   6.0000000   6.0000000   6.0000000   6.0000000

  Atom        21          22          23          24          25          26          27          28          29          30
 IAtWgt=          12          12          12          12          12          12          12          12          12          12
 AtmWgt=  12.0000000  12.0000000  12.0000000  12.0000000  12.0000000  12.0000000  12.0000000  12.0000000  12.0000000  12.0000000
 NucSpn=           0           0           0           0           0           0           0           0           0           0
 AtZEff=  -0.0000000  -0.0000000  -0.0000000  -0.0000000  -0.0000000  -0.0000000  -0.0000000  -0.0000000  -0.0000000  -0.0000000
 NQMom=    0.0000000   0.0000000   0.0000000   0.0000000   0.0000000   0.0000000   0.0000000   0.0000000   0.0000000   0.0000000
 NMagM=    0.0000000   0.0000000   0.0000000   0.0000000   0.0000000   0.0000000   0.0000000   0.0000000   0.0000000   0.0000000
 AtZNuc=   6.0000000   6.0000000   6.0000000   6.0000000   6.0000000   6.0000000   6.0000000   6.0000000   6.0000000   6.0000000

  Atom        31          32          33          34          35          36          37          38          39          40
 IAtWgt=          12          12          12          12          12          12          12          12          12          12
 AtmWgt=  12.0000000  12.0000000  12.0000000  12.0000000  12.0000000  12.0000000  12.0000000  12.0000000  12.0000000  12.0000000
 NucSpn=           0           0           0           0           0           0           0           0           0           0
 AtZEff=  -0.0000000  -0.0000000  -0.0000000  -0.0000000  -0.0000000  -0.0000000  -0.0000000  -0.0000000  -0.0000000  -0.0000000
 NQMom=    0.0000000   0.0000000   0.0000000   0.0000000   0.0000000   0.0000000   0.0000000   0.0000000   0.0000000   0.0000000
 NMagM=    0.0000000   0.0000000   0.0000000   0.0000000   0.0000000   0.0000000   0.0000000   0.0000000   0.0000000   0.0000000
 AtZNuc=   6.0000000   6.0000000   6.0000000   6.0000000   6.0000000   6.0000000   6.0000000   6.0000000   6.0000000   6.0000000

  Atom        41          42          43          44          45          46          47          48          49          50
 IAtWgt=          12          12          12          12          12          12          12          12          12          12
 AtmWgt=  12.0000000  12.0000000  12.0000000  12.0000000  12.0000000  12.0000000  12.0000000  12.0000000  12.0000000  12.0000000
 NucSpn=           0           0           0           0           0           0           0           0           0           0
 AtZEff=  -0.0000000  -0.0000000  -0.0000000  -0.0000000  -0.0000000  -0.0000000  -0.0000000  -0.0000000  -0.0000000  -0.0000000
 NQMom=    0.0000000   0.0000000   0.0000000   0.0000000   0.0000000   0.0000000   0.0000000   0.0000000   0.0000000   0.0000000
 NMagM=    0.0000000   0.0000000   0.0000000   0.0000000   0.0000000   0.0000000   0.0000000   0.0000000   0.0000000   0.0000000
 AtZNuc=   6.0000000   6.0000000   6.0000000   6.0000000   6.0000000   6.0000000   6.0000000   6.0000000   6.0000000   6.0000000

  Atom        51          52          53          54          55          56          57          58          59          60
 IAtWgt=          12          12          12          12          12          12          12          12          12          12
 AtmWgt=  12.0000000  12.0000000  12.0000000  12.0000000  12.0000000  12.0000000  12.0000000  12.0000000  12.0000000  12.0000000
 NucSpn=           0           0           0           0           0           0           0           0           0           0
 AtZEff=  -0.0000000  -0.0000000  -0.0000000  -0.0000000  -0.0000000  -0.0000000  -0.0000000  -0.0000000  -0.0000000  -0.0000000
 NQMom=    0.0000000   0.0000000   0.0000000   0.0000000   0.0000000   0.0000000   0.0000000   0.0000000   0.0000000   0.0000000
 NMagM=    0.0000000   0.0000000   0.0000000   0.0000000   0.0000000   0.0000000   0.0000000   0.0000000   0.0000000   0.0000000
 AtZNuc=   6.0000000   6.0000000   6.0000000   6.0000000   6.0000000   6.0000000   6.0000000   6.0000000   6.0000000   6.0000000

  Atom        61          62          63          64          65          66          67          68          69          70
 IAtWgt=          12          12          12          12          12          12          12          12          12          12
 AtmWgt=  12.0000000  12.0000000  12.0000000  12.0000000  12.0000000  12.0000000  12.0000000  12.0000000  12.0000000  12.0000000
 NucSpn=           0           0           0           0           0           0           0           0           0           0
 AtZEff=  -0.0000000  -0.0000000  -0.0000000  -0.0000000  -0.0000000  -0.0000000  -0.0000000  -0.0000000  -0.0000000  -0.0000000
 NQMom=    0.0000000   0.0000000   0.0000000   0.0000000   0.0000000   0.0000000   0.0000000   0.0000000   0.0000000   0.0000000
 NMagM=    0.0000000   0.0000000   0.0000000   0.0000000   0.0000000   0.0000000   0.0000000   0.0000000   0.0000000   0.0000000
 AtZNuc=   6.0000000   6.0000000   6.0000000   6.0000000   6.0000000   6.0000000   6.0000000   6.0000000   6.0000000   6.0000000

  Atom        71          72          73          74          75          76          77          78          79          80
 IAtWgt=          12          12          12          12          12          12          12          12          12          12
 AtmWgt=  12.0000000  12.0000000  12.0000000  12.0000000  12.0000000  12.0000000  12.0000000  12.0000000  12.0000000  12.0000000
 NucSpn=           0           0           0           0           0           0           0           0           0           0
 AtZEff=  -0.0000000  -0.0000000  -0.0000000  -0.0000000  -0.0000000  -0.0000000  -0.0000000  -0.0000000  -0.0000000  -0.0000000
 NQMom=    0.0000000   0.0000000   0.0000000   0.0000000   0.0000000   0.0000000   0.0000000   0.0000000   0.0000000   0.0000000
 NMagM=    0.0000000   0.0000000   0.0000000   0.0000000   0.0000000   0.0000000   0.0000000   0.0000000   0.0000000   0.0000000
 AtZNuc=   6.0000000   6.0000000   6.0000000   6.0000000   6.0000000   6.0000000   6.0000000   6.0000000   6.0000000   6.0000000

  Atom        81          82          83          84          85          86          87          88          89          90
 IAtWgt=          12          12          12          12          35          35          35          35          35          35
 AtmWgt=  12.0000000  12.0000000  12.0000000  12.0000000  34.9688527  34.9688527  34.9688527  34.9688527  34.9688527  34.9688527
 NucSpn=           0           0           0           0           3           3           3           3           3           3
 AtZEff=  -0.0000000  -0.0000000  -0.0000000  -0.0000000  -0.0000000  -0.0000000  -0.0000000  -0.0000000  -0.0000000  -0.0000000
 NQMom=    0.0000000   0.0000000   0.0000000   0.0000000  -8.1650000  -8.1650000  -8.1650000  -8.1650000  -8.1650000  -8.1650000
 NMagM=    0.0000000   0.0000000   0.0000000   0.0000000   0.8218740   0.8218740   0.8218740   0.8218740   0.8218740   0.8218740
 AtZNuc=   6.0000000   6.0000000   6.0000000   6.0000000  17.0000000  17.0000000  17.0000000  17.0000000  17.0000000  17.0000000

  Atom        91          92          93          94
 IAtWgt=          35          35          35          35
 AtmWgt=  34.9688527  34.9688527  34.9688527  34.9688527
 NucSpn=           3           3           3           3
 AtZEff=  -0.0000000  -0.0000000  -0.0000000  -0.0000000
 NQMom=   -8.1650000  -8.1650000  -8.1650000  -8.1650000
 NMagM=    0.8218740   0.8218740   0.8218740   0.8218740
 AtZNuc=  17.0000000  17.0000000  17.0000000  17.0000000
 Leave Link  101 at Wed Jun 29 15:50:56 2022, MaxMem=  1342177280 cpu:               6.0 elap:               0.3
 (Enter /home/mkliu/g16/l103.exe)

 GradGradGradGradGradGradGradGradGradGradGradGradGradGradGradGradGradGrad
 Berny optimization.
 Initialization pass.
                           ----------------------------
                           !    Initial Parameters    !
                           ! (Angstroms and Degrees)  !
 --------------------------                            --------------------------
 ! Name  Definition              Value          Derivative Info.                !
 --------------------------------------------------------------------------------
 ! R1    R(1,5)                  1.4282         estimate D2E/DX2                !
 ! R2    R(1,17)                 1.4149         estimate D2E/DX2                !
 ! R3    R(1,25)                 1.4124         estimate D2E/DX2                !
 ! R4    R(2,6)                  1.5024         estimate D2E/DX2                !
 ! R5    R(2,43)                 1.5165         estimate D2E/DX2                !
 ! R6    R(2,44)                 1.5076         estimate D2E/DX2                !
 ! R7    R(2,92)                 1.8059         estimate D2E/DX2                !
 ! R8    R(3,7)                  1.4173         estimate D2E/DX2                !
 ! R9    R(3,18)                 1.4103         estimate D2E/DX2                !
 ! R10   R(3,26)                 1.4316         estimate D2E/DX2                !
 ! R11   R(4,8)                  1.4291         estimate D2E/DX2                !
 ! R12   R(4,45)                 1.4152         estimate D2E/DX2                !
 ! R13   R(4,46)                 1.4169         estimate D2E/DX2                !
 ! R14   R(5,9)                  1.4129         estimate D2E/DX2                !
 ! R15   R(5,29)                 1.4076         estimate D2E/DX2                !
 ! R16   R(6,10)                 1.3628         estimate D2E/DX2                !
 ! R17   R(6,15)                 1.4142         estimate D2E/DX2                !
 ! R18   R(7,12)                 1.4185         estimate D2E/DX2                !
 ! R19   R(7,30)                 1.423          estimate D2E/DX2                !
 ! R20   R(8,11)                 1.3747         estimate D2E/DX2                !
 ! R21   R(8,16)                 1.4361         estimate D2E/DX2                !
 ! R22   R(9,13)                 1.4064         estimate D2E/DX2                !
 ! R23   R(9,35)                 1.4285         estimate D2E/DX2                !
 ! R24   R(10,49)                1.5043         estimate D2E/DX2                !
 ! R25   R(10,53)                1.4186         estimate D2E/DX2                !
 ! R26   R(11,50)                1.4269         estimate D2E/DX2                !
 ! R27   R(11,54)                1.4465         estimate D2E/DX2                !
 ! R28   R(12,14)                1.4062         estimate D2E/DX2                !
 ! R29   R(12,36)                1.4364         estimate D2E/DX2                !
 ! R30   R(13,15)                1.4336         estimate D2E/DX2                !
 ! R31   R(13,43)                1.3987         estimate D2E/DX2                !
 ! R32   R(14,16)                1.4168         estimate D2E/DX2                !
 ! R33   R(14,46)                1.4391         estimate D2E/DX2                !
 ! R34   R(15,17)                1.4093         estimate D2E/DX2                !
 ! R35   R(16,18)                1.4127         estimate D2E/DX2                !
 ! R36   R(17,19)                1.4299         estimate D2E/DX2                !
 ! R37   R(18,20)                1.4418         estimate D2E/DX2                !
 ! R38   R(19,21)                1.4143         estimate D2E/DX2                !
 ! R39   R(19,53)                1.4128         estimate D2E/DX2                !
 ! R40   R(20,22)                1.4123         estimate D2E/DX2                !
 ! R41   R(20,54)                1.4148         estimate D2E/DX2                !
 ! R42   R(21,23)                1.4156         estimate D2E/DX2                !
 ! R43   R(21,57)                1.4257         estimate D2E/DX2                !
 ! R44   R(22,24)                1.4322         estimate D2E/DX2                !
 ! R45   R(22,58)                1.4158         estimate D2E/DX2                !
 ! R46   R(23,25)                1.3625         estimate D2E/DX2                !
 ! R47   R(23,61)                1.501          estimate D2E/DX2                !
 ! R48   R(24,26)                1.3494         estimate D2E/DX2                !
 ! R49   R(24,62)                1.501          estimate D2E/DX2                !
 ! R50   R(25,27)                1.5024         estimate D2E/DX2                !
 ! R51   R(26,28)                1.5003         estimate D2E/DX2                !
 ! R52   R(27,29)                1.4986         estimate D2E/DX2                !
 ! R53   R(27,65)                1.5265         estimate D2E/DX2                !
 ! R54   R(27,85)                1.796          estimate D2E/DX2                !
 ! R55   R(28,30)                1.4981         estimate D2E/DX2                !
 ! R56   R(28,66)                1.528          estimate D2E/DX2                !
 ! R57   R(28,88)                1.7972         estimate D2E/DX2                !
 ! R58   R(29,31)                1.3635         estimate D2E/DX2                !
 ! R59   R(30,32)                1.3493         estimate D2E/DX2                !
 ! R60   R(31,33)                1.4076         estimate D2E/DX2                !
 ! R61   R(31,69)                1.5035         estimate D2E/DX2                !
 ! R62   R(32,34)                1.4277         estimate D2E/DX2                !
 ! R63   R(32,70)                1.5045         estimate D2E/DX2                !
 ! R64   R(33,35)                1.4244         estimate D2E/DX2                !
 ! R65   R(33,73)                1.4307         estimate D2E/DX2                !
 ! R66   R(34,36)                1.4096         estimate D2E/DX2                !
 ! R67   R(34,74)                1.4181         estimate D2E/DX2                !
 ! R68   R(35,37)                1.4249         estimate D2E/DX2                !
 ! R69   R(36,38)                1.4478         estimate D2E/DX2                !
 ! R70   R(37,39)                1.403          estimate D2E/DX2                !
 ! R71   R(37,77)                1.5175         estimate D2E/DX2                !
 ! R72   R(38,42)                1.4357         estimate D2E/DX2                !
 ! R73   R(38,78)                1.4088         estimate D2E/DX2                !
 ! R74   R(39,43)                1.3899         estimate D2E/DX2                !
 ! R75   R(39,79)                1.5072         estimate D2E/DX2                !
 ! R76   R(40,41)                1.4054         estimate D2E/DX2                !
 ! R77   R(40,44)                1.3853         estimate D2E/DX2                !
 ! R78   R(40,79)                1.5157         estimate D2E/DX2                !
 ! R79   R(41,45)                1.404          estimate D2E/DX2                !
 ! R80   R(41,80)                1.4317         estimate D2E/DX2                !
 ! R81   R(42,46)                1.4072         estimate D2E/DX2                !
 ! R82   R(42,80)                1.4122         estimate D2E/DX2                !
 ! R83   R(44,47)                1.4087         estimate D2E/DX2                !
 ! R84   R(45,48)                1.4362         estimate D2E/DX2                !
 ! R85   R(47,48)                1.4193         estimate D2E/DX2                !
 ! R86   R(47,49)                1.5195         estimate D2E/DX2                !
 ! R87   R(48,50)                1.4313         estimate D2E/DX2                !
 ! R88   R(49,51)                1.5047         estimate D2E/DX2                !
 ! R89   R(49,93)                1.8119         estimate D2E/DX2                !
 ! R90   R(50,52)                1.4205         estimate D2E/DX2                !
 ! R91   R(51,52)                1.3725         estimate D2E/DX2                !
 ! R92   R(51,55)                1.4064         estimate D2E/DX2                !
 ! R93   R(52,56)                1.4491         estimate D2E/DX2                !
 ! R94   R(53,55)                1.4279         estimate D2E/DX2                !
 ! R95   R(54,56)                1.4107         estimate D2E/DX2                !
 ! R96   R(55,83)                1.425          estimate D2E/DX2                !
 ! R97   R(56,84)                1.4099         estimate D2E/DX2                !
 ! R98   R(57,59)                1.4279         estimate D2E/DX2                !
 ! R99   R(57,83)                1.4037         estimate D2E/DX2                !
 ! R100  R(58,60)                1.4275         estimate D2E/DX2                !
 ! R101  R(58,84)                1.4148         estimate D2E/DX2                !
 ! R102  R(59,60)                1.352          estimate D2E/DX2                !
 ! R103  R(59,61)                1.5013         estimate D2E/DX2                !
 ! R104  R(60,62)                1.5004         estimate D2E/DX2                !
 ! R105  R(61,63)                1.5284         estimate D2E/DX2                !
 ! R106  R(61,89)                1.7993         estimate D2E/DX2                !
 ! R107  R(62,64)                1.5281         estimate D2E/DX2                !
 ! R108  R(62,90)                1.7997         estimate D2E/DX2                !
 ! R109  R(63,64)                1.4018         estimate D2E/DX2                !
 ! R110  R(63,65)                1.4017         estimate D2E/DX2                !
 ! R111  R(64,66)                1.4007         estimate D2E/DX2                !
 ! R112  R(65,67)                1.4047         estimate D2E/DX2                !
 ! R113  R(66,68)                1.4038         estimate D2E/DX2                !
 ! R114  R(67,68)                1.4016         estimate D2E/DX2                !
 ! R115  R(67,69)                1.531          estimate D2E/DX2                !
 ! R116  R(68,70)                1.5293         estimate D2E/DX2                !
 ! R117  R(69,71)                1.5011         estimate D2E/DX2                !
 ! R118  R(69,86)                1.7974         estimate D2E/DX2                !
 ! R119  R(70,72)                1.5009         estimate D2E/DX2                !
 ! R120  R(70,87)                1.7973         estimate D2E/DX2                !
 ! R121  R(71,72)                1.3586         estimate D2E/DX2                !
 ! R122  R(71,73)                1.4282         estimate D2E/DX2                !
 ! R123  R(72,74)                1.4217         estimate D2E/DX2                !
 ! R124  R(73,75)                1.3762         estimate D2E/DX2                !
 ! R125  R(74,76)                1.3926         estimate D2E/DX2                !
 ! R126  R(75,76)                1.4069         estimate D2E/DX2                !
 ! R127  R(75,77)                1.5033         estimate D2E/DX2                !
 ! R128  R(76,78)                1.4296         estimate D2E/DX2                !
 ! R129  R(77,81)                1.5088         estimate D2E/DX2                !
 ! R130  R(77,94)                1.8121         estimate D2E/DX2                !
 ! R131  R(78,81)                1.4232         estimate D2E/DX2                !
 ! R132  R(79,82)                1.5005         estimate D2E/DX2                !
 ! R133  R(79,91)                1.8047         estimate D2E/DX2                !
 ! R134  R(80,82)                1.4139         estimate D2E/DX2                !
 ! R135  R(81,82)                1.3578         estimate D2E/DX2                !
 ! R136  R(83,84)                1.4357         estimate D2E/DX2                !
 ! A1    A(5,1,17)             121.8655         estimate D2E/DX2                !
 ! A2    A(5,1,25)             108.1046         estimate D2E/DX2                !
 ! A3    A(17,1,25)            121.8071         estimate D2E/DX2                !
 ! A4    A(6,2,43)             101.1901         estimate D2E/DX2                !
 ! A5    A(6,2,44)             111.1507         estimate D2E/DX2                !
 ! A6    A(6,2,92)             112.4944         estimate D2E/DX2                !
 ! A7    A(43,2,44)            110.0193         estimate D2E/DX2                !
 ! A8    A(43,2,92)            111.369          estimate D2E/DX2                !
 ! A9    A(44,2,92)            110.3116         estimate D2E/DX2                !
 ! A10   A(7,3,18)             122.0357         estimate D2E/DX2                !
 ! A11   A(7,3,26)             108.0349         estimate D2E/DX2                !
 ! A12   A(18,3,26)            121.7298         estimate D2E/DX2                !
 ! A13   A(8,4,45)             120.3553         estimate D2E/DX2                !
 ! A14   A(8,4,46)             107.0909         estimate D2E/DX2                !
 ! A15   A(45,4,46)            121.5336         estimate D2E/DX2                !
 ! A16   A(1,5,9)              121.5159         estimate D2E/DX2                !
 ! A17   A(1,5,29)             108.4567         estimate D2E/DX2                !
 ! A18   A(9,5,29)             121.1963         estimate D2E/DX2                !
 ! A19   A(2,6,10)             122.4031         estimate D2E/DX2                !
 ! A20   A(2,6,15)             110.6378         estimate D2E/DX2                !
 ! A21   A(10,6,15)            119.4406         estimate D2E/DX2                !
 ! A22   A(3,7,12)             122.1132         estimate D2E/DX2                !
 ! A23   A(3,7,30)             108.359          estimate D2E/DX2                !
 ! A24   A(12,7,30)            121.3075         estimate D2E/DX2                !
 ! A25   A(4,8,11)             119.2168         estimate D2E/DX2                !
 ! A26   A(4,8,16)             109.0939         estimate D2E/DX2                !
 ! A27   A(11,8,16)            120.9693         estimate D2E/DX2                !
 ! A28   A(5,9,13)             115.9293         estimate D2E/DX2                !
 ! A29   A(5,9,35)             120.1714         estimate D2E/DX2                !
 ! A30   A(13,9,35)            118.7121         estimate D2E/DX2                !
 ! A31   A(6,10,49)            122.3783         estimate D2E/DX2                !
 ! A32   A(6,10,53)            119.8982         estimate D2E/DX2                !
 ! A33   A(49,10,53)           110.6462         estimate D2E/DX2                !
 ! A34   A(8,11,50)            121.1195         estimate D2E/DX2                !
 ! A35   A(8,11,54)            119.3091         estimate D2E/DX2                !
 ! A36   A(50,11,54)           109.6614         estimate D2E/DX2                !
 ! A37   A(7,12,14)            115.1605         estimate D2E/DX2                !
 ! A38   A(7,12,36)            119.5076         estimate D2E/DX2                !
 ! A39   A(14,12,36)           119.7086         estimate D2E/DX2                !
 ! A40   A(9,13,15)            122.5062         estimate D2E/DX2                !
 ! A41   A(9,13,43)            121.2228         estimate D2E/DX2                !
 ! A42   A(15,13,43)           109.4796         estimate D2E/DX2                !
 ! A43   A(12,14,16)           122.4442         estimate D2E/DX2                !
 ! A44   A(12,14,46)           120.2444         estimate D2E/DX2                !
 ! A45   A(16,14,46)           108.4403         estimate D2E/DX2                !
 ! A46   A(6,15,13)            107.7905         estimate D2E/DX2                !
 ! A47   A(6,15,17)            122.273          estimate D2E/DX2                !
 ! A48   A(13,15,17)           120.8797         estimate D2E/DX2                !
 ! A49   A(8,16,14)            106.8749         estimate D2E/DX2                !
 ! A50   A(8,16,18)            120.516          estimate D2E/DX2                !
 ! A51   A(14,16,18)           121.9539         estimate D2E/DX2                !
 ! A52   A(1,17,15)            116.3167         estimate D2E/DX2                !
 ! A53   A(1,17,19)            118.4351         estimate D2E/DX2                !
 ! A54   A(15,17,19)           118.3321         estimate D2E/DX2                !
 ! A55   A(3,18,16)            115.4371         estimate D2E/DX2                !
 ! A56   A(3,18,20)            118.5516         estimate D2E/DX2                !
 ! A57   A(16,18,20)           119.0344         estimate D2E/DX2                !
 ! A58   A(17,19,21)           118.2315         estimate D2E/DX2                !
 ! A59   A(17,19,53)           118.1387         estimate D2E/DX2                !
 ! A60   A(21,19,53)           116.4737         estimate D2E/DX2                !
 ! A61   A(18,20,22)           117.9781         estimate D2E/DX2                !
 ! A62   A(18,20,54)           119.3964         estimate D2E/DX2                !
 ! A63   A(22,20,54)           115.6384         estimate D2E/DX2                !
 ! A64   A(19,21,23)           121.6865         estimate D2E/DX2                !
 ! A65   A(19,21,57)           121.5914         estimate D2E/DX2                !
 ! A66   A(23,21,57)           108.4723         estimate D2E/DX2                !
 ! A67   A(20,22,24)           121.8584         estimate D2E/DX2                !
 ! A68   A(20,22,58)           121.8974         estimate D2E/DX2                !
 ! A69   A(24,22,58)           108.202          estimate D2E/DX2                !
 ! A70   A(21,23,25)           120.0447         estimate D2E/DX2                !
 ! A71   A(21,23,61)           111.5002         estimate D2E/DX2                !
 ! A72   A(25,23,61)           121.0738         estimate D2E/DX2                !
 ! A73   A(22,24,26)           120.0109         estimate D2E/DX2                !
 ! A74   A(22,24,62)           111.2263         estimate D2E/DX2                !
 ! A75   A(26,24,62)           121.3879         estimate D2E/DX2                !
 ! A76   A(1,25,23)            119.7709         estimate D2E/DX2                !
 ! A77   A(1,25,27)            111.1794         estimate D2E/DX2                !
 ! A78   A(23,25,27)           121.5503         estimate D2E/DX2                !
 ! A79   A(3,26,24)            119.8518         estimate D2E/DX2                !
 ! A80   A(3,26,28)            111.2467         estimate D2E/DX2                !
 ! A81   A(24,26,28)           121.566          estimate D2E/DX2                !
 ! A82   A(25,27,29)           100.8755         estimate D2E/DX2                !
 ! A83   A(25,27,65)           109.8398         estimate D2E/DX2                !
 ! A84   A(25,27,85)           113.6238         estimate D2E/DX2                !
 ! A85   A(29,27,65)           108.7566         estimate D2E/DX2                !
 ! A86   A(29,27,85)           114.3334         estimate D2E/DX2                !
 ! A87   A(65,27,85)           109.0968         estimate D2E/DX2                !
 ! A88   A(26,28,30)           100.7508         estimate D2E/DX2                !
 ! A89   A(26,28,66)           109.9468         estimate D2E/DX2                !
 ! A90   A(26,28,88)           113.7307         estimate D2E/DX2                !
 ! A91   A(30,28,66)           108.8211         estimate D2E/DX2                !
 ! A92   A(30,28,88)           114.3478         estimate D2E/DX2                !
 ! A93   A(66,28,88)           108.9434         estimate D2E/DX2                !
 ! A94   A(5,29,27)            111.3183         estimate D2E/DX2                !
 ! A95   A(5,29,31)            119.1461         estimate D2E/DX2                !
 ! A96   A(27,29,31)           122.0996         estimate D2E/DX2                !
 ! A97   A(7,30,28)            111.539          estimate D2E/DX2                !
 ! A98   A(7,30,32)            119.4913         estimate D2E/DX2                !
 ! A99   A(28,30,32)           121.7774         estimate D2E/DX2                !
 ! A100  A(29,31,33)           120.7123         estimate D2E/DX2                !
 ! A101  A(29,31,69)           120.602          estimate D2E/DX2                !
 ! A102  A(33,31,69)           111.9627         estimate D2E/DX2                !
 ! A103  A(30,32,34)           120.1602         estimate D2E/DX2                !
 ! A104  A(30,32,70)           121.1968         estimate D2E/DX2                !
 ! A105  A(34,32,70)           111.5251         estimate D2E/DX2                !
 ! A106  A(31,33,35)           121.7478         estimate D2E/DX2                !
 ! A107  A(31,33,73)           107.7258         estimate D2E/DX2                !
 ! A108  A(35,33,73)           120.7154         estimate D2E/DX2                !
 ! A109  A(32,34,36)           122.4894         estimate D2E/DX2                !
 ! A110  A(32,34,74)           107.0635         estimate D2E/DX2                !
 ! A111  A(36,34,74)           122.2778         estimate D2E/DX2                !
 ! A112  A(9,35,33)            116.0866         estimate D2E/DX2                !
 ! A113  A(9,35,37)            119.2359         estimate D2E/DX2                !
 ! A114  A(33,35,37)           120.3189         estimate D2E/DX2                !
 ! A115  A(12,36,34)           116.5461         estimate D2E/DX2                !
 ! A116  A(12,36,38)           119.9016         estimate D2E/DX2                !
 ! A117  A(34,36,38)           118.2643         estimate D2E/DX2                !
 ! A118  A(35,37,39)           120.2502         estimate D2E/DX2                !
 ! A119  A(35,37,77)           119.3475         estimate D2E/DX2                !
 ! A120  A(39,37,77)           119.1958         estimate D2E/DX2                !
 ! A121  A(36,38,42)           119.3572         estimate D2E/DX2                !
 ! A122  A(36,38,78)           118.825          estimate D2E/DX2                !
 ! A123  A(42,38,78)           116.327          estimate D2E/DX2                !
 ! A124  A(37,39,43)           120.0648         estimate D2E/DX2                !
 ! A125  A(37,39,79)           123.0784         estimate D2E/DX2                !
 ! A126  A(43,39,79)           115.2005         estimate D2E/DX2                !
 ! A127  A(41,40,44)           120.0467         estimate D2E/DX2                !
 ! A128  A(41,40,79)           109.7434         estimate D2E/DX2                !
 ! A129  A(44,40,79)           126.0103         estimate D2E/DX2                !
 ! A130  A(40,41,45)           121.6386         estimate D2E/DX2                !
 ! A131  A(40,41,80)           109.2354         estimate D2E/DX2                !
 ! A132  A(45,41,80)           122.5134         estimate D2E/DX2                !
 ! A133  A(38,42,46)           119.7101         estimate D2E/DX2                !
 ! A134  A(38,42,80)           119.2877         estimate D2E/DX2                !
 ! A135  A(46,42,80)           115.3902         estimate D2E/DX2                !
 ! A136  A(2,43,13)            109.7812         estimate D2E/DX2                !
 ! A137  A(2,43,39)            125.9145         estimate D2E/DX2                !
 ! A138  A(13,43,39)           120.331          estimate D2E/DX2                !
 ! A139  A(2,44,40)            115.2901         estimate D2E/DX2                !
 ! A140  A(2,44,47)            123.2846         estimate D2E/DX2                !
 ! A141  A(40,44,47)           119.883          estimate D2E/DX2                !
 ! A142  A(4,45,41)            115.1399         estimate D2E/DX2                !
 ! A143  A(4,45,48)            120.9708         estimate D2E/DX2                !
 ! A144  A(41,45,48)           118.484          estimate D2E/DX2                !
 ! A145  A(4,46,14)            108.3692         estimate D2E/DX2                !
 ! A146  A(4,46,42)            122.5018         estimate D2E/DX2                !
 ! A147  A(14,46,42)           120.7842         estimate D2E/DX2                !
 ! A148  A(44,47,48)           120.831          estimate D2E/DX2                !
 ! A149  A(44,47,49)           118.8901         estimate D2E/DX2                !
 ! A150  A(48,47,49)           119.15           estimate D2E/DX2                !
 ! A151  A(45,48,47)           118.925          estimate D2E/DX2                !
 ! A152  A(45,48,50)           116.6372         estimate D2E/DX2                !
 ! A153  A(47,48,50)           119.8541         estimate D2E/DX2                !
 ! A154  A(10,49,47)           111.6685         estimate D2E/DX2                !
 ! A155  A(10,49,51)           100.8777         estimate D2E/DX2                !
 ! A156  A(10,49,93)           111.5709         estimate D2E/DX2                !
 ! A157  A(47,49,51)           112.2513         estimate D2E/DX2                !
 ! A158  A(47,49,93)           108.372          estimate D2E/DX2                !
 ! A159  A(51,49,93)           112.0316         estimate D2E/DX2                !
 ! A160  A(11,50,48)           120.7654         estimate D2E/DX2                !
 ! A161  A(11,50,52)           106.0354         estimate D2E/DX2                !
 ! A162  A(48,50,52)           120.3134         estimate D2E/DX2                !
 ! A163  A(49,51,52)           121.2232         estimate D2E/DX2                !
 ! A164  A(49,51,55)           111.4682         estimate D2E/DX2                !
 ! A165  A(52,51,55)           119.6532         estimate D2E/DX2                !
 ! A166  A(50,52,51)           120.7063         estimate D2E/DX2                !
 ! A167  A(50,52,56)           109.2408         estimate D2E/DX2                !
 ! A168  A(51,52,56)           120.1739         estimate D2E/DX2                !
 ! A169  A(10,53,19)           121.8736         estimate D2E/DX2                !
 ! A170  A(10,53,55)           108.6075         estimate D2E/DX2                !
 ! A171  A(19,53,55)           121.5459         estimate D2E/DX2                !
 ! A172  A(11,54,20)           120.6771         estimate D2E/DX2                !
 ! A173  A(11,54,56)           106.9941         estimate D2E/DX2                !
 ! A174  A(20,54,56)           122.1414         estimate D2E/DX2                !
 ! A175  A(51,55,53)           108.1952         estimate D2E/DX2                !
 ! A176  A(51,55,83)           122.0089         estimate D2E/DX2                !
 ! A177  A(53,55,83)           121.5988         estimate D2E/DX2                !
 ! A178  A(52,56,54)           107.7193         estimate D2E/DX2                !
 ! A179  A(52,56,84)           120.6303         estimate D2E/DX2                !
 ! A180  A(54,56,84)           121.9989         estimate D2E/DX2                !
 ! A181  A(21,57,59)           107.919          estimate D2E/DX2                !
 ! A182  A(21,57,83)           122.1557         estimate D2E/DX2                !
 ! A183  A(59,57,83)           121.9048         estimate D2E/DX2                !
 ! A184  A(22,58,60)           108.3465         estimate D2E/DX2                !
 ! A185  A(22,58,84)           121.9374         estimate D2E/DX2                !
 ! A186  A(60,58,84)           121.5072         estimate D2E/DX2                !
 ! A187  A(57,59,60)           119.8398         estimate D2E/DX2                !
 ! A188  A(57,59,61)           111.2504         estimate D2E/DX2                !
 ! A189  A(60,59,61)           121.6536         estimate D2E/DX2                !
 ! A190  A(58,60,59)           119.9728         estimate D2E/DX2                !
 ! A191  A(58,60,62)           111.3654         estimate D2E/DX2                !
 ! A192  A(59,60,62)           121.6342         estimate D2E/DX2                !
 ! A193  A(23,61,59)           100.818          estimate D2E/DX2                !
 ! A194  A(23,61,63)           109.8923         estimate D2E/DX2                !
 ! A195  A(23,61,89)           113.7187         estimate D2E/DX2                !
 ! A196  A(59,61,63)           109.9032         estimate D2E/DX2                !
 ! A197  A(59,61,89)           113.8184         estimate D2E/DX2                !
 ! A198  A(63,61,89)           108.4926         estimate D2E/DX2                !
 ! A199  A(24,62,60)           100.8014         estimate D2E/DX2                !
 ! A200  A(24,62,64)           109.8757         estimate D2E/DX2                !
 ! A201  A(24,62,90)           114.0504         estimate D2E/DX2                !
 ! A202  A(60,62,64)           109.8844         estimate D2E/DX2                !
 ! A203  A(60,62,90)           113.5995         estimate D2E/DX2                !
 ! A204  A(64,62,90)           108.433          estimate D2E/DX2                !
 ! A205  A(61,63,64)           119.8248         estimate D2E/DX2                !
 ! A206  A(61,63,65)           120.0754         estimate D2E/DX2                !
 ! A207  A(64,63,65)           119.8826         estimate D2E/DX2                !
 ! A208  A(62,64,63)           120.033          estimate D2E/DX2                !
 ! A209  A(62,64,66)           119.8617         estimate D2E/DX2                !
 ! A210  A(63,64,66)           119.8658         estimate D2E/DX2                !
 ! A211  A(27,65,63)           119.6768         estimate D2E/DX2                !
 ! A212  A(27,65,67)           119.7528         estimate D2E/DX2                !
 ! A213  A(63,65,67)           120.3392         estimate D2E/DX2                !
 ! A214  A(28,66,64)           119.6092         estimate D2E/DX2                !
 ! A215  A(28,66,68)           119.817          estimate D2E/DX2                !
 ! A216  A(64,66,68)           120.2841         estimate D2E/DX2                !
 ! A217  A(65,67,68)           119.6802         estimate D2E/DX2                !
 ! A218  A(65,67,69)           119.8892         estimate D2E/DX2                !
 ! A219  A(68,67,69)           120.2325         estimate D2E/DX2                !
 ! A220  A(66,68,67)           119.9376         estimate D2E/DX2                !
 ! A221  A(66,68,70)           119.5303         estimate D2E/DX2                !
 ! A222  A(67,68,70)           120.3011         estimate D2E/DX2                !
 ! A223  A(31,69,67)           108.6336         estimate D2E/DX2                !
 ! A224  A(31,69,71)           100.9022         estimate D2E/DX2                !
 ! A225  A(31,69,86)           114.3743         estimate D2E/DX2                !
 ! A226  A(67,69,71)           110.5562         estimate D2E/DX2                !
 ! A227  A(67,69,86)           108.4794         estimate D2E/DX2                !
 ! A228  A(71,69,86)           113.667          estimate D2E/DX2                !
 ! A229  A(32,70,68)           108.5258         estimate D2E/DX2                !
 ! A230  A(32,70,72)           101.0946         estimate D2E/DX2                !
 ! A231  A(32,70,87)           114.2914         estimate D2E/DX2                !
 ! A232  A(68,70,72)           110.3935         estimate D2E/DX2                !
 ! A233  A(68,70,87)           108.5826         estimate D2E/DX2                !
 ! A234  A(72,70,87)           113.7091         estimate D2E/DX2                !
 ! A235  A(69,71,72)           121.5547         estimate D2E/DX2                !
 ! A236  A(69,71,73)           110.525          estimate D2E/DX2                !
 ! A237  A(72,71,73)           119.9083         estimate D2E/DX2                !
 ! A238  A(70,72,71)           122.2052         estimate D2E/DX2                !
 ! A239  A(70,72,74)           110.2753         estimate D2E/DX2                !
 ! A240  A(71,72,74)           118.9693         estimate D2E/DX2                !
 ! A241  A(33,73,71)           108.4801         estimate D2E/DX2                !
 ! A242  A(33,73,75)           120.0126         estimate D2E/DX2                !
 ! A243  A(71,73,75)           121.7717         estimate D2E/DX2                !
 ! A244  A(34,74,72)           109.6846         estimate D2E/DX2                !
 ! A245  A(34,74,76)           119.4587         estimate D2E/DX2                !
 ! A246  A(72,74,76)           120.718          estimate D2E/DX2                !
 ! A247  A(73,75,76)           117.9967         estimate D2E/DX2                !
 ! A248  A(73,75,77)           122.4479         estimate D2E/DX2                !
 ! A249  A(76,75,77)           110.3529         estimate D2E/DX2                !
 ! A250  A(74,76,75)           120.4036         estimate D2E/DX2                !
 ! A251  A(74,76,78)           119.5251         estimate D2E/DX2                !
 ! A252  A(75,76,78)           109.7206         estimate D2E/DX2                !
 ! A253  A(37,77,75)           112.608          estimate D2E/DX2                !
 ! A254  A(37,77,81)           110.6788         estimate D2E/DX2                !
 ! A255  A(37,77,94)           108.0104         estimate D2E/DX2                !
 ! A256  A(75,77,81)           101.1446         estimate D2E/DX2                !
 ! A257  A(75,77,94)           112.1844         estimate D2E/DX2                !
 ! A258  A(81,77,94)           112.1861         estimate D2E/DX2                !
 ! A259  A(38,78,76)           121.5683         estimate D2E/DX2                !
 ! A260  A(38,78,81)           122.853          estimate D2E/DX2                !
 ! A261  A(76,78,81)           107.1085         estimate D2E/DX2                !
 ! A262  A(39,79,40)           110.1678         estimate D2E/DX2                !
 ! A263  A(39,79,82)           110.4417         estimate D2E/DX2                !
 ! A264  A(39,79,91)           110.0572         estimate D2E/DX2                !
 ! A265  A(40,79,82)           101.0838         estimate D2E/DX2                !
 ! A266  A(40,79,91)           111.8201         estimate D2E/DX2                !
 ! A267  A(82,79,91)           112.9793         estimate D2E/DX2                !
 ! A268  A(41,80,42)           120.9485         estimate D2E/DX2                !
 ! A269  A(41,80,82)           107.8052         estimate D2E/DX2                !
 ! A270  A(42,80,82)           122.1957         estimate D2E/DX2                !
 ! A271  A(77,81,78)           111.1903         estimate D2E/DX2                !
 ! A272  A(77,81,82)           121.8733         estimate D2E/DX2                !
 ! A273  A(78,81,82)           120.058          estimate D2E/DX2                !
 ! A274  A(79,82,80)           110.9371         estimate D2E/DX2                !
 ! A275  A(79,82,81)           122.9503         estimate D2E/DX2                !
 ! A276  A(80,82,81)           118.9323         estimate D2E/DX2                !
 ! A277  A(55,83,57)           116.1284         estimate D2E/DX2                !
 ! A278  A(55,83,84)           118.5975         estimate D2E/DX2                !
 ! A279  A(57,83,84)           118.4398         estimate D2E/DX2                !
 ! A280  A(56,84,58)           115.7757         estimate D2E/DX2                !
 ! A281  A(56,84,83)           118.8357         estimate D2E/DX2                !
 ! A282  A(58,84,83)           118.3318         estimate D2E/DX2                !
 ! D1    D(17,1,5,9)            -3.7792         estimate D2E/DX2                !
 ! D2    D(17,1,5,29)         -151.4721         estimate D2E/DX2                !
 ! D3    D(25,1,5,9)           145.1073         estimate D2E/DX2                !
 ! D4    D(25,1,5,29)           -2.5856         estimate D2E/DX2                !
 ! D5    D(5,1,17,15)           -5.5111         estimate D2E/DX2                !
 ! D6    D(5,1,17,19)          144.9372         estimate D2E/DX2                !
 ! D7    D(25,1,17,15)        -150.2051         estimate D2E/DX2                !
 ! D8    D(25,1,17,19)           0.2432         estimate D2E/DX2                !
 ! D9    D(5,1,25,23)         -147.7359         estimate D2E/DX2                !
 ! D10   D(5,1,25,27)            2.5041         estimate D2E/DX2                !
 ! D11   D(17,1,25,23)           1.1724         estimate D2E/DX2                !
 ! D12   D(17,1,25,27)         151.4125         estimate D2E/DX2                !
 ! D13   D(43,2,6,10)         -139.8891         estimate D2E/DX2                !
 ! D14   D(43,2,6,15)            9.5547         estimate D2E/DX2                !
 ! D15   D(44,2,6,10)          -23.0996         estimate D2E/DX2                !
 ! D16   D(44,2,6,15)          126.3442         estimate D2E/DX2                !
 ! D17   D(92,2,6,10)          101.1678         estimate D2E/DX2                !
 ! D18   D(92,2,6,15)         -109.3884         estimate D2E/DX2                !
 ! D19   D(6,2,43,13)          -10.4644         estimate D2E/DX2                !
 ! D20   D(6,2,43,39)          146.9214         estimate D2E/DX2                !
 ! D21   D(44,2,43,13)        -128.0806         estimate D2E/DX2                !
 ! D22   D(44,2,43,39)          29.3053         estimate D2E/DX2                !
 ! D23   D(92,2,43,13)         109.2847         estimate D2E/DX2                !
 ! D24   D(92,2,43,39)         -93.3295         estimate D2E/DX2                !
 ! D25   D(6,2,44,40)         -145.3432         estimate D2E/DX2                !
 ! D26   D(6,2,44,47)           20.4379         estimate D2E/DX2                !
 ! D27   D(43,2,44,40)         -34.0939         estimate D2E/DX2                !
 ! D28   D(43,2,44,47)         131.6872         estimate D2E/DX2                !
 ! D29   D(92,2,44,40)          89.162          estimate D2E/DX2                !
 ! D30   D(92,2,44,47)        -105.0569         estimate D2E/DX2                !
 ! D31   D(18,3,7,12)            2.7281         estimate D2E/DX2                !
 ! D32   D(18,3,7,30)          151.4524         estimate D2E/DX2                !
 ! D33   D(26,3,7,12)         -146.1622         estimate D2E/DX2                !
 ! D34   D(26,3,7,30)            2.5621         estimate D2E/DX2                !
 ! D35   D(7,3,18,16)            5.7626         estimate D2E/DX2                !
 ! D36   D(7,3,18,20)         -144.771          estimate D2E/DX2                !
 ! D37   D(26,3,18,16)         150.4788         estimate D2E/DX2                !
 ! D38   D(26,3,18,20)          -0.0548         estimate D2E/DX2                !
 ! D39   D(7,3,26,24)          147.8358         estimate D2E/DX2                !
 ! D40   D(7,3,26,28)           -2.7068         estimate D2E/DX2                !
 ! D41   D(18,3,26,24)          -1.169          estimate D2E/DX2                !
 ! D42   D(18,3,26,28)        -151.7116         estimate D2E/DX2                !
 ! D43   D(45,4,8,11)            4.0964         estimate D2E/DX2                !
 ! D44   D(45,4,8,16)         -140.7397         estimate D2E/DX2                !
 ! D45   D(46,4,8,11)          148.6005         estimate D2E/DX2                !
 ! D46   D(46,4,8,16)            3.7644         estimate D2E/DX2                !
 ! D47   D(8,4,45,41)          152.036          estimate D2E/DX2                !
 ! D48   D(8,4,45,48)           -1.6092         estimate D2E/DX2                !
 ! D49   D(46,4,45,41)          12.6649         estimate D2E/DX2                !
 ! D50   D(46,4,45,48)        -140.9804         estimate D2E/DX2                !
 ! D51   D(8,4,46,14)           -3.03           estimate D2E/DX2                !
 ! D52   D(8,4,46,42)         -151.3502         estimate D2E/DX2                !
 ! D53   D(45,4,46,14)         140.9655         estimate D2E/DX2                !
 ! D54   D(45,4,46,42)          -7.3546         estimate D2E/DX2                !
 ! D55   D(1,5,9,13)             8.427          estimate D2E/DX2                !
 ! D56   D(1,5,9,35)          -145.803          estimate D2E/DX2                !
 ! D57   D(29,5,9,13)          152.0804         estimate D2E/DX2                !
 ! D58   D(29,5,9,35)           -2.1495         estimate D2E/DX2                !
 ! D59   D(1,5,29,27)            1.7368         estimate D2E/DX2                !
 ! D60   D(1,5,29,31)          152.282          estimate D2E/DX2                !
 ! D61   D(9,5,29,27)         -146.0789         estimate D2E/DX2                !
 ! D62   D(9,5,29,31)            4.4663         estimate D2E/DX2                !
 ! D63   D(2,6,10,49)           -0.4847         estimate D2E/DX2                !
 ! D64   D(2,6,10,53)          147.3151         estimate D2E/DX2                !
 ! D65   D(15,6,10,49)        -147.3708         estimate D2E/DX2                !
 ! D66   D(15,6,10,53)           0.4291         estimate D2E/DX2                !
 ! D67   D(2,6,15,13)           -5.4635         estimate D2E/DX2                !
 ! D68   D(2,6,15,17)         -152.6184         estimate D2E/DX2                !
 ! D69   D(10,6,15,13)         145.0068         estimate D2E/DX2                !
 ! D70   D(10,6,15,17)          -2.1482         estimate D2E/DX2                !
 ! D71   D(3,7,12,14)           -7.887          estimate D2E/DX2                !
 ! D72   D(3,7,12,36)          145.6195         estimate D2E/DX2                !
 ! D73   D(30,7,12,14)        -152.6678         estimate D2E/DX2                !
 ! D74   D(30,7,12,36)           0.8387         estimate D2E/DX2                !
 ! D75   D(3,7,30,28)           -1.5347         estimate D2E/DX2                !
 ! D76   D(3,7,30,32)         -152.4217         estimate D2E/DX2                !
 ! D77   D(12,7,30,28)         147.4902         estimate D2E/DX2                !
 ! D78   D(12,7,30,32)          -3.3968         estimate D2E/DX2                !
 ! D79   D(4,8,11,50)            1.2985         estimate D2E/DX2                !
 ! D80   D(4,8,11,54)         -140.8517         estimate D2E/DX2                !
 ! D81   D(16,8,11,50)         141.8997         estimate D2E/DX2                !
 ! D82   D(16,8,11,54)          -0.2506         estimate D2E/DX2                !
 ! D83   D(4,8,16,14)           -3.0294         estimate D2E/DX2                !
 ! D84   D(4,8,16,18)          142.1325         estimate D2E/DX2                !
 ! D85   D(11,8,16,14)        -147.1403         estimate D2E/DX2                !
 ! D86   D(11,8,16,18)          -1.9785         estimate D2E/DX2                !
 ! D87   D(5,9,13,15)           -4.0843         estimate D2E/DX2                !
 ! D88   D(5,9,13,43)         -152.1501         estimate D2E/DX2                !
 ! D89   D(35,9,13,15)         150.5399         estimate D2E/DX2                !
 ! D90   D(35,9,13,43)           2.4741         estimate D2E/DX2                !
 ! D91   D(5,9,35,33)           -5.5072         estimate D2E/DX2                !
 ! D92   D(5,9,35,37)          151.1506         estimate D2E/DX2                !
 ! D93   D(13,9,35,33)        -159.0321         estimate D2E/DX2                !
 ! D94   D(13,9,35,37)          -2.3743         estimate D2E/DX2                !
 ! D95   D(6,10,49,47)          26.6308         estimate D2E/DX2                !
 ! D96   D(6,10,49,51)         146.0548         estimate D2E/DX2                !
 ! D97   D(6,10,49,93)         -94.82           estimate D2E/DX2                !
 ! D98   D(53,10,49,47)       -123.7875         estimate D2E/DX2                !
 ! D99   D(53,10,49,51)         -4.3635         estimate D2E/DX2                !
 ! D100  D(53,10,49,93)        114.7617         estimate D2E/DX2                !
 ! D101  D(6,10,53,19)           1.0429         estimate D2E/DX2                !
 ! D102  D(6,10,53,55)        -148.2074         estimate D2E/DX2                !
 ! D103  D(49,10,53,19)        152.2974         estimate D2E/DX2                !
 ! D104  D(49,10,53,55)          3.0471         estimate D2E/DX2                !
 ! D105  D(8,11,50,48)          -9.3063         estimate D2E/DX2                !
 ! D106  D(8,11,50,52)        -150.7753         estimate D2E/DX2                !
 ! D107  D(54,11,50,48)        136.0708         estimate D2E/DX2                !
 ! D108  D(54,11,50,52)         -5.3983         estimate D2E/DX2                !
 ! D109  D(8,11,54,20)           2.9092         estimate D2E/DX2                !
 ! D110  D(8,11,54,56)         148.8151         estimate D2E/DX2                !
 ! D111  D(50,11,54,20)       -143.1861         estimate D2E/DX2                !
 ! D112  D(50,11,54,56)          2.7198         estimate D2E/DX2                !
 ! D113  D(7,12,14,16)           4.7074         estimate D2E/DX2                !
 ! D114  D(7,12,14,46)         148.2719         estimate D2E/DX2                !
 ! D115  D(36,12,14,16)       -148.742          estimate D2E/DX2                !
 ! D116  D(36,12,14,46)         -5.1775         estimate D2E/DX2                !
 ! D117  D(7,12,36,34)           4.8656         estimate D2E/DX2                !
 ! D118  D(7,12,36,38)        -149.0212         estimate D2E/DX2                !
 ! D119  D(14,12,36,34)        157.1633         estimate D2E/DX2                !
 ! D120  D(14,12,36,38)          3.2765         estimate D2E/DX2                !
 ! D121  D(9,13,15,6)         -152.9139         estimate D2E/DX2                !
 ! D122  D(9,13,15,17)          -5.2119         estimate D2E/DX2                !
 ! D123  D(43,13,15,6)          -1.5859         estimate D2E/DX2                !
 ! D124  D(43,13,15,17)        146.1161         estimate D2E/DX2                !
 ! D125  D(9,13,43,2)          159.6903         estimate D2E/DX2                !
 ! D126  D(9,13,43,39)           0.8402         estimate D2E/DX2                !
 ! D127  D(15,13,43,2)           7.9299         estimate D2E/DX2                !
 ! D128  D(15,13,43,39)       -150.9202         estimate D2E/DX2                !
 ! D129  D(12,14,16,8)         148.3808         estimate D2E/DX2                !
 ! D130  D(12,14,16,18)          3.8328         estimate D2E/DX2                !
 ! D131  D(46,14,16,8)           1.1222         estimate D2E/DX2                !
 ! D132  D(46,14,16,18)       -143.4258         estimate D2E/DX2                !
 ! D133  D(12,14,46,4)        -146.9126         estimate D2E/DX2                !
 ! D134  D(12,14,46,42)          2.0527         estimate D2E/DX2                !
 ! D135  D(16,14,46,4)           1.1937         estimate D2E/DX2                !
 ! D136  D(16,14,46,42)        150.159          estimate D2E/DX2                !
 ! D137  D(6,15,17,1)          152.8026         estimate D2E/DX2                !
 ! D138  D(6,15,17,19)           2.3227         estimate D2E/DX2                !
 ! D139  D(13,15,17,1)           9.7965         estimate D2E/DX2                !
 ! D140  D(13,15,17,19)       -140.6833         estimate D2E/DX2                !
 ! D141  D(8,16,18,3)         -148.8353         estimate D2E/DX2                !
 ! D142  D(8,16,18,20)           1.5479         estimate D2E/DX2                !
 ! D143  D(14,16,18,3)          -8.9476         estimate D2E/DX2                !
 ! D144  D(14,16,18,20)        141.4356         estimate D2E/DX2                !
 ! D145  D(1,17,19,21)          -1.2439         estimate D2E/DX2                !
 ! D146  D(1,17,19,53)        -150.666          estimate D2E/DX2                !
 ! D147  D(15,17,19,21)        148.6068         estimate D2E/DX2                !
 ! D148  D(15,17,19,53)         -0.8153         estimate D2E/DX2                !
 ! D149  D(3,18,20,22)           1.0307         estimate D2E/DX2                !
 ! D150  D(3,18,20,54)         150.532          estimate D2E/DX2                !
 ! D151  D(16,18,20,22)       -148.4334         estimate D2E/DX2                !
 ! D152  D(16,18,20,54)          1.0679         estimate D2E/DX2                !
 ! D153  D(17,19,21,23)          0.9163         estimate D2E/DX2                !
 ! D154  D(17,19,21,57)       -143.8455         estimate D2E/DX2                !
 ! D155  D(53,19,21,23)        150.8413         estimate D2E/DX2                !
 ! D156  D(53,19,21,57)          6.0795         estimate D2E/DX2                !
 ! D157  D(17,19,53,10)         -0.8285         estimate D2E/DX2                !
 ! D158  D(17,19,53,55)        144.5198         estimate D2E/DX2                !
 ! D159  D(21,19,53,10)       -150.7822         estimate D2E/DX2                !
 ! D160  D(21,19,53,55)         -5.4339         estimate D2E/DX2                !
 ! D161  D(18,20,22,24)         -0.8731         estimate D2E/DX2                !
 ! D162  D(18,20,22,58)        144.2074         estimate D2E/DX2                !
 ! D163  D(54,20,22,24)       -151.5021         estimate D2E/DX2                !
 ! D164  D(54,20,22,58)         -6.4216         estimate D2E/DX2                !
 ! D165  D(18,20,54,11)         -3.3036         estimate D2E/DX2                !
 ! D166  D(18,20,54,56)       -144.0237         estimate D2E/DX2                !
 ! D167  D(22,20,54,11)        146.8847         estimate D2E/DX2                !
 ! D168  D(22,20,54,56)          6.1646         estimate D2E/DX2                !
 ! D169  D(19,21,23,25)          0.4898         estimate D2E/DX2                !
 ! D170  D(19,21,23,61)       -149.8164         estimate D2E/DX2                !
 ! D171  D(57,21,23,25)        149.2802         estimate D2E/DX2                !
 ! D172  D(57,21,23,61)         -1.026          estimate D2E/DX2                !
 ! D173  D(19,21,57,59)        148.5256         estimate D2E/DX2                !
 ! D174  D(19,21,57,83)         -0.7208         estimate D2E/DX2                !
 ! D175  D(23,21,57,59)         -0.3003         estimate D2E/DX2                !
 ! D176  D(23,21,57,83)       -149.5467         estimate D2E/DX2                !
 ! D177  D(20,22,24,26)         -0.3342         estimate D2E/DX2                !
 ! D178  D(20,22,24,62)        150.0762         estimate D2E/DX2                !
 ! D179  D(58,22,24,26)       -149.5647         estimate D2E/DX2                !
 ! D180  D(58,22,24,62)          0.8457         estimate D2E/DX2                !
 ! D181  D(20,22,58,60)       -148.4518         estimate D2E/DX2                !
 ! D182  D(20,22,58,84)          0.3653         estimate D2E/DX2                !
 ! D183  D(24,22,58,60)          0.7643         estimate D2E/DX2                !
 ! D184  D(24,22,58,84)        149.5814         estimate D2E/DX2                !
 ! D185  D(21,23,25,1)          -1.5218         estimate D2E/DX2                !
 ! D186  D(21,23,25,27)       -148.6252         estimate D2E/DX2                !
 ! D187  D(61,23,25,1)         145.923          estimate D2E/DX2                !
 ! D188  D(61,23,25,27)         -1.1805         estimate D2E/DX2                !
 ! D189  D(21,23,61,59)          1.8072         estimate D2E/DX2                !
 ! D190  D(21,23,61,63)        117.7661         estimate D2E/DX2                !
 ! D191  D(21,23,61,89)       -120.4035         estimate D2E/DX2                !
 ! D192  D(25,23,61,59)       -148.1501         estimate D2E/DX2                !
 ! D193  D(25,23,61,63)        -32.1911         estimate D2E/DX2                !
 ! D194  D(25,23,61,89)         89.6393         estimate D2E/DX2                !
 ! D195  D(22,24,26,3)           1.3422         estimate D2E/DX2                !
 ! D196  D(22,24,26,28)        148.7984         estimate D2E/DX2                !
 ! D197  D(62,24,26,3)        -146.0294         estimate D2E/DX2                !
 ! D198  D(62,24,26,28)          1.4267         estimate D2E/DX2                !
 ! D199  D(22,24,62,60)         -1.9625         estimate D2E/DX2                !
 ! D200  D(22,24,62,64)       -117.8855         estimate D2E/DX2                !
 ! D201  D(22,24,62,90)        120.1411         estimate D2E/DX2                !
 ! D202  D(26,24,62,60)        147.9792         estimate D2E/DX2                !
 ! D203  D(26,24,62,64)         32.0563         estimate D2E/DX2                !
 ! D204  D(26,24,62,90)        -89.9172         estimate D2E/DX2                !
 ! D205  D(1,25,27,29)          -1.392          estimate D2E/DX2                !
 ! D206  D(1,25,27,65)        -116.0632         estimate D2E/DX2                !
 ! D207  D(1,25,27,85)         121.4275         estimate D2E/DX2                !
 ! D208  D(23,25,27,29)        148.2374         estimate D2E/DX2                !
 ! D209  D(23,25,27,65)         33.5661         estimate D2E/DX2                !
 ! D210  D(23,25,27,85)        -88.9431         estimate D2E/DX2                !
 ! D211  D(3,26,28,30)           1.6815         estimate D2E/DX2                !
 ! D212  D(3,26,28,66)         116.4051         estimate D2E/DX2                !
 ! D213  D(3,26,28,88)        -121.1294         estimate D2E/DX2                !
 ! D214  D(24,26,28,30)       -148.2791         estimate D2E/DX2                !
 ! D215  D(24,26,28,66)        -33.5556         estimate D2E/DX2                !
 ! D216  D(24,26,28,88)         88.91           estimate D2E/DX2                !
 ! D217  D(25,27,29,5)          -0.2335         estimate D2E/DX2                !
 ! D218  D(25,27,29,31)       -149.7708         estimate D2E/DX2                !
 ! D219  D(65,27,29,5)         115.2483         estimate D2E/DX2                !
 ! D220  D(65,27,29,31)        -34.289          estimate D2E/DX2                !
 ! D221  D(85,27,29,5)        -122.559          estimate D2E/DX2                !
 ! D222  D(85,27,29,31)         87.9037         estimate D2E/DX2                !
 ! D223  D(25,27,65,63)        -31.8146         estimate D2E/DX2                !
 ! D224  D(25,27,65,67)        142.6806         estimate D2E/DX2                !
 ! D225  D(29,27,65,63)       -141.3479         estimate D2E/DX2                !
 ! D226  D(29,27,65,67)         33.1472         estimate D2E/DX2                !
 ! D227  D(85,27,65,63)         93.3372         estimate D2E/DX2                !
 ! D228  D(85,27,65,67)        -92.1676         estimate D2E/DX2                !
 ! D229  D(26,28,30,7)          -0.0803         estimate D2E/DX2                !
 ! D230  D(26,28,30,32)        150.0409         estimate D2E/DX2                !
 ! D231  D(66,28,30,7)        -115.6476         estimate D2E/DX2                !
 ! D232  D(66,28,30,32)         34.4735         estimate D2E/DX2                !
 ! D233  D(88,28,30,7)         122.3001         estimate D2E/DX2                !
 ! D234  D(88,28,30,32)        -87.5788         estimate D2E/DX2                !
 ! D235  D(26,28,66,64)         31.3737         estimate D2E/DX2                !
 ! D236  D(26,28,66,68)       -142.4641         estimate D2E/DX2                !
 ! D237  D(30,28,66,64)        140.8458         estimate D2E/DX2                !
 ! D238  D(30,28,66,68)        -32.992          estimate D2E/DX2                !
 ! D239  D(88,28,66,64)        -93.8801         estimate D2E/DX2                !
 ! D240  D(88,28,66,68)         92.2822         estimate D2E/DX2                !
 ! D241  D(5,29,31,33)           1.2256         estimate D2E/DX2                !
 ! D242  D(5,29,31,69)        -147.7285         estimate D2E/DX2                !
 ! D243  D(27,29,31,33)        148.4904         estimate D2E/DX2                !
 ! D244  D(27,29,31,69)         -0.4637         estimate D2E/DX2                !
 ! D245  D(7,30,32,34)           0.0125         estimate D2E/DX2                !
 ! D246  D(7,30,32,70)         148.0036         estimate D2E/DX2                !
 ! D247  D(28,30,32,34)       -147.8226         estimate D2E/DX2                !
 ! D248  D(28,30,32,70)          0.1685         estimate D2E/DX2                !
 ! D249  D(29,31,33,35)         -9.4226         estimate D2E/DX2                !
 ! D250  D(29,31,33,73)       -155.3536         estimate D2E/DX2                !
 ! D251  D(69,31,33,35)        141.9813         estimate D2E/DX2                !
 ! D252  D(69,31,33,73)         -3.9497         estimate D2E/DX2                !
 ! D253  D(29,31,69,67)         35.3321         estimate D2E/DX2                !
 ! D254  D(29,31,69,71)        151.5833         estimate D2E/DX2                !
 ! D255  D(29,31,69,86)        -86.0002         estimate D2E/DX2                !
 ! D256  D(33,31,69,67)       -116.1073         estimate D2E/DX2                !
 ! D257  D(33,31,69,71)          0.1439         estimate D2E/DX2                !
 ! D258  D(33,31,69,86)        122.5603         estimate D2E/DX2                !
 ! D259  D(30,32,34,36)          6.1463         estimate D2E/DX2                !
 ! D260  D(30,32,34,74)        155.209          estimate D2E/DX2                !
 ! D261  D(70,32,34,36)       -144.6842         estimate D2E/DX2                !
 ! D262  D(70,32,34,74)          4.3785         estimate D2E/DX2                !
 ! D263  D(30,32,70,68)        -35.3626         estimate D2E/DX2                !
 ! D264  D(30,32,70,72)       -151.4805         estimate D2E/DX2                !
 ! D265  D(30,32,70,87)         85.968          estimate D2E/DX2                !
 ! D266  D(34,32,70,68)        115.1223         estimate D2E/DX2                !
 ! D267  D(34,32,70,72)         -0.9957         estimate D2E/DX2                !
 ! D268  D(34,32,70,87)       -123.5472         estimate D2E/DX2                !
 ! D269  D(31,33,35,9)          11.2781         estimate D2E/DX2                !
 ! D270  D(31,33,35,37)       -145.1105         estimate D2E/DX2                !
 ! D271  D(73,33,35,9)         152.9134         estimate D2E/DX2                !
 ! D272  D(73,33,35,37)         -3.4753         estimate D2E/DX2                !
 ! D273  D(31,33,73,71)          6.2923         estimate D2E/DX2                !
 ! D274  D(31,33,73,75)        152.8231         estimate D2E/DX2                !
 ! D275  D(35,33,73,71)       -140.0588         estimate D2E/DX2                !
 ! D276  D(35,33,73,75)          6.4721         estimate D2E/DX2                !
 ! D277  D(32,34,36,12)         -8.4217         estimate D2E/DX2                !
 ! D278  D(32,34,36,38)        145.9072         estimate D2E/DX2                !
 ! D279  D(74,34,36,12)       -152.8798         estimate D2E/DX2                !
 ! D280  D(74,34,36,38)          1.449          estimate D2E/DX2                !
 ! D281  D(32,34,74,72)         -6.1364         estimate D2E/DX2                !
 ! D282  D(32,34,74,76)       -151.7387         estimate D2E/DX2                !
 ! D283  D(36,34,74,72)        143.0067         estimate D2E/DX2                !
 ! D284  D(36,34,74,76)         -2.5957         estimate D2E/DX2                !
 ! D285  D(9,35,37,39)          -0.9643         estimate D2E/DX2                !
 ! D286  D(9,35,37,77)        -168.3156         estimate D2E/DX2                !
 ! D287  D(33,35,37,39)        154.69           estimate D2E/DX2                !
 ! D288  D(33,35,37,77)        -12.6614         estimate D2E/DX2                !
 ! D289  D(12,36,38,42)          1.7377         estimate D2E/DX2                !
 ! D290  D(12,36,38,78)        154.6551         estimate D2E/DX2                !
 ! D291  D(34,36,38,42)       -151.7081         estimate D2E/DX2                !
 ! D292  D(34,36,38,78)          1.2092         estimate D2E/DX2                !
 ! D293  D(35,37,39,43)          4.307          estimate D2E/DX2                !
 ! D294  D(35,37,39,79)       -160.3115         estimate D2E/DX2                !
 ! D295  D(77,37,39,43)        171.6774         estimate D2E/DX2                !
 ! D296  D(77,37,39,79)          7.0589         estimate D2E/DX2                !
 ! D297  D(35,37,77,75)         23.9481         estimate D2E/DX2                !
 ! D298  D(35,37,77,81)        136.3419         estimate D2E/DX2                !
 ! D299  D(35,37,77,94)       -100.4876         estimate D2E/DX2                !
 ! D300  D(39,37,77,75)       -143.5376         estimate D2E/DX2                !
[...]
 Alpha virt. eigenvalues --    1.32832   1.33176   1.33885   1.34000   1.34523
 Alpha virt. eigenvalues --    1.34946   1.35049   1.35519   1.35992   1.36246
 Alpha virt. eigenvalues --    1.36542   1.37055   1.37416   1.38036   1.38232
 Alpha virt. eigenvalues --    1.38651   1.39250   1.40215   1.40622   1.40993
 Alpha virt. eigenvalues --    1.41351   1.41617   1.42931   1.43809   1.44282
 Alpha virt. eigenvalues --    1.44975   1.45383   1.45493   1.45996   1.46096
 Alpha virt. eigenvalues --    1.47106   1.47204   1.47819   1.48478   1.48741
 Alpha virt. eigenvalues --    1.49235   1.49973   1.50407   1.51002   1.51387
 Alpha virt. eigenvalues --    1.51727   1.52200   1.52675   1.53131   1.53354
 Alpha virt. eigenvalues --    1.54029   1.54898   1.55315   1.55569   1.55851
 Alpha virt. eigenvalues --    1.56458   1.56969   1.57417   1.58232   1.58956
 Alpha virt. eigenvalues --    1.59102   1.59894   1.60451   1.61185   1.61606
 Alpha virt. eigenvalues --    1.62106   1.62468   1.62603   1.62888   1.63279
 Alpha virt. eigenvalues --    1.63972   1.64119   1.64563   1.64878   1.64962
 Alpha virt. eigenvalues --    1.65248   1.65382   1.65560   1.65775   1.66179
 Alpha virt. eigenvalues --    1.66361   1.66721   1.66823   1.66952   1.67027
 Alpha virt. eigenvalues --    1.67373   1.67676   1.67908   1.67988   1.68161
 Alpha virt. eigenvalues --    1.68491   1.68768   1.68821   1.69148   1.69281
 Alpha virt. eigenvalues --    1.69642   1.69959   1.70087   1.70478   1.70585
 Alpha virt. eigenvalues --    1.70736   1.71043   1.71280   1.71467   1.71968
 Alpha virt. eigenvalues --    1.72075   1.72338   1.72927   1.73003   1.73284
 Alpha virt. eigenvalues --    1.73507   1.73759   1.74001   1.74356   1.74406
 Alpha virt. eigenvalues --    1.75002   1.75171   1.75383   1.75545   1.75612
 Alpha virt. eigenvalues --    1.75853   1.76038   1.76264   1.76340   1.76517
 Alpha virt. eigenvalues --    1.76943   1.77107   1.77388   1.77834   1.78005
 Alpha virt. eigenvalues --    1.78243   1.78404   1.78671   1.78789   1.78818
 Alpha virt. eigenvalues --    1.79027   1.79341   1.79754   1.79907   1.80031
 Alpha virt. eigenvalues --    1.80227   1.80526   1.80822   1.81005   1.81231
 Alpha virt. eigenvalues --    1.81602   1.81900   1.82211   1.82476   1.82720
 Alpha virt. eigenvalues --    1.83296   1.83681   1.83907   1.84044   1.84160
 Alpha virt. eigenvalues --    1.84601   1.85431   1.85987   1.86088   1.86291
 Alpha virt. eigenvalues --    1.86726   1.87181   1.87409   1.87850   1.88385
 Alpha virt. eigenvalues --    1.88508   1.88630   1.89221   1.89856   1.89892
 Alpha virt. eigenvalues --    1.90359   1.90866   1.90902   1.91337   1.91806
 Alpha virt. eigenvalues --    1.92600   1.92899   1.93281   1.93742   1.93775
 Alpha virt. eigenvalues --    1.94164   1.94628   1.95050   1.95101   1.95504
 Alpha virt. eigenvalues --    1.95630   1.95977   1.96534   1.96701   1.96891
 Alpha virt. eigenvalues --    1.97118   1.97740   1.98023   1.98457   1.98682
 Alpha virt. eigenvalues --    1.98993   1.99341   1.99592   1.99727   1.99876
 Alpha virt. eigenvalues --    2.00202   2.00565   2.01053   2.01206   2.01421
 Alpha virt. eigenvalues --    2.01792   2.02170   2.02462   2.02744   2.03062
 Alpha virt. eigenvalues --    2.03135   2.03533   2.03719   2.04198   2.04465
 Alpha virt. eigenvalues --    2.04869   2.05412   2.05696   2.06229   2.06578
 Alpha virt. eigenvalues --    2.06819   2.07498   2.08005   2.08350   2.08447
 Alpha virt. eigenvalues --    2.09104   2.09208   2.09460   2.09760   2.09782
 Alpha virt. eigenvalues --    2.10619   2.10952   2.11024   2.11282   2.11554
 Alpha virt. eigenvalues --    2.12089   2.12642   2.13059   2.13213   2.13745
 Alpha virt. eigenvalues --    2.13875   2.14384   2.14992   2.15819   2.16430
 Alpha virt. eigenvalues --    2.16774   2.16825   2.17351   2.17670   2.18255
 Alpha virt. eigenvalues --    2.18465   2.18861   2.19119   2.19449   2.19879
 Alpha virt. eigenvalues --    2.20167   2.20466   2.21100   2.21531   2.21901
 Alpha virt. eigenvalues --    2.22446   2.22815   2.23311   2.23909   2.24328
 Alpha virt. eigenvalues --    2.24717   2.25019   2.25207   2.25824   2.26057
 Alpha virt. eigenvalues --    2.26421   2.26760   2.27325   2.27722   2.28432
 Alpha virt. eigenvalues --    2.28555   2.28690   2.28858   2.29361   2.29872
 Alpha virt. eigenvalues --    2.30398   2.30972   2.31143   2.31570   2.32398
 Alpha virt. eigenvalues --    2.32875   2.33394   2.33531   2.34174   2.34579
 Alpha virt. eigenvalues --    2.35031   2.35709   2.36347   2.36942   2.37931
 Alpha virt. eigenvalues --    2.38223   2.38479   2.38915   2.39505   2.39913
 Alpha virt. eigenvalues --    2.40380   2.40985   2.41135   2.41902   2.42139
 Alpha virt. eigenvalues --    2.42189   2.42658   2.43334   2.43482   2.43623
 Alpha virt. eigenvalues --    2.44281   2.45172   2.46096   2.46752   2.47044
 Alpha virt. eigenvalues --    2.47412   2.47837   2.48569   2.48960   2.50528
 Alpha virt. eigenvalues --    2.50679   2.50908   2.51099   2.51726   2.52036
 Alpha virt. eigenvalues --    2.52496   2.52720   2.53483   2.53665   2.54053
 Alpha virt. eigenvalues --    2.54076   2.54609   2.55111   2.55619   2.55926
 Alpha virt. eigenvalues --    2.56131   2.56421   2.56616   2.57217   2.57540
 Alpha virt. eigenvalues --    2.57760   2.57849   2.57985   2.58219   2.59205
 Alpha virt. eigenvalues --    2.59316   2.59974   2.60226   2.60716   2.61010
 Alpha virt. eigenvalues --    2.61227   2.61726   2.61958   2.62174   2.62262
 Alpha virt. eigenvalues --    2.63051   2.63210   2.63824   2.64246   2.64533
 Alpha virt. eigenvalues --    2.64716   2.65127   2.65492   2.65701   2.66314
 Alpha virt. eigenvalues --    2.66505   2.66737   2.67301   2.67546   2.67932
 Alpha virt. eigenvalues --    2.67954   2.68262   2.69101   2.69855   2.69965
 Alpha virt. eigenvalues --    2.70275   2.70988   2.71343   2.71533   2.71784
 Alpha virt. eigenvalues --    2.71999   2.72255   2.72506   2.72941   2.73206
 Alpha virt. eigenvalues --    2.73584   2.74216   2.74462   2.74846   2.75260
 Alpha virt. eigenvalues --    2.75641   2.76127   2.76315   2.76530   2.77027
 Alpha virt. eigenvalues --    2.77425   2.77946   2.78187   2.78597   2.79458
 Alpha virt. eigenvalues --    2.79875   2.80119   2.80252   2.80879   2.81615
 Alpha virt. eigenvalues --    2.81666   2.81877   2.82755   2.83134   2.83748
 Alpha virt. eigenvalues --    2.84428   2.85615   2.85781   2.86510   2.87239
 Alpha virt. eigenvalues --    2.87563   2.87856   2.88204   2.88969   2.89174
 Alpha virt. eigenvalues --    2.89974   2.90052   2.90521   2.90728   2.91164
 Alpha virt. eigenvalues --    2.91603   2.91751   2.92690   2.92812   2.93023
 Alpha virt. eigenvalues --    2.93442   2.93685   2.94140   2.94838   2.96308
 Alpha virt. eigenvalues --    2.97264   2.97792   2.99092   2.99587   3.01050
 Alpha virt. eigenvalues --    3.01341   3.02119   3.02267   3.04115   3.05775
 Alpha virt. eigenvalues --    3.08141   3.08849   3.09479   3.10383   3.13243
 Alpha virt. eigenvalues --    3.13879   3.14275   3.14655   3.17441   3.17706
 Alpha virt. eigenvalues --    3.20116   3.20428   3.22120   3.22550   3.23427
 Alpha virt. eigenvalues --    3.25752   3.26951   3.28893   3.32604   3.32674
 Alpha virt. eigenvalues --    3.34796   3.35132   3.35337   3.38573   3.40601
 Alpha virt. eigenvalues --    3.42934   3.44913   3.47881   3.48189   3.49891
 Alpha virt. eigenvalues --    3.51549   3.55359   3.56490   3.69317   4.01078
 Alpha virt. eigenvalues --    4.01447   4.02191   4.02338   4.02856   4.03500
 Alpha virt. eigenvalues --    4.03854   4.05125   4.05687   4.06388   4.06457
 Alpha virt. eigenvalues --    4.07709   4.08000   4.08815   4.09388   4.09881
 Alpha virt. eigenvalues --    4.10307   4.10543   4.11822   4.12135   4.12533
 Alpha virt. eigenvalues --    4.13010   4.15574   4.16527   4.16735   4.17777
 Alpha virt. eigenvalues --    4.18121   4.18528   4.19810   4.20241   4.20907
 Alpha virt. eigenvalues --    4.22006   4.22595   4.23337   4.24350   4.25633
 Alpha virt. eigenvalues --    4.26121   4.26355   4.27205   4.27496   4.27598
 Alpha virt. eigenvalues --    4.27900   4.28243   4.28888   4.29841   4.31064
 Alpha virt. eigenvalues --    4.31748   4.32110   4.34044   4.35087   4.37147
 Alpha virt. eigenvalues --    4.37691   4.38855   4.39434   4.40585   4.41690
 Alpha virt. eigenvalues --    4.41905   4.43294   4.43820   4.44882   4.46874
 Alpha virt. eigenvalues --    4.47848   4.48195   4.50584   4.51514   4.53204
 Alpha virt. eigenvalues --    4.54166   4.57691   4.58190   4.58647   4.59236
 Alpha virt. eigenvalues --    4.61437   4.62071   4.64237   4.65195   4.66857
 Alpha virt. eigenvalues --    4.67977   4.73851   4.78911   4.79235   4.79976
 Alpha virt. eigenvalues --    4.82039   4.85152   4.86206   4.90173   4.93378
 Alpha virt. eigenvalues --    4.94093   4.99564   5.04530   5.07043   5.09410
 Alpha virt. eigenvalues --    5.13733   5.17548   5.28653
          Condensed to atoms (all electrons):
 Mulliken charges:
               1
     1  C    0.012058
     2  C   -0.381795
     3  C    0.002682
     4  C   -0.025244
     5  C    0.010115
     6  C    0.092680
     7  C    0.007072
     8  C   -0.017932
     9  C    0.041024
    10  C    0.098429
    11  C    0.007828
    12  C    0.047613
    13  C    0.009025
    14  C   -0.032337
    15  C    0.010451
    16  C   -0.024243
    17  C    0.048208
    18  C    0.048382
    19  C    0.038005
    20  C    0.052210
    21  C    0.013823
    22  C    0.006001
    23  C    0.088762
    24  C    0.086633
    25  C    0.089811
    26  C    0.085515
    27  C   -0.379653
    28  C   -0.374299
    29  C    0.087327
    30  C    0.088052
    31  C    0.096067
    32  C    0.084862
    33  C   -0.017022
    34  C    0.001038
    35  C    0.066749
    36  C    0.040478
    37  C    0.093623
    38  C    0.038058
    39  C    0.159654
    40  C    0.069405
    41  C    0.002672
    42  C    0.047717
    43  C    0.080036
    44  C    0.150487
    45  C    0.049159
    46  C   -0.027772
    47  C    0.087277
    48  C    0.065460
    49  C   -0.364023
    50  C   -0.051215
    51  C    0.073147
    52  C    0.007173
    53  C    0.006482
    54  C   -0.022296
    55  C    0.014505
    56  C   -0.019018
    57  C    0.006383
    58  C    0.009536
    59  C    0.088296
    60  C    0.091488
    61  C   -0.376133
    62  C   -0.373800
    63  C    0.125294
    64  C    0.125228
    65  C    0.127690
    66  C    0.131319
    67  C    0.122932
    68  C    0.124940
    69  C   -0.372408
    70  C   -0.374068
    71  C    0.087990
    72  C    0.093826
    73  C    0.041061
    74  C    0.015221
    75  C    0.065321
    76  C    0.018474
    77  C   -0.360329
    78  C   -0.001570
    79  C   -0.381295
    80  C    0.007109
    81  C    0.090270
    82  C    0.090046
    83  C    0.047398
    84  C    0.044189
    85  Cl   0.027459
    86  Cl   0.019913
    87  Cl   0.018171
    88  Cl   0.017396
    89  Cl   0.021575
    90  Cl   0.016730
    91  Cl   0.006126
    92  Cl   0.010283
    93  Cl  -0.016518
    94  Cl  -0.004448
 Sum of Mulliken charges =  -0.00000
 Mulliken charges with hydrogens summed into heavy atoms:
               1
     1  C    0.012058
     2  C   -0.381795
     3  C    0.002682
     4  C   -0.025244
     5  C    0.010115
     6  C    0.092680
     7  C    0.007072
     8  C   -0.017932
     9  C    0.041024
    10  C    0.098429
    11  C    0.007828
    12  C    0.047613
    13  C    0.009025
    14  C   -0.032337
    15  C    0.010451
    16  C   -0.024243
    17  C    0.048208
    18  C    0.048382
    19  C    0.038005
    20  C    0.052210
    21  C    0.013823
    22  C    0.006001
    23  C    0.088762
    24  C    0.086633
    25  C    0.089811
    26  C    0.085515
    27  C   -0.379653
    28  C   -0.374299
    29  C    0.087327
    30  C    0.088052
    31  C    0.096067
    32  C    0.084862
    33  C   -0.017022
    34  C    0.001038
    35  C    0.066749
    36  C    0.040478
    37  C    0.093623
    38  C    0.038058
    39  C    0.159654
    40  C    0.069405
    41  C    0.002672
    42  C    0.047717
    43  C    0.080036
    44  C    0.150487
    45  C    0.049159
    46  C   -0.027772
    47  C    0.087277
    48  C    0.065460
    49  C   -0.364023
    50  C   -0.051215
    51  C    0.073147
    52  C    0.007173
    53  C    0.006482
    54  C   -0.022296
    55  C    0.014505
    56  C   -0.019018
    57  C    0.006383
    58  C    0.009536
    59  C    0.088296
    60  C    0.091488
    61  C   -0.376133
    62  C   -0.373800
    63  C    0.125294
    64  C    0.125228
    65  C    0.127690
    66  C    0.131319
    67  C    0.122932
    68  C    0.124940
    69  C   -0.372408
    70  C   -0.374068
    71  C    0.087990
    72  C    0.093826
    73  C    0.041061
    74  C    0.015221
    75  C    0.065321
    76  C    0.018474
    77  C   -0.360329
    78  C   -0.001570
    79  C   -0.381295
    80  C    0.007109
    81  C    0.090270
    82  C    0.090046
    83  C    0.047398
    84  C    0.044189
    85  Cl   0.027459
    86  Cl   0.019913
    87  Cl   0.018171
    88  Cl   0.017396
    89  Cl   0.021575
    90  Cl   0.016730
    91  Cl   0.006126
    92  Cl   0.010283
    93  Cl  -0.016518
    94  Cl  -0.004448
 Electronic spatial extent (au):  <R**2>=          56608.8183
 Charge=              0.0000 electrons
 Dipole moment (field-independent basis, Debye):
    X=              0.5940    Y=             -1.5698    Z=              0.8685  Tot=              1.8898
 Quadrupole moment (field-independent basis, Debye-Ang):
   XX=           -643.5993   YY=           -595.1199   ZZ=           -578.4786
   XY=              1.8245   XZ=             -3.8598   YZ=              3.3563
 Traceless Quadrupole moment (field-independent basis, Debye-Ang):
   XX=            -37.8667   YY=             10.6127   ZZ=             27.2540
   XY=              1.8245   XZ=             -3.8598   YZ=              3.3563
 Octapole moment (field-independent basis, Debye-Ang**2):
  XXX=            -90.6592  YYY=            -16.1567  ZZZ=            -51.7375  XYY=            -55.7191
  XXY=             19.7322  XXZ=              0.6777  XZZ=             25.5674  YZZ=             13.4988
  YYZ=             -8.5414  XYZ=              0.1980
 Hexadecapole moment (field-independent basis, Debye-Ang**3):
 XXXX=         -34633.2841 YYYY=         -26003.4978 ZZZZ=         -20525.7303 XXXY=             62.5427
 XXXZ=            227.6479 YYYX=             29.3502 YYYZ=             55.2337 ZZZX=            -94.9243
 ZZZY=             46.6363 XXYY=         -10333.9787 XXZZ=          -9111.1032 YYZZ=          -7674.1597
 XXYZ=            -49.6532 YYXZ=            -31.4500 ZZXY=             33.1760
 N-N= 2.229263357126D+04 E-N=-6.291955348613D+04  KE= 7.758998267116D+03
 No NMR shielding tensors so no spin-rotation constants.
 Leave Link  601 at Wed Jun 29 17:49:10 2022, MaxMem=  1342177280 cpu:              87.4 elap:               4.1
 (Enter /home/mkliu/g16/l9999.exe)
 1\1\GINC-NODE02\FOpt\RB3LYP\6-31G(d,p)\C84Cl10\MKLIU\29-Jun-2022\0\\#P
  opt b3lyp/6-31G(d, p) empiricaldispersion=GD3\\force\\0,1\C,8.2860337
 658,18.9274950807,10.5450241052\C,12.5181709453,19.9889491099,8.913036
 3039\C,8.2763191458,26.8715774112,10.5525983488\C,12.3040190914,25.594
 6642889,8.969709698\C,7.9619828213,18.9725336283,9.1398884824\C,11.916
 6498314,19.5420143388,10.2292993941\C,7.9608702998,26.8138564084,9.163
 7946972\C,11.8839083126,26.182711629,10.2142556904\C,8.9724665902,19.1
 520457503,8.1540801994\C,12.1773896488,20.1868490222,11.408208816\C,12
 .1619122192,25.5299054354,11.3959737338\C,8.9739075124,26.6609802815,8
 .1664445031\C,10.3106403991,19.0940077489,8.6119168698\C,10.3081715931
 ,26.7440856105,8.6296085763\C,10.6427357815,18.9610321502,10.017132748
 5\C,10.6265598544,26.8637809889,10.0132578226\C,9.6338700178,18.973604
 6427,11.0100369548\C,9.6157318339,26.8281588463,11.0147707951\C,9.9056
 071008,19.6561615634,12.2509546007\C,9.8910839687,26.1377908901,12.267
 5864388\C,8.8139602487,20.2633066084,12.934981554\C,8.7995993987,25.52
 55384436,12.9406435349\C,7.4938876439,20.1949886786,12.4290909369\C,7.
 4513599789,25.5914489728,12.4317799745\C,7.2284579801,19.5174219154,11
 .2672301878\C,7.1989874059,26.2505819225,11.281468311\C,6.1112429042,1
 9.9416428326,10.3340067583\C,6.0894068735,25.824426888,10.3461428675\C
 ,6.6860343193,19.5453878577,8.9916408539\C,6.6668421975,26.2253989776,
 9.0090377841\C,6.3792436499,20.217964124,7.8379971349\C,6.3621242514,2
 5.5646257046,7.8710117687\C,7.3216273844,20.3289061009,6.7944727743\C,
 7.3352308171,25.4479213141,6.8209111275\C,8.6816813022,19.9007408583,6
 .9610388957\C,8.6701415208,25.9045089148,6.9661247042\C,9.7467642353,2
 0.6100477475,6.3019295142\C,9.7356701129,25.163164535,6.2871062739\C,1
 1.0515050357,20.5818327897,6.8360347904\C,12.7755964894,22.1495269595,
 7.757652318\C,12.7370716518,23.560477262,7.7667628263\C,11.0706341268,
 25.1687743864,6.8515674719\C,11.3319663161,19.791373668,7.9597310162\C
 ,12.9294458401,21.4486961879,8.9493942549\C,12.9152649573,24.302324836
 8,8.9532033681\C,11.3546657279,25.9752463627,7.9843019982\C,13.1556275
 546,22.1568767808,10.1643017256\C,13.1642980252,23.5855219109,10.18770
 78177\C,13.0981057507,21.3962606187,11.4863827942\C,12.8987346077,24.2
 955161527,11.4234739433\C,12.4322253785,22.2013377993,12.584284082\C,1
 2.4279252853,23.5829426827,12.557402478\C,11.1819992776,20.2584688501,
 12.4180848914\C,11.1680397257,25.534958949,12.4639161529\C,11.33704978
 55,21.5050916013,13.1264346286\C,11.3228270498,24.3188607831,13.172539
 3351\C,8.9727009715,21.5095273913,13.6382496747\C,8.9552539832,24.2996
 325122,13.6464067174\C,7.7258722974,22.2162347408,13.5767095681\C,7.72
 20611994,23.5703784141,13.5691904478\C,6.6856180683,21.4121042661,12.8
 27476348\C,6.6660844896,24.3609473341,12.8276232736\C,6.2018654778,22.
 1751698324,11.5738676947\C,6.1895822154,23.5881202302,11.5770748787\C,
 5.9178468335,21.4707071153,10.3822039615\C,5.8953025703,24.2917845816,
 10.3906937144\C,5.6050671832,22.1759660221,9.1935767639\C,5.5938050544
 ,23.588270177,9.2007929675\C,5.4335302421,21.4053696521,7.861111321\C,
 5.4234510227,24.3707274005,7.877711749\C,5.9519221789,22.2125313387,6.
 6910436134\C,5.9483733886,23.5740558503,6.7033523805\C,7.0060624584,21
 .5053355487,6.023599176\C,7.0140016071,24.2801950229,6.0677394571\C,7.
 997888889,22.1725669924,5.3367592851\C,8.0270879607,23.5840816585,5.40
 08545859\C,9.4062647664,21.6260940219,5.2079571966\C,9.3874309172,24.0
 420859709,5.4910748148\C,12.100427011,21.6249399288,6.4896193227\C,11.
 8852370954,24.0176675484,6.6955427152\C,10.2351938846,22.89687448,5.36
 12458631\C,11.4592705036,22.8849449938,5.9528356146\C,10.2102567444,22
 .1800785317,13.7105919161\C,10.2103738727,23.6303844172,13.7203081799\
 Cl,4.535811149,19.0809585471,10.7168562739\Cl,3.6704448613,20.93018109
 77,7.6465083912\Cl,3.6564034581,24.8288094341,7.6536877412\Cl,4.501417
 7469,26.6714140059,10.7267992913\Cl,5.243220414,20.9675550478,13.88020
 96808\Cl,5.2195107957,24.7481155278,13.9003079415\Cl,13.3235166199,20.
 9232593755,5.292790468\Cl,13.9387799899,18.9052165915,8.4366275832\Cl,
 14.8116656157,20.8604360721,11.9908199898\Cl,9.6624823266,20.831325040
 5,3.5493230105\\Version=ES64L-G16RevA.03\State=1-A\HF=-7803.0180441\RM
 SD=7.828e-09\RMSF=2.810e-05\Dipole=0.5073359,0.3196369,0.4396217\Quadr
 upole=-23.5192051,16.9344383,6.5847668,9.6741283,8.3361632,-6.6548932\
 PG=C01 [X(C84Cl10)]\\@


 Everywhere is walking distance if you have the time.
                                    -- Steven Wright
 Job cpu time:       1 days 23 hours  1 minutes 59.7 seconds.
 Elapsed time:       0 days  1 hours 57 minutes 53.9 seconds.
 File lengths (MBytes):  RWF=   1291 Int=      0 D2E=      0 Chk=    162 Scr=      1
 Normal termination of Gaussian 16 at Wed Jun 29 17:49:12 2022.
