 Entering Gaussian System, Link 0=g16
 Input=10_addons_C84_14_Cl22_rank_7.gjf
 Output=10_addons_C84_14_Cl22_rank_7.log
 Initial command:
 /home/mkliu/g16/l1.exe "/data/scratch/Gau-3673.inp" -scrdir="/data/scratch/"
 Entering Link 1 = /home/mkliu/g16/l1.exe PID=      3674.
  
 Copyright (c) 1988,1990,1992,1993,1995,1998,2003,2009,2016,
            Gaussian, Inc.  All Rights Reserved.
  
 This is part of the Gaussian(R) 16 program.  It is based on
 the Gaussian(R) 09 system (copyright 2009, Gaussian, Inc.),
 the Gaussian(R) 03 system (copyright 2003, Gaussian, Inc.),
 the Gaussian(R) 98 system (copyright 1998, Gaussian, Inc.),
 the Gaussian(R) 94 system (copyright 1995, Gaussian, Inc.),
 the Gaussian 92(TM) system (copyright 1992, Gaussian, Inc.),
 the Gaussian 90(TM) system (copyright 1990, Gaussian, Inc.),
 the Gaussian 88(TM) system (copyright 1988, Gaussian, Inc.),
 the Gaussian 86(TM) system (copyright 1986, Carnegie Mellon
 University), and the Gaussian 82(TM) system (copyright 1983,
 Carnegie Mellon University). Gaussian is a federally registered
 trademark of Gaussian, Inc.
  
 This software contains proprietary and confidential information,
 including trade secrets, belonging to Gaussian, Inc.
  
 This software is provided under written license and may be
 used, copied, transmitted, or stored only in accord with that
 written license.
  
 The following legend is applicable only to US Government
 contracts under FAR:
  
                    RESTRICTED RIGHTS LEGEND
  
 Use, reproduction and disclosure by the US Government is
 subject to restrictions as set forth in subparagraphs (a)
 and (c) of the Commercial Computer Software - Restricted
 Rights clause in FAR 52.227-19.
  
 Gaussian, Inc.
 340 Quinnipiac St., Bldg. 40, Wallingford CT 06492
  
  
 ---------------------------------------------------------------
 Warning -- This program may not be used in any manner that
 competes with the business of Gaussian, Inc. or will provide
 assistance to any competitor of Gaussian, Inc.  The licensee
 of this program is prohibited from giving any competitor of
 Gaussian, Inc. access to this program.  By using this program,
 the user acknowledges that Gaussian, Inc. is engaged in the
 business of creating and licensing software in the field of
 computational chemistry and represents and warrants to the
 licensee that it is not a competitor of Gaussian, Inc. and that
 it will not use this program in any manner prohibited above.
 ---------------------------------------------------------------
  

 Cite this work as:
 Gaussian 16, Revision A.03,
 M. J. Frisch, G. W. Trucks, H. B. Schlegel, G. E. Scuseria, 
 M. A. Robb, J. R. Cheeseman, G. Scalmani, V. Barone, 
 G. A. Petersson, H. Nakatsuji, X. Li, M. Caricato, A. V. Marenich, 
 J. Bloino, B. G. Janesko, R. Gomperts, B. Mennucci, H. P. Hratchian, 
 J. V. Ortiz, A. F. Izmaylov, J. L. Sonnenberg, D. Williams-Young, 
 F. Ding, F. Lipparini, F. Egidi, J. Goings, B. Peng, A. Petrone, 
 T. Henderson, D. Ranasinghe, V. G. Zakrzewski, J. Gao, N. Rega, 
 G. Zheng, W. Liang, M. Hada, M. Ehara, K. Toyota, R. Fukuda, 
 J. Hasegawa, M. Ishida, T. Nakajima, Y. Honda, O. Kitao, H. Nakai, 
 T. Vreven, K. Throssell, J. A. Montgomery, Jr., J. E. Peralta, 
 F. Ogliaro, M. J. Bearpark, J. J. Heyd, E. N. Brothers, K. N. Kudin, 
 V. N. Staroverov, T. A. Keith, R. Kobayashi, J. Normand, 
 K. Raghavachari, A. P. Rendell, J. C. Burant, S. S. Iyengar, 
 J. Tomasi, M. Cossi, J. M. Millam, M. Klene, C. Adamo, R. Cammi, 
 J. W. Ochterski, R. L. Martin, K. Morokuma, O. Farkas, 
 J. B. Foresman, and D. J. Fox, Gaussian, Inc., Wallingford CT, 2016.
 
 ******************************************
 Gaussian 16:  ES64L-G16RevA.03 25-Dec-2016
                30-Jun-2022 
 ******************************************
 %mem=10GB
 %chk=10_addons_C84_14_Cl22_rank_7.chk
 %nprocshared=24
 Will use up to   24 processors via shared memory.
 ------------------------------------------------
 #P opt b3lyp/6-31G(d, p) empiricaldispersion=GD3
 ------------------------------------------------
 1/18=20,19=15,26=3,38=1/1,3;
 2/9=110,12=2,17=6,18=5,40=1/2;
 3/5=1,6=6,7=101,11=2,25=1,30=1,71=1,74=-5,124=31/1,2,3;
 4//1;
 5/5=2,38=5/2;
 6/7=2,8=2,9=2,10=2,28=1/1;
 7//1,2,3,16;
 1/18=20,19=15,26=3/3(2);
 2/9=110/2;
 99//99;
 2/9=110/2;
 3/5=1,6=6,7=101,11=2,25=1,30=1,71=1,74=-5,124=31/1,2,3;
 4/5=5,16=3,69=1/1;
 5/5=2,38=5/2;
 7//1,2,3,16;
 1/18=20,19=15,26=3/3(-5);
 2/9=110/2;
 6/7=2,8=2,9=2,10=2,19=2,28=1/1;
 99/9=1/99;
 Leave Link    1 at Thu Jun 30 04:25:04 2022, MaxMem=  1342177280 cpu:               0.7 elap:               0.1
 (Enter /home/mkliu/g16/l101.exe)
 -----
 force
 -----
 Symbolic Z-matrix:
 Charge =  0 Multiplicity = 1
 C                     8.29692   18.93575   10.52188 
 C                     12.49257   20.0024   8.88744 
 C                     8.28766   26.84038   10.52461 
 C                     12.27573   25.58676   8.95484 
 C                     7.97304   18.97957   9.13695 
 C                     11.88214   19.56788   10.18553 
 C                     7.96942   26.79329   9.13876 
 C                     11.85135   26.17185   10.18236 
 C                     8.96985   19.15028   8.14413 
 C                     12.11107   20.24117   11.36297 
 C                     12.09812   25.51859   11.37726 
 C                     8.96541   26.64241   8.14107 
 C                     10.29829   19.0868   8.59351 
 C                     10.2898   26.72367   8.59947 
 C                     10.62658   18.96952   9.98067 
 C                     10.60751   26.83928   9.98349 
 C                     9.62993   18.98705   10.98277 
 C                     9.62055   26.80169   10.9892 
 C                     9.91025   19.64978   12.22546 
 C                     9.90432   26.12503   12.23289 
 C                     8.81842   20.25653   12.90887 
 C                     8.81555   25.51191   12.90795 
 C                     7.50047   20.19866   12.40282 
 C                     7.49308   25.5643   12.40015 
 C                     7.23431   19.53174   11.24561 
 C                     7.22584   26.23024   11.24612 
 C                     6.12508   19.95907   10.32921 
 C                     6.12141   25.79768   10.32797 
 C                     6.69015   19.56142   8.99861 
 C                     6.6892    26.19658   8.99928 
 C                     6.38349   20.22986   7.86131 
 C                     6.38451   25.53003   7.86395 
 C                     7.34013   20.33785   6.8137 
 C                     7.34535   25.42724   6.81449 
 C                     8.67488   19.89365   6.9596 
 C                     8.66971   25.88843   6.95225 
 C                     9.73281   20.6138   6.29096 
 C                     9.72665   25.15995   6.27929 
 C                     11.06289   20.57772   6.83959 
 C                     12.75809   22.15276   7.7618 
 C                     12.72088   23.57379   7.76087 
 C                     11.05313   25.16341   6.843 
 C                     11.3296   19.79987   7.93428 
 C                     12.91164   21.44777   8.92047 
 C                     12.89005   24.31156   8.94021 
 C                     11.32673   25.9609   7.96406 
 C                     13.11271   22.16164   10.15985 
 C                     13.1158   23.59592   10.16628 
 C                     12.8139   21.51069   11.37275 
 C                     12.79321   24.25358   11.37555 
 C                     12.41724   22.19692   12.53309 
 C                     12.41095   23.56563   12.53781 
 C                     11.17125   20.22822   12.41063 
 C                     11.16885   25.54938   12.43122 
 C                     11.44759   21.3828   13.34611 
 C                     11.44347   24.38188   13.35465 
 C                     8.98261   21.50455   13.57978 
 C                     8.97961   24.26174   13.57559 
 C                     7.75352   22.20494   13.51137 
 C                     7.75186   23.55951   13.50987 
 C                     6.70522   21.41317   12.79107 
 C                     6.70203   24.34772   12.78925 
 C                     6.26709   22.1773   11.54259 
 C                     6.26476   23.58072   11.54267 
 C                     5.97564   21.4791   10.36374 
 C                     5.97157   24.27817   10.36416 
 C                     5.6641    22.17805   9.18629 
 C                     5.66248   23.57893   9.18683 
 C                     5.44986   21.40818   7.88147 
 C                     5.45202   24.35084   7.88293 
 C                     5.95883   22.20279   6.71329 
 C                     5.96082   23.55829   6.71487 
 C                     7.01778   21.49456   6.05975 
 C                     7.02357   24.26467   6.0627 
 C                     8.0296    22.1622   5.38698 
 C                     8.02824   23.59287   5.39175 
 C                     9.37472   21.70381   5.4693 
 C                     9.3773    24.04811   5.49307 
 C                     12.08999   21.63008   6.50561 
 C                     11.8774   24.01633   6.69869 
 C                     10.21266   22.87879   5.41113 
 C                     11.45532   22.88089   5.97761 
 C                     10.20985   22.18694   13.64988 
 C                     10.20706   23.57875   13.65191 
 Cl                    4.54243   19.20453   10.71906 
 Cl                    3.70987   20.97075   7.75657 
 Cl                    3.71001   24.78453   7.75475 
 Cl                    4.53335   26.54791   10.71001 
 Cl                    5.25234   21.04514   13.78136 
 Cl                    5.24659   24.70758   13.78024 
 Cl                    13.30999   20.94116   5.3541 
 Cl                    13.90038   18.9519   8.42182 
 Cl                    12.15993   20.7925   14.90761 
 Cl                    12.16694   24.94379   14.92084 
 
 ITRead=  0  0  0  0  0  0  0  0  0  0  0  0  0  0  0  0  0  0  0  0
 ITRead=  0  0  0  0  0  0  0  0  0  0  0  0  0  0  0  0  0  0  0  0
 ITRead=  0  0  0  0  0  0  0  0  0  0  0  0  0  0  0  0  0  0  0  0
 ITRead=  0  0  0  0  0  0  0  0  0  0  0  0  0  0  0  0  0  0  0  0
 ITRead=  0  0  0  0  0  0  0  0  0  0  0  0  0  0
 MicOpt= -1 -1 -1 -1 -1 -1 -1 -1 -1 -1 -1 -1 -1 -1 -1 -1 -1 -1 -1 -1
 MicOpt= -1 -1 -1 -1 -1 -1 -1 -1 -1 -1 -1 -1 -1 -1 -1 -1 -1 -1 -1 -1
 MicOpt= -1 -1 -1 -1 -1 -1 -1 -1 -1 -1 -1 -1 -1 -1 -1 -1 -1 -1 -1 -1
 MicOpt= -1 -1 -1 -1 -1 -1 -1 -1 -1 -1 -1 -1 -1 -1 -1 -1 -1 -1 -1 -1
 MicOpt= -1 -1 -1 -1 -1 -1 -1 -1 -1 -1 -1 -1 -1 -1
 NAtoms=     94 NQM=       94 NQMF=       0 NMMI=      0 NMMIF=      0
                NMic=       0 NMicF=      0.
                    Isotopes and Nuclear Properties:
 (Nuclear quadrupole moments (NQMom) in fm**2, nuclear magnetic moments (NMagM)
  in nuclear magnetons)

  Atom         1           2           3           4           5           6           7           8           9          10
 IAtWgt=          12          12          12          12          12          12          12          12          12          12
 AtmWgt=  12.0000000  12.0000000  12.0000000  12.0000000  12.0000000  12.0000000  12.0000000  12.0000000  12.0000000  12.0000000
 NucSpn=           0           0           0           0           0           0           0           0           0           0
 AtZEff=  -0.0000000  -0.0000000  -0.0000000  -0.0000000  -0.0000000  -0.0000000  -0.0000000  -0.0000000  -0.0000000  -0.0000000
 NQMom=    0.0000000   0.0000000   0.0000000   0.0000000   0.0000000   0.0000000   0.0000000   0.0000000   0.0000000   0.0000000
 NMagM=    0.0000000   0.0000000   0.0000000   0.0000000   0.0000000   0.0000000   0.0000000   0.0000000   0.0000000   0.0000000
 AtZNuc=   6.0000000   6.0000000   6.0000000   6.0000000   6.0000000   6.0000000   6.0000000   6.0000000   6.0000000   6.0000000

  Atom        11          12          13          14          15          16          17          18          19          20
 IAtWgt=          12          12          12          12          12          12          12          12          12          12
 AtmWgt=  12.0000000  12.0000000  12.0000000  12.0000000  12.0000000  12.0000000  12.0000000  12.0000000  12.0000000  12.0000000
 NucSpn=           0           0           0           0           0           0           0           0           0           0
 AtZEff=  -0.0000000  -0.0000000  -0.0000000  -0.0000000  -0.0000000  -0.0000000  -0.0000000  -0.0000000  -0.0000000  -0.0000000
 NQMom=    0.0000000   0.0000000   0.0000000   0.0000000   0.0000000   0.0000000   0.0000000   0.0000000   0.0000000   0.0000000
 NMagM=    0.0000000   0.0000000   0.0000000   0.0000000   0.0000000   0.0000000   0.0000000   0.0000000   0.0000000   0.0000000
 AtZNuc=   6.0000000   6.0000000   6.0000000   6.0000000   6.0000000   6.0000000   6.0000000   6.0000000   6.0000000   6.0000000

  Atom        21          22          23          24          25          26          27          28          29          30
 IAtWgt=          12          12          12          12          12          12          12          12          12          12
 AtmWgt=  12.0000000  12.0000000  12.0000000  12.0000000  12.0000000  12.0000000  12.0000000  12.0000000  12.0000000  12.0000000
 NucSpn=           0           0           0           0           0           0           0           0           0           0
 AtZEff=  -0.0000000  -0.0000000  -0.0000000  -0.0000000  -0.0000000  -0.0000000  -0.0000000  -0.0000000  -0.0000000  -0.0000000
 NQMom=    0.0000000   0.0000000   0.0000000   0.0000000   0.0000000   0.0000000   0.0000000   0.0000000   0.0000000   0.0000000
 NMagM=    0.0000000   0.0000000   0.0000000   0.0000000   0.0000000   0.0000000   0.0000000   0.0000000   0.0000000   0.0000000
 AtZNuc=   6.0000000   6.0000000   6.0000000   6.0000000   6.0000000   6.0000000   6.0000000   6.0000000   6.0000000   6.0000000

  Atom        31          32          33          34          35          36          37          38          39          40
 IAtWgt=          12          12          12          12          12          12          12          12          12          12
 AtmWgt=  12.0000000  12.0000000  12.0000000  12.0000000  12.0000000  12.0000000  12.0000000  12.0000000  12.0000000  12.0000000
 NucSpn=           0           0           0           0           0           0           0           0           0           0
 AtZEff=  -0.0000000  -0.0000000  -0.0000000  -0.0000000  -0.0000000  -0.0000000  -0.0000000  -0.0000000  -0.0000000  -0.0000000
 NQMom=    0.0000000   0.0000000   0.0000000   0.0000000   0.0000000   0.0000000   0.0000000   0.0000000   0.0000000   0.0000000
 NMagM=    0.0000000   0.0000000   0.0000000   0.0000000   0.0000000   0.0000000   0.0000000   0.0000000   0.0000000   0.0000000
 AtZNuc=   6.0000000   6.0000000   6.0000000   6.0000000   6.0000000   6.0000000   6.0000000   6.0000000   6.0000000   6.0000000

  Atom        41          42          43          44          45          46          47          48          49          50
 IAtWgt=          12          12          12          12          12          12          12          12          12          12
 AtmWgt=  12.0000000  12.0000000  12.0000000  12.0000000  12.0000000  12.0000000  12.0000000  12.0000000  12.0000000  12.0000000
 NucSpn=           0           0           0           0           0           0           0           0           0           0
 AtZEff=  -0.0000000  -0.0000000  -0.0000000  -0.0000000  -0.0000000  -0.0000000  -0.0000000  -0.0000000  -0.0000000  -0.0000000
 NQMom=    0.0000000   0.0000000   0.0000000   0.0000000   0.0000000   0.0000000   0.0000000   0.0000000   0.0000000   0.0000000
 NMagM=    0.0000000   0.0000000   0.0000000   0.0000000   0.0000000   0.0000000   0.0000000   0.0000000   0.0000000   0.0000000
 AtZNuc=   6.0000000   6.0000000   6.0000000   6.0000000   6.0000000   6.0000000   6.0000000   6.0000000   6.0000000   6.0000000

  Atom        51          52          53          54          55          56          57          58          59          60
 IAtWgt=          12          12          12          12          12          12          12          12          12          12
 AtmWgt=  12.0000000  12.0000000  12.0000000  12.0000000  12.0000000  12.0000000  12.0000000  12.0000000  12.0000000  12.0000000
 NucSpn=           0           0           0           0           0           0           0           0           0           0
 AtZEff=  -0.0000000  -0.0000000  -0.0000000  -0.0000000  -0.0000000  -0.0000000  -0.0000000  -0.0000000  -0.0000000  -0.0000000
 NQMom=    0.0000000   0.0000000   0.0000000   0.0000000   0.0000000   0.0000000   0.0000000   0.0000000   0.0000000   0.0000000
 NMagM=    0.0000000   0.0000000   0.0000000   0.0000000   0.0000000   0.0000000   0.0000000   0.0000000   0.0000000   0.0000000
 AtZNuc=   6.0000000   6.0000000   6.0000000   6.0000000   6.0000000   6.0000000   6.0000000   6.0000000   6.0000000   6.0000000

  Atom        61          62          63          64          65          66          67          68          69          70
 IAtWgt=          12          12          12          12          12          12          12          12          12          12
 AtmWgt=  12.0000000  12.0000000  12.0000000  12.0000000  12.0000000  12.0000000  12.0000000  12.0000000  12.0000000  12.0000000
 NucSpn=           0           0           0           0           0           0           0           0           0           0
 AtZEff=  -0.0000000  -0.0000000  -0.0000000  -0.0000000  -0.0000000  -0.0000000  -0.0000000  -0.0000000  -0.0000000  -0.0000000
 NQMom=    0.0000000   0.0000000   0.0000000   0.0000000   0.0000000   0.0000000   0.0000000   0.0000000   0.0000000   0.0000000
 NMagM=    0.0000000   0.0000000   0.0000000   0.0000000   0.0000000   0.0000000   0.0000000   0.0000000   0.0000000   0.0000000
 AtZNuc=   6.0000000   6.0000000   6.0000000   6.0000000   6.0000000   6.0000000   6.0000000   6.0000000   6.0000000   6.0000000

  Atom        71          72          73          74          75          76          77          78          79          80
 IAtWgt=          12          12          12          12          12          12          12          12          12          12
 AtmWgt=  12.0000000  12.0000000  12.0000000  12.0000000  12.0000000  12.0000000  12.0000000  12.0000000  12.0000000  12.0000000
 NucSpn=           0           0           0           0           0           0           0           0           0           0
 AtZEff=  -0.0000000  -0.0000000  -0.0000000  -0.0000000  -0.0000000  -0.0000000  -0.0000000  -0.0000000  -0.0000000  -0.0000000
 NQMom=    0.0000000   0.0000000   0.0000000   0.0000000   0.0000000   0.0000000   0.0000000   0.0000000   0.0000000   0.0000000
 NMagM=    0.0000000   0.0000000   0.0000000   0.0000000   0.0000000   0.0000000   0.0000000   0.0000000   0.0000000   0.0000000
 AtZNuc=   6.0000000   6.0000000   6.0000000   6.0000000   6.0000000   6.0000000   6.0000000   6.0000000   6.0000000   6.0000000

  Atom        81          82          83          84          85          86          87          88          89          90
 IAtWgt=          12          12          12          12          35          35          35          35          35          35
 AtmWgt=  12.0000000  12.0000000  12.0000000  12.0000000  34.9688527  34.9688527  34.9688527  34.9688527  34.9688527  34.9688527
 NucSpn=           0           0           0           0           3           3           3           3           3           3
 AtZEff=  -0.0000000  -0.0000000  -0.0000000  -0.0000000  -0.0000000  -0.0000000  -0.0000000  -0.0000000  -0.0000000  -0.0000000
 NQMom=    0.0000000   0.0000000   0.0000000   0.0000000  -8.1650000  -8.1650000  -8.1650000  -8.1650000  -8.1650000  -8.1650000
 NMagM=    0.0000000   0.0000000   0.0000000   0.0000000   0.8218740   0.8218740   0.8218740   0.8218740   0.8218740   0.8218740
 AtZNuc=   6.0000000   6.0000000   6.0000000   6.0000000  17.0000000  17.0000000  17.0000000  17.0000000  17.0000000  17.0000000

  Atom        91          92          93          94
 IAtWgt=          35          35          35          35
 AtmWgt=  34.9688527  34.9688527  34.9688527  34.9688527
 NucSpn=           3           3           3           3
 AtZEff=  -0.0000000  -0.0000000  -0.0000000  -0.0000000
 NQMom=   -8.1650000  -8.1650000  -8.1650000  -8.1650000
 NMagM=    0.8218740   0.8218740   0.8218740   0.8218740
 AtZNuc=  17.0000000  17.0000000  17.0000000  17.0000000
 Leave Link  101 at Thu Jun 30 04:25:04 2022, MaxMem=  1342177280 cpu:               6.6 elap:               0.3
 (Enter /home/mkliu/g16/l103.exe)

 GradGradGradGradGradGradGradGradGradGradGradGradGradGradGradGradGradGrad
 Berny optimization.
 Initialization pass.
                           ----------------------------
                           !    Initial Parameters    !
                           ! (Angstroms and Degrees)  !
 --------------------------                            --------------------------
 ! Name  Definition              Value          Derivative Info.                !
 --------------------------------------------------------------------------------
 ! R1    R(1,5)                  1.423          estimate D2E/DX2                !
 ! R2    R(1,17)                 1.4114         estimate D2E/DX2                !
 ! R3    R(1,25)                 1.4171         estimate D2E/DX2                !
 ! R4    R(2,6)                  1.4988         estimate D2E/DX2                !
 ! R5    R(2,43)                 1.5172         estimate D2E/DX2                !
 ! R6    R(2,44)                 1.5053         estimate D2E/DX2                !
 ! R7    R(2,92)                 1.8172         estimate D2E/DX2                !
 ! R8    R(3,7)                  1.4227         estimate D2E/DX2                !
 ! R9    R(3,18)                 1.4121         estimate D2E/DX2                !
 ! R10   R(3,26)                 1.4214         estimate D2E/DX2                !
 ! R11   R(4,8)                  1.4245         estimate D2E/DX2                !
 ! R12   R(4,45)                 1.4155         estimate D2E/DX2                !
 ! R13   R(4,46)                 1.422          estimate D2E/DX2                !
 ! R14   R(5,9)                  1.4172         estimate D2E/DX2                !
 ! R15   R(5,29)                 1.4154         estimate D2E/DX2                !
 ! R16   R(6,10)                 1.3755         estimate D2E/DX2                !
 ! R17   R(6,15)                 1.4059         estimate D2E/DX2                !
 ! R18   R(7,12)                 1.4178         estimate D2E/DX2                !
 ! R19   R(7,30)                 1.4193         estimate D2E/DX2                !
 ! R20   R(8,11)                 1.384          estimate D2E/DX2                !
 ! R21   R(8,16)                 1.4255         estimate D2E/DX2                !
 ! R22   R(9,13)                 1.4038         estimate D2E/DX2                !
 ! R23   R(9,35)                 1.4292         estimate D2E/DX2                !
 ! R24   R(10,49)                1.4511         estimate D2E/DX2                !
 ! R25   R(10,53)                1.4075         estimate D2E/DX2                !
 ! R26   R(11,50)                1.4434         estimate D2E/DX2                !
 ! R27   R(11,54)                1.4055         estimate D2E/DX2                !
 ! R28   R(12,14)                1.4038         estimate D2E/DX2                !
 ! R29   R(12,36)                1.4385         estimate D2E/DX2                !
 ! R30   R(13,15)                1.4303         estimate D2E/DX2                !
 ! R31   R(13,43)                1.4166         estimate D2E/DX2                !
 ! R32   R(14,16)                1.4247         estimate D2E/DX2                !
 ! R33   R(14,46)                1.4356         estimate D2E/DX2                !
 ! R34   R(15,17)                1.4134         estimate D2E/DX2                !
 ! R35   R(16,18)                1.4096         estimate D2E/DX2                !
 ! R36   R(17,19)                1.436          estimate D2E/DX2                !
 ! R37   R(18,20)                1.444          estimate D2E/DX2                !
 ! R38   R(19,21)                1.4238         estimate D2E/DX2                !
 ! R39   R(19,53)                1.3996         estimate D2E/DX2                !
 ! R40   R(20,22)                1.4202         estimate D2E/DX2                !
 ! R41   R(20,54)                1.4035         estimate D2E/DX2                !
 ! R42   R(21,23)                1.4129         estimate D2E/DX2                !
 ! R43   R(21,57)                1.4264         estimate D2E/DX2                !
 ! R44   R(22,24)                1.4176         estimate D2E/DX2                !
 ! R45   R(22,58)                1.4267         estimate D2E/DX2                !
 ! R46   R(23,25)                1.3619         estimate D2E/DX2                !
 ! R47   R(23,61)                1.5027         estimate D2E/DX2                !
 ! R48   R(24,26)                1.3589         estimate D2E/DX2                !
 ! R49   R(24,62)                1.5024         estimate D2E/DX2                !
 ! R50   R(25,27)                1.5009         estimate D2E/DX2                !
 ! R51   R(26,28)                1.5            estimate D2E/DX2                !
 ! R52   R(27,29)                1.4993         estimate D2E/DX2                !
 ! R53   R(27,65)                1.5277         estimate D2E/DX2                !
 ! R54   R(27,85)                1.7961         estimate D2E/DX2                !
 ! R55   R(28,30)                1.499          estimate D2E/DX2                !
 ! R56   R(28,66)                1.5273         estimate D2E/DX2                !
 ! R57   R(28,88)                1.7974         estimate D2E/DX2                !
 ! R58   R(29,31)                1.3544         estimate D2E/DX2                !
 ! R59   R(30,32)                1.3513         estimate D2E/DX2                !
 ! R60   R(31,33)                1.4228         estimate D2E/DX2                !
 ! R61   R(31,69)                1.5035         estimate D2E/DX2                !
 ! R62   R(32,34)                1.4266         estimate D2E/DX2                !
 ! R63   R(32,70)                1.5035         estimate D2E/DX2                !
 ! R64   R(33,35)                1.4143         estimate D2E/DX2                !
 ! R65   R(33,73)                1.4179         estimate D2E/DX2                !
 ! R66   R(34,36)                1.4091         estimate D2E/DX2                !
 ! R67   R(34,74)                1.4214         estimate D2E/DX2                !
 ! R68   R(35,37)                1.4439         estimate D2E/DX2                !
 ! R69   R(36,38)                1.4494         estimate D2E/DX2                !
 ! R70   R(37,39)                1.4392         estimate D2E/DX2                !
 ! R71   R(37,77)                1.4112         estimate D2E/DX2                !
 ! R72   R(38,42)                1.4413         estimate D2E/DX2                !
 ! R73   R(38,78)                1.4058         estimate D2E/DX2                !
 ! R74   R(39,43)                1.3691         estimate D2E/DX2                !
 ! R75   R(39,79)                1.508          estimate D2E/DX2                !
 ! R76   R(40,41)                1.4215         estimate D2E/DX2                !
 ! R77   R(40,44)                1.365          estimate D2E/DX2                !
 ! R78   R(40,79)                1.5158         estimate D2E/DX2                !
 ! R79   R(41,45)                1.4013         estimate D2E/DX2                !
 ! R80   R(41,80)                1.4267         estimate D2E/DX2                !
 ! R81   R(42,46)                1.4027         estimate D2E/DX2                !
 ! R82   R(42,80)                1.4199         estimate D2E/DX2                !
 ! R83   R(44,47)                1.4443         estimate D2E/DX2                !
 ! R84   R(45,48)                1.4375         estimate D2E/DX2                !
 ! R85   R(47,48)                1.4343         estimate D2E/DX2                !
 ! R86   R(47,49)                1.4086         estimate D2E/DX2                !
 ! R87   R(48,50)                1.4138         estimate D2E/DX2                !
 ! R88   R(49,51)                1.4052         estimate D2E/DX2                !
 ! R89   R(50,52)                1.4037         estimate D2E/DX2                !
 ! R90   R(51,52)                1.3687         estimate D2E/DX2                !
 ! R91   R(51,55)                1.5047         estimate D2E/DX2                !
 ! R92   R(52,56)                1.5065         estimate D2E/DX2                !
 ! R93   R(53,55)                1.5115         estimate D2E/DX2                !
 ! R94   R(54,56)                1.5137         estimate D2E/DX2                !
 ! R95   R(55,83)                1.507          estimate D2E/DX2                !
 ! R96   R(55,93)                1.815          estimate D2E/DX2                !
 ! R97   R(56,84)                1.504          estimate D2E/DX2                !
 ! R98   R(56,94)                1.8144         estimate D2E/DX2                !
 ! R99   R(57,59)                1.4163         estimate D2E/DX2                !
 ! R100  R(57,83)                1.4059         estimate D2E/DX2                !
 ! R101  R(58,60)                1.4159         estimate D2E/DX2                !
 ! R102  R(58,84)                1.4067         estimate D2E/DX2                !
 ! R103  R(59,60)                1.3546         estimate D2E/DX2                !
 ! R104  R(59,61)                1.4982         estimate D2E/DX2                !
 ! R105  R(60,62)                1.4976         estimate D2E/DX2                !
 ! R106  R(61,63)                1.5279         estimate D2E/DX2                !
 ! R107  R(61,89)                1.7964         estimate D2E/DX2                !
 ! R108  R(62,64)                1.5276         estimate D2E/DX2                !
 ! R109  R(62,90)                1.7972         estimate D2E/DX2                !
 ! R110  R(63,64)                1.4034         estimate D2E/DX2                !
 ! R111  R(63,65)                1.4008         estimate D2E/DX2                !
 ! R112  R(64,66)                1.4005         estimate D2E/DX2                !
 ! R113  R(65,67)                1.4043         estimate D2E/DX2                !
 ! R114  R(66,68)                1.4038         estimate D2E/DX2                !
 ! R115  R(67,68)                1.4009         estimate D2E/DX2                !
 ! R116  R(67,69)                1.5301         estimate D2E/DX2                !
 ! R117  R(68,70)                1.5298         estimate D2E/DX2                !
 ! R118  R(69,71)                1.5017         estimate D2E/DX2                !
 ! R119  R(69,86)                1.7985         estimate D2E/DX2                !
 ! R120  R(70,72)                1.5005         estimate D2E/DX2                !
 ! R121  R(70,87)                1.7998         estimate D2E/DX2                !
 ! R122  R(71,72)                1.3555         estimate D2E/DX2                !
 ! R123  R(71,73)                1.4318         estimate D2E/DX2                !
 ! R124  R(72,74)                1.4331         estimate D2E/DX2                !
 ! R125  R(73,75)                1.3864         estimate D2E/DX2                !
 ! R126  R(74,76)                1.3823         estimate D2E/DX2                !
 ! R127  R(75,76)                1.4307         estimate D2E/DX2                !
 ! R128  R(75,77)                1.4235         estimate D2E/DX2                !
 ! R129  R(76,78)                1.4274         estimate D2E/DX2                !
 ! R130  R(77,81)                1.4443         estimate D2E/DX2                !
 ! R131  R(78,81)                1.4394         estimate D2E/DX2                !
 ! R132  R(79,82)                1.4987         estimate D2E/DX2                !
 ! R133  R(79,91)                1.8135         estimate D2E/DX2                !
 ! R134  R(80,82)                1.4097         estimate D2E/DX2                !
 ! R135  R(81,82)                1.3657         estimate D2E/DX2                !
 ! R136  R(83,84)                1.3918         estimate D2E/DX2                !
 ! A1    A(5,1,17)             122.119          estimate D2E/DX2                !
 ! A2    A(5,1,25)             108.2666         estimate D2E/DX2                !
 ! A3    A(17,1,25)            121.746          estimate D2E/DX2                !
 ! A4    A(6,2,43)             101.14           estimate D2E/DX2                !
 ! A5    A(6,2,44)             111.8854         estimate D2E/DX2                !
 ! A6    A(6,2,92)             111.7061         estimate D2E/DX2                !
 ! A7    A(43,2,44)            110.8149         estimate D2E/DX2                !
 ! A8    A(43,2,92)            110.8353         estimate D2E/DX2                !
 ! A9    A(44,2,92)            110.1833         estimate D2E/DX2                !
 ! A10   A(7,3,18)             122.0546         estimate D2E/DX2                !
 ! A11   A(7,3,26)             108.2494         estimate D2E/DX2                !
 ! A12   A(18,3,26)            121.761          estimate D2E/DX2                !
 ! A13   A(8,4,45)             120.5447         estimate D2E/DX2                !
 ! A14   A(8,4,46)             107.068          estimate D2E/DX2                !
 ! A15   A(45,4,46)            121.2942         estimate D2E/DX2                !
 ! A16   A(1,5,9)              121.6975         estimate D2E/DX2                !
 ! A17   A(1,5,29)             108.3052         estimate D2E/DX2                !
 ! A18   A(9,5,29)             121.2993         estimate D2E/DX2                !
 ! A19   A(2,6,10)             122.1177         estimate D2E/DX2                !
 ! A20   A(2,6,15)             111.1567         estimate D2E/DX2                !
 ! A21   A(10,6,15)            118.7971         estimate D2E/DX2                !
 ! A22   A(3,7,12)             122.1306         estimate D2E/DX2                !
 ! A23   A(3,7,30)             108.1442         estimate D2E/DX2                !
 ! A24   A(12,7,30)            121.3151         estimate D2E/DX2                !
 ! A25   A(4,8,11)             119.801          estimate D2E/DX2                !
 ! A26   A(4,8,16)             109.3919         estimate D2E/DX2                !
 ! A27   A(11,8,16)            119.8031         estimate D2E/DX2                !
 ! A28   A(5,9,13)             115.8423         estimate D2E/DX2                !
 ! A29   A(5,9,35)             119.8736         estimate D2E/DX2                !
 ! A30   A(13,9,35)            118.955          estimate D2E/DX2                !
 ! A31   A(6,10,49)            120.971          estimate D2E/DX2                !
 ! A32   A(6,10,53)            121.4337         estimate D2E/DX2                !
 ! A33   A(49,10,53)           109.0527         estimate D2E/DX2                !
 ! A34   A(8,11,50)            119.9022         estimate D2E/DX2                !
 ! A35   A(8,11,54)            121.2796         estimate D2E/DX2                !
 ! A36   A(50,11,54)           109.7844         estimate D2E/DX2                !
 ! A37   A(7,12,14)            115.2642         estimate D2E/DX2                !
 ! A38   A(7,12,36)            119.5337         estimate D2E/DX2                !
 ! A39   A(14,12,36)           119.6128         estimate D2E/DX2                !
 ! A40   A(9,13,15)            122.0981         estimate D2E/DX2                !
 ! A41   A(9,13,43)            121.145          estimate D2E/DX2                !
 ! A42   A(15,13,43)           108.9966         estimate D2E/DX2                !
 ! A43   A(12,14,16)           122.1601         estimate D2E/DX2                !
 ! A44   A(12,14,46)           120.4085         estimate D2E/DX2                !
 ! A45   A(16,14,46)           108.181          estimate D2E/DX2                !
 ! A46   A(6,15,13)            108.1446         estimate D2E/DX2                !
 ! A47   A(6,15,17)            121.409          estimate D2E/DX2                !
 ! A48   A(13,15,17)           121.6502         estimate D2E/DX2                !
 ! A49   A(8,16,14)            106.9842         estimate D2E/DX2                !
 ! A50   A(8,16,18)            119.9278         estimate D2E/DX2                !
 ! A51   A(14,16,18)           122.3301         estimate D2E/DX2                !
 ! A52   A(1,17,15)            115.7217         estimate D2E/DX2                !
 ! A53   A(1,17,19)            118.9302         estimate D2E/DX2                !
 ! A54   A(15,17,19)           118.7912         estimate D2E/DX2                !
 ! A55   A(3,18,16)            115.1784         estimate D2E/DX2                !
 ! A56   A(3,18,20)            118.7969         estimate D2E/DX2                !
 ! A57   A(16,18,20)           119.3013         estimate D2E/DX2                !
 ! A58   A(17,19,21)           117.5385         estimate D2E/DX2                !
 ! A59   A(17,19,53)           118.7568         estimate D2E/DX2                !
 ! A60   A(21,19,53)           116.8247         estimate D2E/DX2                !
 ! A61   A(18,20,22)           117.4535         estimate D2E/DX2                !
 ! A62   A(18,20,54)           119.4048         estimate D2E/DX2                !
 ! A63   A(22,20,54)           116.5179         estimate D2E/DX2                !
 ! A64   A(19,21,23)           121.73           estimate D2E/DX2                !
 ! A65   A(19,21,57)           120.6858         estimate D2E/DX2                !
 ! A66   A(23,21,57)           108.1594         estimate D2E/DX2                !
 ! A67   A(20,22,24)           121.9352         estimate D2E/DX2                !
 ! A68   A(20,22,58)           120.8339         estimate D2E/DX2                !
 ! A69   A(24,22,58)           107.8957         estimate D2E/DX2                !
 ! A70   A(21,23,25)           120.4421         estimate D2E/DX2                !
 ! A71   A(21,23,61)           111.5919         estimate D2E/DX2                !
 ! A72   A(25,23,61)           120.7896         estimate D2E/DX2                !
 ! A73   A(22,24,26)           120.383          estimate D2E/DX2                !
 ! A74   A(22,24,62)           111.6232         estimate D2E/DX2                !
 ! A75   A(26,24,62)           120.8777         estimate D2E/DX2                !
 ! A76   A(1,25,23)            119.5625         estimate D2E/DX2                !
 ! A77   A(1,25,27)            111.2281         estimate D2E/DX2                !
 ! A78   A(23,25,27)           121.5875         estimate D2E/DX2                !
 ! A79   A(3,26,24)            119.6384         estimate D2E/DX2                !
 ! A80   A(3,26,28)            111.2919         estimate D2E/DX2                !
 ! A81   A(24,26,28)           121.554          estimate D2E/DX2                !
 ! A82   A(25,27,29)           100.8252         estimate D2E/DX2                !
 ! A83   A(25,27,65)           109.9843         estimate D2E/DX2                !
 ! A84   A(25,27,85)           113.52           estimate D2E/DX2                !
 ! A85   A(29,27,65)           108.7116         estimate D2E/DX2                !
 ! A86   A(29,27,85)           114.4123         estimate D2E/DX2                !
 ! A87   A(65,27,85)           109.0787         estimate D2E/DX2                !
 ! A88   A(26,28,30)           100.774          estimate D2E/DX2                !
 ! A89   A(26,28,66)           110.1596         estimate D2E/DX2                !
 ! A90   A(26,28,88)           113.5823         estimate D2E/DX2                !
 ! A91   A(30,28,66)           108.8399         estimate D2E/DX2                !
 ! A92   A(30,28,88)           114.3302         estimate D2E/DX2                !
 ! A93   A(66,28,88)           108.8776         estimate D2E/DX2                !
 ! A94   A(5,29,27)            111.3384         estimate D2E/DX2                !
 ! A95   A(5,29,31)            119.3521         estimate D2E/DX2                !
 ! A96   A(27,29,31)           121.9383         estimate D2E/DX2                !
 ! A97   A(7,30,28)            111.4958         estimate D2E/DX2                !
 ! A98   A(7,30,32)            119.5587         estimate D2E/DX2                !
 ! A99   A(28,30,32)           121.8734         estimate D2E/DX2                !
 ! A100  A(29,31,33)           120.2333         estimate D2E/DX2                !
 ! A101  A(29,31,69)           121.0739         estimate D2E/DX2                !
 ! A102  A(33,31,69)           111.5871         estimate D2E/DX2                !
 ! A103  A(30,32,34)           120.1146         estimate D2E/DX2                !
 ! A104  A(30,32,70)           121.0713         estimate D2E/DX2                !
 ! A105  A(34,32,70)           111.7476         estimate D2E/DX2                !
 ! A106  A(31,33,35)           122.3279         estimate D2E/DX2                !
 ! A107  A(31,33,73)           107.4931         estimate D2E/DX2                !
 ! A108  A(35,33,73)           121.7129         estimate D2E/DX2                !
 ! A109  A(32,34,36)           122.5148         estimate D2E/DX2                !
 ! A110  A(32,34,74)           107.1908         estimate D2E/DX2                !
 ! A111  A(36,34,74)           122.1524         estimate D2E/DX2                !
 ! A112  A(9,35,33)            116.3367         estimate D2E/DX2                !
 ! A113  A(9,35,37)            119.4711         estimate D2E/DX2                !
 ! A114  A(33,35,37)           119.1473         estimate D2E/DX2                !
 ! A115  A(12,36,34)           116.4582         estimate D2E/DX2                !
 ! A116  A(12,36,38)           119.8195         estimate D2E/DX2                !
 ! A117  A(34,36,38)           118.3909         estimate D2E/DX2                !
 ! A118  A(35,37,39)           119.2144         estimate D2E/DX2                !
 ! A119  A(35,37,77)           117.9656         estimate D2E/DX2                !
 ! A120  A(39,37,77)           118.4121         estimate D2E/DX2                !
 ! A121  A(36,38,42)           119.2314         estimate D2E/DX2                !
 ! A122  A(36,38,78)           118.422          estimate D2E/DX2                !
 ! A123  A(42,38,78)           116.7012         estimate D2E/DX2                !
 ! A124  A(37,39,43)           119.9376         estimate D2E/DX2                !
 ! A125  A(37,39,79)           121.8392         estimate D2E/DX2                !
 ! A126  A(43,39,79)           116.1601         estimate D2E/DX2                !
 ! A127  A(41,40,44)           121.3197         estimate D2E/DX2                !
 ! A128  A(41,40,79)           109.4288         estimate D2E/DX2                !
 ! A129  A(44,40,79)           125.0984         estimate D2E/DX2                !
 ! A130  A(40,41,45)           121.506          estimate D2E/DX2                !
 ! A131  A(40,41,80)           109.0281         estimate D2E/DX2                !
 ! A132  A(45,41,80)           122.3179         estimate D2E/DX2                !
 ! A133  A(38,42,46)           119.5686         estimate D2E/DX2                !
 ! A134  A(38,42,80)           119.5107         estimate D2E/DX2                !
 ! A135  A(46,42,80)           115.2961         estimate D2E/DX2                !
 ! A136  A(2,43,13)            109.4433         estimate D2E/DX2                !
 ! A137  A(2,43,39)            125.1539         estimate D2E/DX2                !
 ! A138  A(13,43,39)           121.0812         estimate D2E/DX2                !
 ! A139  A(2,44,40)            116.4871         estimate D2E/DX2                !
 ! A140  A(2,44,47)            122.1527         estimate D2E/DX2                !
 ! A141  A(40,44,47)           119.2614         estimate D2E/DX2                !
 ! A142  A(4,45,41)            115.5049         estimate D2E/DX2                !
 ! A143  A(4,45,48)            120.5191         estimate D2E/DX2                !
 ! A144  A(41,45,48)           118.3372         estimate D2E/DX2                !
 ! A145  A(4,46,14)            108.2671         estimate D2E/DX2                !
 ! A146  A(4,46,42)            122.508          estimate D2E/DX2                !
 ! A147  A(14,46,42)           120.9934         estimate D2E/DX2                !
 ! A148  A(44,47,48)           119.8939         estimate D2E/DX2                !
 ! A149  A(44,47,49)           118.7467         estimate D2E/DX2                !
 ! A150  A(48,47,49)           117.3047         estimate D2E/DX2                !
 ! A151  A(45,48,47)           119.5827         estimate D2E/DX2                !
 ! A152  A(45,48,50)           117.5233         estimate D2E/DX2                !
 ! A153  A(47,48,50)           117.9369         estimate D2E/DX2                !
 ! A154  A(10,49,47)           120.0816         estimate D2E/DX2                !
 ! A155  A(10,49,51)           107.2225         estimate D2E/DX2                !
 ! A156  A(47,49,51)           123.0392         estimate D2E/DX2                !
 ! A157  A(11,50,48)           121.2359         estimate D2E/DX2                !
 ! A158  A(11,50,52)           107.3027         estimate D2E/DX2                !
 ! A159  A(48,50,52)           122.8455         estimate D2E/DX2                !
 ! A160  A(49,51,52)           119.5038         estimate D2E/DX2                !
 ! A161  A(49,51,55)           111.3372         estimate D2E/DX2                !
 ! A162  A(52,51,55)           122.4275         estimate D2E/DX2                !
 ! A163  A(50,52,51)           119.0781         estimate D2E/DX2                !
 ! A164  A(50,52,56)           110.9961         estimate D2E/DX2                !
 ! A165  A(51,52,56)           123.1364         estimate D2E/DX2                !
 ! A166  A(10,53,19)           120.4588         estimate D2E/DX2                !
 ! A167  A(10,53,55)           109.3648         estimate D2E/DX2                !
 ! A168  A(19,53,55)           124.2143         estimate D2E/DX2                !
 ! A169  A(11,54,20)           119.9162         estimate D2E/DX2                !
 ! A170  A(11,54,56)           108.7013         estimate D2E/DX2                !
 ! A171  A(20,54,56)           124.4746         estimate D2E/DX2                !
 ! A172  A(51,55,53)           101.3441         estimate D2E/DX2                !
 ! A173  A(51,55,83)           110.4568         estimate D2E/DX2                !
 ! A174  A(51,55,93)           112.8253         estimate D2E/DX2                !
 ! A175  A(53,55,83)           112.4709         estimate D2E/DX2                !
 ! A176  A(53,55,93)           110.842          estimate D2E/DX2                !
 ! A177  A(83,55,93)           108.8137         estimate D2E/DX2                !
 ! A178  A(52,56,54)           101.7502         estimate D2E/DX2                !
 ! A179  A(52,56,84)           110.2291         estimate D2E/DX2                !
 ! A180  A(52,56,94)           112.319          estimate D2E/DX2                !
 ! A181  A(54,56,84)           112.5382         estimate D2E/DX2                !
 ! A182  A(54,56,94)           111.1048         estimate D2E/DX2                !
 ! A183  A(84,56,94)           108.8171         estimate D2E/DX2                !
 ! A184  A(21,57,59)           108.0628         estimate D2E/DX2                !
 ! A185  A(21,57,83)           123.2709         estimate D2E/DX2                !
 ! A186  A(59,57,83)           121.3254         estimate D2E/DX2                !
 ! A187  A(22,58,60)           108.2491         estimate D2E/DX2                !
 ! A188  A(22,58,84)           123.446          estimate D2E/DX2                !
 ! A189  A(60,58,84)           121.2192         estimate D2E/DX2                !
 ! A190  A(57,59,60)           119.7115         estimate D2E/DX2                !
 ! A191  A(57,59,61)           111.6597         estimate D2E/DX2                !
 ! A192  A(60,59,61)           121.8085         estimate D2E/DX2                !
 ! A193  A(58,60,59)           119.6595         estimate D2E/DX2                !
 ! A194  A(58,60,62)           111.6639         estimate D2E/DX2                !
 ! A195  A(59,60,62)           121.8514         estimate D2E/DX2                !
 ! A196  A(23,61,59)           100.4306         estimate D2E/DX2                !
 ! A197  A(23,61,63)           110.1713         estimate D2E/DX2                !
 ! A198  A(23,61,89)           113.8821         estimate D2E/DX2                !
 ! A199  A(59,61,63)           109.2195         estimate D2E/DX2                !
 ! A200  A(59,61,89)           114.1505         estimate D2E/DX2                !
 ! A201  A(63,61,89)           108.7229         estimate D2E/DX2                !
 ! A202  A(24,62,60)           100.4693         estimate D2E/DX2                !
 ! A203  A(24,62,64)           110.2404         estimate D2E/DX2                !
 ! A204  A(24,62,90)           114.0209         estimate D2E/DX2                !
 ! A205  A(60,62,64)           109.2126         estimate D2E/DX2                !
 ! A206  A(60,62,90)           114.0651         estimate D2E/DX2                !
 ! A207  A(64,62,90)           108.5845         estimate D2E/DX2                !
 ! A208  A(61,63,64)           120.0356         estimate D2E/DX2                !
 ! A209  A(61,63,65)           119.8707         estimate D2E/DX2                !
 ! A210  A(64,63,65)           119.8779         estimate D2E/DX2                !
 ! A211  A(62,64,63)           120.1111         estimate D2E/DX2                !
 ! A212  A(62,64,66)           119.7747         estimate D2E/DX2                !
 ! A213  A(63,64,66)           119.8888         estimate D2E/DX2                !
 ! A214  A(27,65,63)           119.6434         estimate D2E/DX2                !
 ! A215  A(27,65,67)           119.8658         estimate D2E/DX2                !
 ! A216  A(63,65,67)           120.2456         estimate D2E/DX2                !
 ! A217  A(28,66,64)           119.662          estimate D2E/DX2                !
 ! A218  A(28,66,68)           119.821          estimate D2E/DX2                !
 ! A219  A(64,66,68)           120.2517         estimate D2E/DX2                !
 ! A220  A(65,67,68)           119.8459         estimate D2E/DX2                !
 ! A221  A(65,67,69)           119.7134         estimate D2E/DX2                !
 ! A222  A(68,67,69)           120.2197         estimate D2E/DX2                !
 ! A223  A(66,68,67)           119.8795         estimate D2E/DX2                !
 ! A224  A(66,68,70)           119.5904         estimate D2E/DX2                !
 ! A225  A(67,68,70)           120.2926         estimate D2E/DX2                !
 ! A226  A(31,69,67)           108.5915         estimate D2E/DX2                !
 ! A227  A(31,69,71)           101.1746         estimate D2E/DX2                !
 ! A228  A(31,69,86)           114.1564         estimate D2E/DX2                !
 ! A229  A(67,69,71)           110.4683         estimate D2E/DX2                !
 ! A230  A(67,69,86)           108.4856         estimate D2E/DX2                !
 ! A231  A(71,69,86)           113.7397         estimate D2E/DX2                !
 ! A232  A(32,70,68)           108.7349         estimate D2E/DX2                !
 ! A233  A(32,70,72)           101.1939         estimate D2E/DX2                !
 ! A234  A(32,70,87)           114.2317         estimate D2E/DX2                !
 ! A235  A(68,70,72)           110.508          estimate D2E/DX2                !
 ! A236  A(68,70,87)           108.3886         estimate D2E/DX2                !
 ! A237  A(72,70,87)           113.5817         estimate D2E/DX2                !
 ! A238  A(69,71,72)           121.9195         estimate D2E/DX2                !
 ! A239  A(69,71,73)           110.1212         estimate D2E/DX2                !
 ! A240  A(72,71,73)           119.6094         estimate D2E/DX2                !
 ! A241  A(70,72,71)           121.9118         estimate D2E/DX2                !
 ! A242  A(70,72,74)           110.2051         estimate D2E/DX2                !
 ! A243  A(71,72,74)           119.5686         estimate D2E/DX2                !
 ! A244  A(33,73,71)           109.2058         estimate D2E/DX2                !
 ! A245  A(33,73,75)           119.0105         estimate D2E/DX2                !
 ! A246  A(71,73,75)           121.5375         estimate D2E/DX2                !
 ! A247  A(34,74,72)           109.2893         estimate D2E/DX2                !
 ! A248  A(34,74,76)           119.3203         estimate D2E/DX2                !
 ! A249  A(72,74,76)           121.3531         estimate D2E/DX2                !
 ! A250  A(73,75,76)           118.6359         estimate D2E/DX2                !
 ! A251  A(73,75,77)           120.4319         estimate D2E/DX2                !
 ! A252  A(76,75,77)           108.8281         estimate D2E/DX2                !
 ! A253  A(74,76,75)           119.2289         estimate D2E/DX2                !
 ! A254  A(74,76,78)           119.8318         estimate D2E/DX2                !
 ! A255  A(75,76,78)           108.5576         estimate D2E/DX2                !
 ! A256  A(37,77,75)           121.4788         estimate D2E/DX2                !
 ! A257  A(37,77,81)           120.3046         estimate D2E/DX2                !
 ! A258  A(75,77,81)           106.495          estimate D2E/DX2                !
 ! A259  A(38,78,76)           121.7886         estimate D2E/DX2                !
 ! A260  A(38,78,81)           122.0121         estimate D2E/DX2                !
 ! A261  A(76,78,81)           106.5815         estimate D2E/DX2                !
 ! A262  A(39,79,40)           110.9349         estimate D2E/DX2                !
 ! A263  A(39,79,82)           111.8406         estimate D2E/DX2                !
 ! A264  A(39,79,91)           109.4947         estimate D2E/DX2                !
 ! A265  A(40,79,82)           101.0014         estimate D2E/DX2                !
 ! A266  A(40,79,91)           111.1429         estimate D2E/DX2                !
 ! A267  A(82,79,91)           112.2239         estimate D2E/DX2                !
 ! A268  A(41,80,42)           121.2065         estimate D2E/DX2                !
 ! A269  A(41,80,82)           107.9377         estimate D2E/DX2                !
 ! A270  A(42,80,82)           121.9289         estimate D2E/DX2                !
 ! A271  A(77,81,78)           108.7765         estimate D2E/DX2                !
 ! A272  A(77,81,82)           120.8263         estimate D2E/DX2                !
 ! A273  A(78,81,82)           120.2131         estimate D2E/DX2                !
 ! A274  A(79,82,80)           111.421          estimate D2E/DX2                !
 ! A275  A(79,82,81)           122.0178         estimate D2E/DX2                !
 ! A276  A(80,82,81)           119.0671         estimate D2E/DX2                !
 ! A277  A(55,83,57)           116.6089         estimate D2E/DX2                !
 ! A278  A(55,83,84)           122.3817         estimate D2E/DX2                !
 ! A279  A(57,83,84)           118.9265         estimate D2E/DX2                !
 ! A280  A(56,84,58)           116.5709         estimate D2E/DX2                !
 ! A281  A(56,84,83)           122.1442         estimate D2E/DX2                !
 ! A282  A(58,84,83)           119.1555         estimate D2E/DX2                !
 ! D1    D(17,1,5,9)            -3.472          estimate D2E/DX2                !
 ! D2    D(17,1,5,29)         -151.4053         estimate D2E/DX2                !
 ! D3    D(25,1,5,9)           146.0033         estimate D2E/DX2                !
 ! D4    D(25,1,5,29)           -1.93           estimate D2E/DX2                !
 ! D5    D(5,1,17,15)           -5.1887         estimate D2E/DX2                !
 ! D6    D(5,1,17,19)          146.1031         estimate D2E/DX2                !
 ! D7    D(25,1,17,15)        -150.6355         estimate D2E/DX2                !
 ! D8    D(25,1,17,19)           0.6563         estimate D2E/DX2                !
 ! D9    D(5,1,25,23)         -148.1668         estimate D2E/DX2                !
 ! D10   D(5,1,25,27)            1.8714         estimate D2E/DX2                !
 ! D11   D(17,1,25,23)           1.4452         estimate D2E/DX2                !
 ! D12   D(17,1,25,27)         151.4833         estimate D2E/DX2                !
 ! D13   D(43,2,6,10)         -139.0811         estimate D2E/DX2                !
 ! D14   D(43,2,6,15)            9.4358         estimate D2E/DX2                !
 ! D15   D(44,2,6,10)          -21.0854         estimate D2E/DX2                !
 ! D16   D(44,2,6,15)          127.4315         estimate D2E/DX2                !
 ! D17   D(92,2,6,10)          102.9776         estimate D2E/DX2                !
 ! D18   D(92,2,6,15)         -108.5055         estimate D2E/DX2                !
 ! D19   D(6,2,43,13)          -10.4678         estimate D2E/DX2                !
 ! D20   D(6,2,43,39)          146.196          estimate D2E/DX2                !
 ! D21   D(44,2,43,13)        -129.238          estimate D2E/DX2                !
 ! D22   D(44,2,43,39)          27.4258         estimate D2E/DX2                !
 ! D23   D(92,2,43,13)         108.1042         estimate D2E/DX2                !
 ! D24   D(92,2,43,39)         -95.232          estimate D2E/DX2                !
 ! D25   D(6,2,44,40)         -144.1101         estimate D2E/DX2                !
 ! D26   D(6,2,44,47)           19.2791         estimate D2E/DX2                !
 ! D27   D(43,2,44,40)         -32.0572         estimate D2E/DX2                !
 ! D28   D(43,2,44,47)         131.332          estimate D2E/DX2                !
 ! D29   D(92,2,44,40)          90.9784         estimate D2E/DX2                !
 ! D30   D(92,2,44,47)        -105.6324         estimate D2E/DX2                !
 ! D31   D(18,3,7,12)            2.9803         estimate D2E/DX2                !
 ! D32   D(18,3,7,30)          151.3745         estimate D2E/DX2                !
 ! D33   D(26,3,7,12)         -146.3852         estimate D2E/DX2                !
 ! D34   D(26,3,7,30)            2.0091         estimate D2E/DX2                !
 ! D35   D(7,3,18,16)            5.6517         estimate D2E/DX2                !
 ! D36   D(7,3,18,20)         -145.4534         estimate D2E/DX2                !
 ! D37   D(26,3,18,16)         150.9599         estimate D2E/DX2                !
 ! D38   D(26,3,18,20)          -0.1452         estimate D2E/DX2                !
 ! D39   D(7,3,26,24)          148.0149         estimate D2E/DX2                !
 ! D40   D(7,3,26,28)           -2.203          estimate D2E/DX2                !
 ! D41   D(18,3,26,24)          -1.4586         estimate D2E/DX2                !
 ! D42   D(18,3,26,28)        -151.6765         estimate D2E/DX2                !
 ! D43   D(45,4,8,11)            3.0991         estimate D2E/DX2                !
 ! D44   D(45,4,8,16)         -140.8808         estimate D2E/DX2                !
 ! D45   D(46,4,8,11)          147.3999         estimate D2E/DX2                !
 ! D46   D(46,4,8,16)            3.4199         estimate D2E/DX2                !
 ! D47   D(8,4,45,41)          152.0507         estimate D2E/DX2                !
 ! D48   D(8,4,45,48)           -1.0398         estimate D2E/DX2                !
 ! D49   D(46,4,45,41)          12.8042         estimate D2E/DX2                !
 ! D50   D(46,4,45,48)        -140.2863         estimate D2E/DX2                !
 ! D51   D(8,4,46,14)           -2.605          estimate D2E/DX2                !
 ! D52   D(8,4,46,42)         -151.1847         estimate D2E/DX2                !
 ! D53   D(45,4,46,14)         141.3713         estimate D2E/DX2                !
 ! D54   D(45,4,46,42)          -7.2085         estimate D2E/DX2                !
 ! D55   D(1,5,9,13)             8.484          estimate D2E/DX2                !
 ! D56   D(1,5,9,35)          -145.4838         estimate D2E/DX2                !
 ! D57   D(29,5,9,13)          152.3348         estimate D2E/DX2                !
 ! D58   D(29,5,9,35)           -1.633          estimate D2E/DX2                !
 ! D59   D(1,5,29,27)            1.3048         estimate D2E/DX2                !
 ! D60   D(1,5,29,31)          151.9127         estimate D2E/DX2                !
 ! D61   D(9,5,29,27)         -146.7809         estimate D2E/DX2                !
 ! D62   D(9,5,29,31)            3.827          estimate D2E/DX2                !
 ! D63   D(2,6,10,49)            8.2793         estimate D2E/DX2                !
 ! D64   D(2,6,10,53)          152.6725         estimate D2E/DX2                !
 ! D65   D(15,6,10,49)        -137.9564         estimate D2E/DX2                !
 ! D66   D(15,6,10,53)           6.4368         estimate D2E/DX2                !
 ! D67   D(2,6,15,13)           -5.1542         estimate D2E/DX2                !
 ! D68   D(2,6,15,17)         -153.0522         estimate D2E/DX2                !
 ! D69   D(10,6,15,13)         144.5315         estimate D2E/DX2                !
 ! D70   D(10,6,15,17)          -3.3665         estimate D2E/DX2                !
 ! D71   D(3,7,12,14)           -8.1959         estimate D2E/DX2                !
 ! D72   D(3,7,12,36)          145.3602         estimate D2E/DX2                !
 ! D73   D(30,7,12,14)        -152.5387         estimate D2E/DX2                !
 ! D74   D(30,7,12,36)           1.0174         estimate D2E/DX2                !
 ! D75   D(3,7,30,28)           -1.1133         estimate D2E/DX2                !
 ! D76   D(3,7,30,32)         -152.2508         estimate D2E/DX2                !
 ! D77   D(12,7,30,28)         147.5892         estimate D2E/DX2                !
 ! D78   D(12,7,30,32)          -3.5483         estimate D2E/DX2                !
 ! D79   D(4,8,11,50)            0.4932         estimate D2E/DX2                !
 ! D80   D(4,8,11,54)         -143.2371         estimate D2E/DX2                !
 ! D81   D(16,8,11,50)         140.7569         estimate D2E/DX2                !
 ! D82   D(16,8,11,54)          -2.9734         estimate D2E/DX2                !
 ! D83   D(4,8,16,14)           -2.8921         estimate D2E/DX2                !
 ! D84   D(4,8,16,18)          142.2978         estimate D2E/DX2                !
 ! D85   D(11,8,16,14)        -146.8712         estimate D2E/DX2                !
 ! D86   D(11,8,16,18)          -1.6813         estimate D2E/DX2                !
 ! D87   D(5,9,13,15)           -5.0407         estimate D2E/DX2                !
 ! D88   D(5,9,13,43)         -150.936          estimate D2E/DX2                !
 ! D89   D(35,9,13,15)         149.1787         estimate D2E/DX2                !
 ! D90   D(35,9,13,43)           3.2834         estimate D2E/DX2                !
 ! D91   D(5,9,35,33)           -4.5366         estimate D2E/DX2                !
 ! D92   D(5,9,35,37)          150.1502         estimate D2E/DX2                !
 ! D93   D(13,9,35,33)        -157.7022         estimate D2E/DX2                !
 ! D94   D(13,9,35,37)          -3.0154         estimate D2E/DX2                !
 ! D95   D(6,10,49,47)           8.6567         estimate D2E/DX2                !
 ! D96   D(6,10,49,51)         155.7137         estimate D2E/DX2                !
 ! D97   D(53,10,49,47)       -139.6369         estimate D2E/DX2                !
 ! D98   D(53,10,49,51)          7.4201         estimate D2E/DX2                !
 ! D99   D(6,10,53,19)          -7.1051         estimate D2E/DX2                !
 ! D100  D(6,10,53,55)        -161.0168         estimate D2E/DX2                !
 ! D101  D(49,10,53,19)        141.0148         estimate D2E/DX2                !
 ! D102  D(49,10,53,55)        -12.8969         estimate D2E/DX2                !
 ! D103  D(8,11,50,48)          -6.3107         estimate D2E/DX2                !
 ! D104  D(8,11,50,52)        -154.8854         estimate D2E/DX2                !
 ! D105  D(54,11,50,48)        141.1884         estimate D2E/DX2                !
 ! D106  D(54,11,50,52)         -7.3863         estimate D2E/DX2                !
 ! D107  D(8,11,54,20)           7.0193         estimate D2E/DX2                !
 ! D108  D(8,11,54,56)         159.1766         estimate D2E/DX2                !
 ! D109  D(50,11,54,20)       -139.9558         estimate D2E/DX2                !
 ! D110  D(50,11,54,56)         12.2015         estimate D2E/DX2                !
 ! D111  D(7,12,14,16)           4.9364         estimate D2E/DX2                !
 ! D112  D(7,12,14,46)         147.722          estimate D2E/DX2                !
 ! D113  D(36,12,14,16)       -148.5973         estimate D2E/DX2                !
 ! D114  D(36,12,14,46)         -5.8118         estimate D2E/DX2                !
 ! D115  D(7,12,36,34)           4.7701         estimate D2E/DX2                !
 ! D116  D(7,12,36,38)        -149.0494         estimate D2E/DX2                !
 ! D117  D(14,12,36,34)        157.1743         estimate D2E/DX2                !
 ! D118  D(14,12,36,38)          3.3548         estimate D2E/DX2                !
 ! D119  D(9,13,15,6)         -151.4396         estimate D2E/DX2                !
 ! D120  D(9,13,15,17)          -3.6346         estimate D2E/DX2                !
 ! D121  D(43,13,15,6)          -1.9389         estimate D2E/DX2                !
 ! D122  D(43,13,15,17)        145.8661         estimate D2E/DX2                !
 ! D123  D(9,13,43,2)          157.9915         estimate D2E/DX2                !
 ! D124  D(9,13,43,39)           0.2117         estimate D2E/DX2                !
 ! D125  D(15,13,43,2)           8.1474         estimate D2E/DX2                !
 ! D126  D(15,13,43,39)       -149.6324         estimate D2E/DX2                !
 ! D127  D(12,14,16,8)         147.9361         estimate D2E/DX2                !
 ! D128  D(12,14,16,18)          3.7744         estimate D2E/DX2                !
 ! D129  D(46,14,16,8)           1.2354         estimate D2E/DX2                !
 ! D130  D(46,14,16,18)       -142.9263         estimate D2E/DX2                !
 ! D131  D(12,14,46,4)        -146.5343         estimate D2E/DX2                !
 ! D132  D(12,14,46,42)          2.6117         estimate D2E/DX2                !
 ! D133  D(16,14,46,4)           0.8564         estimate D2E/DX2                !
 ! D134  D(16,14,46,42)        150.0024         estimate D2E/DX2                !
 ! D135  D(6,15,17,1)          152.2368         estimate D2E/DX2                !
 ! D136  D(6,15,17,19)           0.903          estimate D2E/DX2                !
 ! D137  D(13,15,17,1)           8.6237         estimate D2E/DX2                !
 ! D138  D(13,15,17,19)       -142.71           estimate D2E/DX2                !
 ! D139  D(8,16,18,3)         -148.6904         estimate D2E/DX2                !
 ! D140  D(8,16,18,20)           2.2597         estimate D2E/DX2                !
 ! D141  D(14,16,18,3)          -8.9402         estimate D2E/DX2                !
 ! D142  D(14,16,18,20)        142.0099         estimate D2E/DX2                !
 ! D143  D(1,17,19,21)          -1.7627         estimate D2E/DX2                !
 ! D144  D(1,17,19,53)        -151.8356         estimate D2E/DX2                !
 ! D145  D(15,17,19,21)        148.647          estimate D2E/DX2                !
 ! D146  D(15,17,19,53)         -1.426          estimate D2E/DX2                !
 ! D147  D(3,18,20,22)           1.1253         estimate D2E/DX2                !
 ! D148  D(3,18,20,54)         151.6236         estimate D2E/DX2                !
 ! D149  D(16,18,20,22)       -148.7788         estimate D2E/DX2                !
 ! D150  D(16,18,20,54)          1.7196         estimate D2E/DX2                !
 ! D151  D(17,19,21,23)          0.8983         estimate D2E/DX2                !
 ! D152  D(17,19,21,57)       -141.5708         estimate D2E/DX2                !
 ! D153  D(53,19,21,23)        151.5507         estimate D2E/DX2                !
 ! D154  D(53,19,21,57)          9.0815         estimate D2E/DX2                !
 ! D155  D(17,19,53,10)          4.4285         estimate D2E/DX2                !
 ! D156  D(17,19,53,55)        154.3159         estimate D2E/DX2                !
 ! D157  D(21,19,53,10)       -145.8545         estimate D2E/DX2                !
 ! D158  D(21,19,53,55)          4.0328         estimate D2E/DX2                !
 ! D159  D(18,20,22,24)         -0.5982         estimate D2E/DX2                !
 ! D160  D(18,20,22,58)        141.9394         estimate D2E/DX2                !
 ! D161  D(54,20,22,24)       -151.9488         estimate D2E/DX2                !
 ! D162  D(54,20,22,58)         -9.4112         estimate D2E/DX2                !
 ! D163  D(18,20,54,11)         -6.2933         estimate D2E/DX2                !
 ! D164  D(18,20,54,56)       -153.8387         estimate D2E/DX2                !
 ! D165  D(22,20,54,11)        144.4731         estimate D2E/DX2                !
 ! D166  D(22,20,54,56)         -3.0723         estimate D2E/DX2                !
 ! D167  D(19,21,23,25)          1.1948         estimate D2E/DX2                !
 ! D168  D(19,21,23,61)       -149.3954         estimate D2E/DX2                !
 ! D169  D(57,21,23,25)        147.7351         estimate D2E/DX2                !
 ! D170  D(57,21,23,61)         -2.8551         estimate D2E/DX2                !
 ! D171  D(19,21,57,59)        148.1893         estimate D2E/DX2                !
 ! D172  D(19,21,57,83)         -2.0433         estimate D2E/DX2                !
 ! D173  D(23,21,57,59)          1.2342         estimate D2E/DX2                !
 ! D174  D(23,21,57,83)       -148.9984         estimate D2E/DX2                !
 ! D175  D(20,22,24,26)         -0.9985         estimate D2E/DX2                !
 ! D176  D(20,22,24,62)        149.7346         estimate D2E/DX2                !
 ! D177  D(58,22,24,26)       -147.7121         estimate D2E/DX2                !
 ! D178  D(58,22,24,62)          3.0209         estimate D2E/DX2                !
 ! D179  D(20,22,58,60)       -148.6314         estimate D2E/DX2                !
 ! D180  D(20,22,58,84)          2.0456         estimate D2E/DX2                !
 ! D181  D(24,22,58,60)         -1.4803         estimate D2E/DX2                !
 ! D182  D(24,22,58,84)        149.1967         estimate D2E/DX2                !
 ! D183  D(21,23,25,1)          -2.3475         estimate D2E/DX2                !
 ! D184  D(21,23,25,27)       -149.22           estimate D2E/DX2                !
 ! D185  D(61,23,25,1)         145.545          estimate D2E/DX2                !
 ! D186  D(61,23,25,27)         -1.3275         estimate D2E/DX2                !
 ! D187  D(21,23,61,59)          3.1211         estimate D2E/DX2                !
 ! D188  D(21,23,61,63)        118.2223         estimate D2E/DX2                !
 ! D189  D(21,23,61,89)       -119.3225         estimate D2E/DX2                !
 ! D190  D(25,23,61,59)       -147.3529         estimate D2E/DX2                !
 ! D191  D(25,23,61,63)        -32.2518         estimate D2E/DX2                !
 ! D192  D(25,23,61,89)         90.2034         estimate D2E/DX2                !
 ! D193  D(22,24,26,3)           2.0047         estimate D2E/DX2                !
 ! D194  D(22,24,26,28)        149.1099         estimate D2E/DX2                !
 ! D195  D(62,24,26,3)        -146.0218         estimate D2E/DX2                !
 ! D196  D(62,24,26,28)          1.0835         estimate D2E/DX2                !
 ! D197  D(22,24,62,60)         -3.1479         estimate D2E/DX2                !
 ! D198  D(22,24,62,64)       -118.2863         estimate D2E/DX2                !
 ! D199  D(22,24,62,90)        119.2874         estimate D2E/DX2                !
 ! D200  D(26,24,62,60)        147.4205         estimate D2E/DX2                !
 ! D201  D(26,24,62,64)         32.2821         estimate D2E/DX2                !
 ! D202  D(26,24,62,90)        -90.1443         estimate D2E/DX2                !
 ! D203  D(1,25,27,29)          -1.0282         estimate D2E/DX2                !
 ! D204  D(1,25,27,65)        -115.6787         estimate D2E/DX2                !
 ! D205  D(1,25,27,85)         121.8011         estimate D2E/DX2                !
 ! D206  D(23,25,27,29)        148.3105         estimate D2E/DX2                !
 ! D207  D(23,25,27,65)         33.66           estimate D2E/DX2                !
 ! D208  D(23,25,27,85)        -88.8602         estimate D2E/DX2                !
 ! D209  D(3,26,28,30)           1.4418         estimate D2E/DX2                !
 ! D210  D(3,26,28,66)         116.2785         estimate D2E/DX2                !
 ! D211  D(3,26,28,88)        -121.2875         estimate D2E/DX2                !
 ! D212  D(24,26,28,30)       -148.1191         estimate D2E/DX2                !
 ! D213  D(24,26,28,66)        -33.2825         estimate D2E/DX2                !
 ! D214  D(24,26,28,88)         89.1516         estimate D2E/DX2                !
 ! D215  D(25,27,29,5)          -0.1817         estimate D2E/DX2                !
 ! D216  D(25,27,29,31)       -149.9108         estimate D2E/DX2                !
 ! D217  D(65,27,29,5)         115.4217         estimate D2E/DX2                !
 ! D218  D(65,27,29,31)        -34.3074         estimate D2E/DX2                !
 ! D219  D(85,27,29,5)        -122.3887         estimate D2E/DX2                !
 ! D220  D(85,27,29,31)         87.8821         estimate D2E/DX2                !
 ! D221  D(25,27,65,63)        -31.7281         estimate D2E/DX2                !
 ! D222  D(25,27,65,67)        142.5981         estimate D2E/DX2                !
 ! D223  D(29,27,65,63)       -141.2504         estimate D2E/DX2                !
 ! D224  D(29,27,65,67)         33.0758         estimate D2E/DX2                !
 ! D225  D(85,27,65,63)         93.3783         estimate D2E/DX2                !
 ! D226  D(85,27,65,67)        -92.2956         estimate D2E/DX2                !
 ! D227  D(26,28,30,7)          -0.1814         estimate D2E/DX2                !
 ! D228  D(26,28,30,32)        150.1859         estimate D2E/DX2                !
 ! D229  D(66,28,30,7)        -116.0053         estimate D2E/DX2                !
 ! D230  D(66,28,30,32)         34.362          estimate D2E/DX2                !
 ! D231  D(88,28,30,7)         122.0256         estimate D2E/DX2                !
 ! D232  D(88,28,30,32)        -87.6071         estimate D2E/DX2                !
 ! D233  D(26,28,66,64)         31.4099         estimate D2E/DX2                !
 ! D234  D(26,28,66,68)       -142.6888         estimate D2E/DX2                !
 ! D235  D(30,28,66,64)        141.0234         estimate D2E/DX2                !
 ! D236  D(30,28,66,68)        -33.0753         estimate D2E/DX2                !
 ! D237  D(88,28,66,64)        -93.7554         estimate D2E/DX2                !
 ! D238  D(88,28,66,68)         92.1459         estimate D2E/DX2                !
 ! D239  D(5,29,31,33)           0.3871         estimate D2E/DX2                !
 ! D240  D(5,29,31,69)        -147.6489         estimate D2E/DX2                !
 ! D241  D(27,29,31,33)        147.7928         estimate D2E/DX2                !
 ! D242  D(27,29,31,69)         -0.2432         estimate D2E/DX2                !
 ! D243  D(7,30,32,34)           0.0532         estimate D2E/DX2                !
 ! D244  D(7,30,32,70)         148.2187         estimate D2E/DX2                !
 ! D245  D(28,30,32,34)       -148.017          estimate D2E/DX2                !
 ! D246  D(28,30,32,70)          0.1485         estimate D2E/DX2                !
 ! D247  D(29,31,33,35)         -7.0123         estimate D2E/DX2                !
 ! D248  D(29,31,33,73)       -155.4099         estimate D2E/DX2                !
 ! D249  D(69,31,33,35)        143.8033         estimate D2E/DX2                !
 ! D250  D(69,31,33,73)         -4.5944         estimate D2E/DX2                !
 ! D251  D(29,31,69,67)         35.1179         estimate D2E/DX2                !
 ! D252  D(29,31,69,71)        151.3827         estimate D2E/DX2                !
 ! D253  D(29,31,69,86)        -86.0463         estimate D2E/DX2                !
 ! D254  D(33,31,69,67)       -115.4178         estimate D2E/DX2                !
 ! D255  D(33,31,69,71)          0.847          estimate D2E/DX2                !
 ! D256  D(33,31,69,86)        123.4181         estimate D2E/DX2                !
 ! D257  D(30,32,34,36)          6.1949         estimate D2E/DX2                !
 ! D258  D(30,32,34,74)        155.2669         estimate D2E/DX2                !
 ! D259  D(70,32,34,36)       -144.7003         estimate D2E/DX2                !
 ! D260  D(70,32,34,74)          4.3718         estimate D2E/DX2                !
 ! D261  D(30,32,70,68)        -35.0564         estimate D2E/DX2                !
 ! D262  D(30,32,70,72)       -151.4306         estimate D2E/DX2                !
 ! D263  D(30,32,70,87)         86.1382         estimate D2E/DX2                !
 ! D264  D(34,32,70,68)        115.5218         estimate D2E/DX2                !
 ! D265  D(34,32,70,72)         -0.8524         estimate D2E/DX2                !
 ! D266  D(34,32,70,87)       -123.2836         estimate D2E/DX2                !
 ! D267  D(31,33,35,9)           8.8884         estimate D2E/DX2                !
 ! D268  D(31,33,35,37)       -145.8842         estimate D2E/DX2                !
 ! D269  D(73,33,35,9)         152.9082         estimate D2E/DX2                !
 ! D270  D(73,33,35,37)         -1.8644         estimate D2E/DX2                !
 ! D271  D(31,33,73,71)          6.5981         estimate D2E/DX2                !
 ! D272  D(31,33,73,75)        152.3418         estimate D2E/DX2                !
 ! D273  D(35,33,73,71)       -142.0351         estimate D2E/DX2                !
 ! D274  D(35,33,73,75)          3.7086         estimate D2E/DX2                !
 ! D275  D(32,34,36,12)         -8.4333         estimate D2E/DX2                !
 ! D276  D(32,34,36,38)        145.7739         estimate D2E/DX2                !
 ! D277  D(74,34,36,12)       -152.9868         estimate D2E/DX2                !
 ! D278  D(74,34,36,38)          1.2204         estimate D2E/DX2                !
 ! D279  D(32,34,74,72)         -6.2308         estimate D2E/DX2                !
 ! D280  D(32,34,74,76)       -152.2081         estimate D2E/DX2                !
 ! D281  D(36,34,74,72)        142.9783         estimate D2E/DX2                !
 ! D282  D(36,34,74,76)         -2.999          estimate D2E/DX2                !
 ! D283  D(9,35,37,39)          -0.5635         estimate D2E/DX2                !
 ! D284  D(9,35,37,77)        -156.6467         estimate D2E/DX2                !
 ! D285  D(33,35,37,39)        153.4127         estimate D2E/DX2                !
 ! D286  D(33,35,37,77)         -2.6705         estimate D2E/DX2                !
 ! D287  D(12,36,38,42)          2.2647         estimate D2E/DX2                !
 ! D288  D(12,36,38,78)        154.929          estimate D2E/DX2                !
 ! D289  D(34,36,38,42)       -151.0564         estimate D2E/DX2                !
 ! D290  D(34,36,38,78)          1.608          estimate D2E/DX2                !
 ! D291  D(35,37,39,43)          4.0467         estimate D2E/DX2                !
 ! D292  D(35,37,39,79)       -158.9909         estimate D2E/DX2                !
 ! D293  D(77,37,39,43)        160.0235         estimate D2E/DX2                !
 ! D294  D(77,37,39,79)         -3.0141         estimate D2E/DX2                !
 ! D295  D(35,37,77,75)          5.4523         estimate D2E/DX2                !
 ! D296  D(35,37,77,81)        143.4811         estimate D2E/DX2                !
 ! D297  D(39,37,77,75)       -150.8258         estimate D2E/DX2                !
 ! D298  D(39,37,77,81)        -12.7969         estimate D2E/DX2                !
 ! D299  D(36,38,42,46)         -5.4533         estimate D2E/DX2                !
 ! D300  D(36,38,42,80)        146.8782         estimate D2E/DX2                !
[...]
 Alpha virt. eigenvalues --    1.31017   1.31365   1.31560   1.31947   1.32009
 Alpha virt. eigenvalues --    1.32572   1.32713   1.33471   1.34215   1.34285
 Alpha virt. eigenvalues --    1.34612   1.34869   1.35537   1.36066   1.36345
 Alpha virt. eigenvalues --    1.36565   1.36843   1.37344   1.37885   1.38023
 Alpha virt. eigenvalues --    1.38494   1.39500   1.40446   1.40741   1.41067
 Alpha virt. eigenvalues --    1.41305   1.41546   1.42707   1.43240   1.43536
 Alpha virt. eigenvalues --    1.44372   1.45095   1.45639   1.45827   1.46365
 Alpha virt. eigenvalues --    1.46524   1.46887   1.47361   1.47543   1.47869
 Alpha virt. eigenvalues --    1.48876   1.50018   1.50499   1.51097   1.51453
 Alpha virt. eigenvalues --    1.52184   1.52864   1.53124   1.53481   1.54109
 Alpha virt. eigenvalues --    1.54395   1.54980   1.55462   1.56097   1.56302
 Alpha virt. eigenvalues --    1.56874   1.57327   1.57603   1.58395   1.59073
 Alpha virt. eigenvalues --    1.59456   1.60337   1.60427   1.61104   1.61429
 Alpha virt. eigenvalues --    1.61672   1.62265   1.63062   1.63172   1.63277
 Alpha virt. eigenvalues --    1.63496   1.63792   1.64128   1.64544   1.64818
 Alpha virt. eigenvalues --    1.64857   1.65298   1.65343   1.65426   1.65635
 Alpha virt. eigenvalues --    1.66023   1.66273   1.66820   1.66964   1.67077
 Alpha virt. eigenvalues --    1.67432   1.67465   1.67628   1.67843   1.68041
 Alpha virt. eigenvalues --    1.68467   1.68767   1.68896   1.68993   1.69275
 Alpha virt. eigenvalues --    1.69648   1.69979   1.70111   1.70324   1.70748
 Alpha virt. eigenvalues --    1.70950   1.71008   1.71157   1.71388   1.71788
 Alpha virt. eigenvalues --    1.71852   1.72050   1.72256   1.72383   1.73034
 Alpha virt. eigenvalues --    1.73211   1.73619   1.73859   1.73989   1.74204
 Alpha virt. eigenvalues --    1.74619   1.74857   1.75038   1.75271   1.75455
 Alpha virt. eigenvalues --    1.75615   1.75941   1.76074   1.76235   1.76569
 Alpha virt. eigenvalues --    1.76779   1.76896   1.77335   1.77728   1.77888
 Alpha virt. eigenvalues --    1.78189   1.78364   1.78513   1.78741   1.78939
 Alpha virt. eigenvalues --    1.79112   1.79225   1.79371   1.79657   1.79967
 Alpha virt. eigenvalues --    1.80174   1.80586   1.80862   1.81413   1.81674
 Alpha virt. eigenvalues --    1.81912   1.82355   1.82558   1.82845   1.83113
 Alpha virt. eigenvalues --    1.83256   1.83584   1.83776   1.84038   1.84719
 Alpha virt. eigenvalues --    1.85118   1.85383   1.85715   1.86053   1.86609
 Alpha virt. eigenvalues --    1.86821   1.86909   1.87214   1.87713   1.87898
 Alpha virt. eigenvalues --    1.88478   1.88980   1.89276   1.89373   1.89675
 Alpha virt. eigenvalues --    1.90178   1.90373   1.91079   1.91431   1.92026
 Alpha virt. eigenvalues --    1.92368   1.92471   1.92969   1.93356   1.93643
 Alpha virt. eigenvalues --    1.93978   1.94049   1.94447   1.94839   1.94914
 Alpha virt. eigenvalues --    1.95762   1.96205   1.96339   1.96626   1.97138
 Alpha virt. eigenvalues --    1.97353   1.97536   1.97700   1.98149   1.98476
 Alpha virt. eigenvalues --    1.98822   1.99064   1.99531   1.99869   2.00130
 Alpha virt. eigenvalues --    2.00390   2.00637   2.00976   2.01125   2.01413
 Alpha virt. eigenvalues --    2.01569   2.01849   2.02545   2.02650   2.02850
 Alpha virt. eigenvalues --    2.03058   2.03612   2.03856   2.04393   2.05066
 Alpha virt. eigenvalues --    2.05240   2.05483   2.05605   2.06332   2.06403
 Alpha virt. eigenvalues --    2.06701   2.06820   2.07428   2.07591   2.08182
 Alpha virt. eigenvalues --    2.08542   2.08574   2.08996   2.09548   2.09912
 Alpha virt. eigenvalues --    2.10069   2.10337   2.10858   2.11138   2.11715
 Alpha virt. eigenvalues --    2.12038   2.12353   2.12701   2.13063   2.13448
 Alpha virt. eigenvalues --    2.13856   2.14395   2.15247   2.15439   2.16305
 Alpha virt. eigenvalues --    2.16689   2.17039   2.17364   2.17641   2.18362
 Alpha virt. eigenvalues --    2.18719   2.18956   2.19383   2.19560   2.19912
 Alpha virt. eigenvalues --    2.20307   2.20433   2.21203   2.21753   2.21852
 Alpha virt. eigenvalues --    2.22414   2.22985   2.23108   2.24088   2.24256
 Alpha virt. eigenvalues --    2.24631   2.24844   2.25007   2.25343   2.25912
 Alpha virt. eigenvalues --    2.26093   2.26530   2.27115   2.27541   2.27916
 Alpha virt. eigenvalues --    2.28511   2.28808   2.28926   2.29194   2.29354
 Alpha virt. eigenvalues --    2.29970   2.30361   2.31391   2.31733   2.32110
 Alpha virt. eigenvalues --    2.32482   2.32673   2.33499   2.33782   2.34351
 Alpha virt. eigenvalues --    2.34978   2.35468   2.36733   2.36990   2.37521
 Alpha virt. eigenvalues --    2.37908   2.38499   2.38923   2.39530   2.39819
 Alpha virt. eigenvalues --    2.40460   2.40818   2.40903   2.41448   2.41843
 Alpha virt. eigenvalues --    2.42010   2.42534   2.43016   2.43623   2.43984
 Alpha virt. eigenvalues --    2.45282   2.45327   2.45737   2.46525   2.47239
 Alpha virt. eigenvalues --    2.47498   2.47695   2.48429   2.49242   2.49804
 Alpha virt. eigenvalues --    2.50205   2.50665   2.51102   2.51567   2.51957
 Alpha virt. eigenvalues --    2.52387   2.52883   2.53203   2.53690   2.54188
 Alpha virt. eigenvalues --    2.54395   2.54609   2.55150   2.55719   2.55912
 Alpha virt. eigenvalues --    2.56437   2.56893   2.57073   2.57390   2.57560
 Alpha virt. eigenvalues --    2.57593   2.58083   2.58454   2.58786   2.58871
 Alpha virt. eigenvalues --    2.59623   2.59887   2.60290   2.60445   2.60790
 Alpha virt. eigenvalues --    2.61095   2.61426   2.61776   2.61860   2.62542
 Alpha virt. eigenvalues --    2.63060   2.63239   2.63567   2.63714   2.64020
 Alpha virt. eigenvalues --    2.64607   2.64737   2.65015   2.65953   2.65967
 Alpha virt. eigenvalues --    2.66345   2.66655   2.66941   2.67343   2.67596
 Alpha virt. eigenvalues --    2.68003   2.68232   2.68637   2.69201   2.69627
 Alpha virt. eigenvalues --    2.69757   2.70193   2.70520   2.70992   2.71787
 Alpha virt. eigenvalues --    2.72026   2.72360   2.72479   2.72928   2.73608
 Alpha virt. eigenvalues --    2.73765   2.74072   2.74769   2.74961   2.75138
 Alpha virt. eigenvalues --    2.75809   2.75934   2.76279   2.76556   2.77100
 Alpha virt. eigenvalues --    2.77347   2.77469   2.77933   2.78156   2.79150
 Alpha virt. eigenvalues --    2.80054   2.80191   2.80929   2.81016   2.81365
 Alpha virt. eigenvalues --    2.81978   2.82137   2.82678   2.83377   2.83626
 Alpha virt. eigenvalues --    2.84307   2.84995   2.85732   2.86281   2.86347
 Alpha virt. eigenvalues --    2.86798   2.87403   2.87946   2.88182   2.88630
 Alpha virt. eigenvalues --    2.88868   2.89674   2.90073   2.90543   2.91150
 Alpha virt. eigenvalues --    2.91528   2.91871   2.92545   2.92999   2.93177
 Alpha virt. eigenvalues --    2.93733   2.93954   2.94454   2.95178   2.95348
 Alpha virt. eigenvalues --    2.97322   2.98861   2.99078   2.99583   3.00071
 Alpha virt. eigenvalues --    3.01161   3.02628   3.03167   3.04707   3.05847
 Alpha virt. eigenvalues --    3.06967   3.08406   3.08841   3.09605   3.11758
 Alpha virt. eigenvalues --    3.12237   3.14119   3.14906   3.17417   3.18270
 Alpha virt. eigenvalues --    3.18859   3.21450   3.22116   3.23201   3.24642
 Alpha virt. eigenvalues --    3.26845   3.28259   3.28973   3.31094   3.32859
 Alpha virt. eigenvalues --    3.34515   3.34604   3.36341   3.38595   3.41172
 Alpha virt. eigenvalues --    3.41528   3.45117   3.47584   3.48651   3.49352
 Alpha virt. eigenvalues --    3.50789   3.53904   3.56782   3.60043   4.01013
 Alpha virt. eigenvalues --    4.01495   4.02009   4.02079   4.02864   4.03377
 Alpha virt. eigenvalues --    4.04246   4.05060   4.06024   4.06266   4.06431
 Alpha virt. eigenvalues --    4.07654   4.07854   4.08151   4.09553   4.09751
 Alpha virt. eigenvalues --    4.09986   4.10638   4.11420   4.12158   4.12926
 Alpha virt. eigenvalues --    4.13747   4.15327   4.16433   4.16980   4.18266
 Alpha virt. eigenvalues --    4.18460   4.18999   4.20153   4.20423   4.20535
 Alpha virt. eigenvalues --    4.21953   4.22354   4.23217   4.24074   4.25408
 Alpha virt. eigenvalues --    4.25918   4.26661   4.27165   4.27230   4.27755
 Alpha virt. eigenvalues --    4.27888   4.28453   4.29234   4.29537   4.30550
 Alpha virt. eigenvalues --    4.31057   4.32298   4.34605   4.35014   4.36052
 Alpha virt. eigenvalues --    4.38532   4.39407   4.40045   4.40892   4.41331
 Alpha virt. eigenvalues --    4.41576   4.41759   4.44284   4.45114   4.46941
 Alpha virt. eigenvalues --    4.47440   4.48561   4.49889   4.50687   4.52724
 Alpha virt. eigenvalues --    4.53270   4.57998   4.58057   4.58367   4.59978
 Alpha virt. eigenvalues --    4.61697   4.62022   4.63606   4.65281   4.66271
 Alpha virt. eigenvalues --    4.68910   4.70832   4.78241   4.79361   4.80833
 Alpha virt. eigenvalues --    4.81985   4.85588   4.87451   4.90059   4.90874
 Alpha virt. eigenvalues --    4.93878   4.97741   5.05414   5.06648   5.09266
 Alpha virt. eigenvalues --    5.14653   5.16798   5.24462
          Condensed to atoms (all electrons):
 Mulliken charges:
               1
     1  C    0.008860
     2  C   -0.365185
     3  C    0.004741
     4  C   -0.025072
     5  C    0.011569
     6  C    0.063029
     7  C    0.008247
     8  C   -0.027473
     9  C    0.041921
    10  C    0.051658
    11  C    0.042296
    12  C    0.049786
    13  C    0.000182
    14  C   -0.032013
    15  C    0.014661
    16  C   -0.024982
    17  C    0.040782
    18  C    0.048634
    19  C    0.069615
    20  C    0.067761
    21  C   -0.010360
    22  C   -0.013658
    23  C    0.094155
    24  C    0.088027
    25  C    0.088536
    26  C    0.086635
    27  C   -0.377198
    28  C   -0.375880
    29  C    0.086630
    30  C    0.086607
    31  C    0.090513
    32  C    0.085348
    33  C    0.004074
    34  C    0.002130
    35  C    0.033964
    36  C    0.034835
    37  C    0.071392
    38  C    0.046234
    39  C    0.122475
    40  C    0.079986
    41  C   -0.003235
    42  C    0.052199
    43  C    0.082952
    44  C    0.122393
    45  C    0.051695
    46  C   -0.030654
    47  C    0.063909
    48  C    0.036723
    49  C   -0.020860
    50  C    0.001477
    51  C    0.095934
    52  C    0.092747
    53  C    0.048234
    54  C    0.043906
    55  C   -0.364486
    56  C   -0.367262
    57  C    0.038933
    58  C    0.040122
    59  C    0.089222
    60  C    0.090252
    61  C   -0.377405
    62  C   -0.376388
    63  C    0.124577
    64  C    0.125535
    65  C    0.128522
    66  C    0.129349
    67  C    0.123927
    68  C    0.125928
    69  C   -0.372401
    70  C   -0.371938
    71  C    0.091793
    72  C    0.091023
    73  C    0.025305
    74  C    0.027024
    75  C   -0.010542
    76  C   -0.015791
    77  C   -0.041467
    78  C   -0.020939
    79  C   -0.364902
    80  C    0.009068
    81  C    0.003484
    82  C    0.072469
    83  C    0.124510
    84  C    0.127576
    85  Cl   0.025897
    86  Cl   0.017838
    87  Cl   0.013392
    88  Cl   0.020000
    89  Cl   0.025126
    90  Cl   0.020099
    91  Cl  -0.010696
    92  Cl  -0.017769
    93  Cl  -0.002319
    94  Cl  -0.007542
 Sum of Mulliken charges =  -0.00000
 Mulliken charges with hydrogens summed into heavy atoms:
               1
     1  C    0.008860
     2  C   -0.365185
     3  C    0.004741
     4  C   -0.025072
     5  C    0.011569
     6  C    0.063029
     7  C    0.008247
     8  C   -0.027473
     9  C    0.041921
    10  C    0.051658
    11  C    0.042296
    12  C    0.049786
    13  C    0.000182
    14  C   -0.032013
    15  C    0.014661
    16  C   -0.024982
    17  C    0.040782
    18  C    0.048634
    19  C    0.069615
    20  C    0.067761
    21  C   -0.010360
    22  C   -0.013658
    23  C    0.094155
    24  C    0.088027
    25  C    0.088536
    26  C    0.086635
    27  C   -0.377198
    28  C   -0.375880
    29  C    0.086630
    30  C    0.086607
    31  C    0.090513
    32  C    0.085348
    33  C    0.004074
    34  C    0.002130
    35  C    0.033964
    36  C    0.034835
    37  C    0.071392
    38  C    0.046234
    39  C    0.122475
    40  C    0.079986
    41  C   -0.003235
    42  C    0.052199
    43  C    0.082952
    44  C    0.122393
    45  C    0.051695
    46  C   -0.030654
    47  C    0.063909
    48  C    0.036723
    49  C   -0.020860
    50  C    0.001477
    51  C    0.095934
    52  C    0.092747
    53  C    0.048234
    54  C    0.043906
    55  C   -0.364486
    56  C   -0.367262
    57  C    0.038933
    58  C    0.040122
    59  C    0.089222
    60  C    0.090252
    61  C   -0.377405
    62  C   -0.376388
    63  C    0.124577
    64  C    0.125535
    65  C    0.128522
    66  C    0.129349
    67  C    0.123927
    68  C    0.125928
    69  C   -0.372401
    70  C   -0.371938
    71  C    0.091793
    72  C    0.091023
    73  C    0.025305
    74  C    0.027024
    75  C   -0.010542
    76  C   -0.015791
    77  C   -0.041467
    78  C   -0.020939
    79  C   -0.364902
    80  C    0.009068
    81  C    0.003484
    82  C    0.072469
    83  C    0.124510
    84  C    0.127576
    85  Cl   0.025897
    86  Cl   0.017838
    87  Cl   0.013392
    88  Cl   0.020000
    89  Cl   0.025126
    90  Cl   0.020099
    91  Cl  -0.010696
    92  Cl  -0.017769
    93  Cl  -0.002319
    94  Cl  -0.007542
 Electronic spatial extent (au):  <R**2>=          56611.1048
 Charge=             -0.0000 electrons
 Dipole moment (field-independent basis, Debye):
    X=              1.8888    Y=             -2.0333    Z=             -1.4403  Tot=              3.1267
 Quadrupole moment (field-independent basis, Debye-Ang):
   XX=           -632.3660   YY=           -604.4672   ZZ=           -582.4138
   XY=              5.3154   XZ=              1.0808   YZ=              0.6951
 Traceless Quadrupole moment (field-independent basis, Debye-Ang):
   XX=            -25.9503   YY=              1.9485   ZZ=             24.0018
   XY=              5.3154   XZ=              1.0808   YZ=              0.6951
 Octapole moment (field-independent basis, Debye-Ang**2):
  XXX=            -59.6884  YYY=            -44.5268  ZZZ=             38.3363  XYY=            -78.2587
  XXY=             59.6484  XXZ=            -16.2543  XZZ=              5.3690  YZZ=             -0.8288
  YYZ=             15.2619  XYZ=             -1.7577
 Hexadecapole moment (field-independent basis, Debye-Ang**3):
 XXXX=         -32102.9062 YYYY=         -27815.5820 ZZZZ=         -21228.0555 XXXY=            132.5530
 XXXZ=           -288.7389 YYYX=            -94.2977 YYYZ=             10.9631 ZZZX=             78.1407
 ZZZY=             -3.3486 XXYY=         -10220.5354 XXZZ=          -8899.3246 YYZZ=          -8122.3514
 XXYZ=             37.0029 YYXZ=             30.9994 ZZXY=            -32.7682
 N-N= 2.227123607023D+04 E-N=-6.287633872975D+04  KE= 7.758992483501D+03
 No NMR shielding tensors so no spin-rotation constants.
 Leave Link  601 at Thu Jun 30 05:59:14 2022, MaxMem=  1342177280 cpu:              26.0 elap:               1.3
 (Enter /home/mkliu/g16/l9999.exe)
 1\1\GINC-NODE02\FOpt\RB3LYP\6-31G(d,p)\C84Cl10\MKLIU\30-Jun-2022\0\\#P
  opt b3lyp/6-31G(d, p) empiricaldispersion=GD3\\force\\0,1\C,8.2898729
 594,18.9141036897,10.524156121\C,12.5107702682,19.9857441759,8.8835197
 628\C,8.2811428243,26.8629292348,10.5306255694\C,12.3044548093,25.6166
 343711,8.9499074593\C,7.9612427359,18.9572466957,9.1325858694\C,11.894
 4717612,19.5494979353,10.1879999056\C,7.9595676762,26.8142932703,9.136
 3540672\C,11.8724602562,26.1996280735,10.1842153389\C,8.969490612,19.1
 196832231,8.1322349389\C,12.1273630098,20.2242767421,11.3679150313\C,1
 2.1120658628,25.5395326114,11.3834737653\C,8.9701936423,26.6675789692,
 8.1350874797\C,10.3063150694,19.05289594,8.5782429195\C,10.3036355019,
 26.7561685531,8.5892150843\C,10.6364947717,18.9489468001,9.977699976\C
 ,10.6237501458,26.8703823267,9.9842558309\C,9.6315801676,18.9674451979
 ,10.9831889175\C,9.6242868645,26.8244050128,10.9909601734\C,9.91596005
 42,19.6368400457,12.2377806265\C,9.9090344753,26.1425737984,12.2494241
 947\C,8.8155671633,20.2488082705,12.9269072895\C,8.8101416673,25.52733
 96718,12.9298298243\C,7.4920568045,20.1799211137,12.4195334595\C,7.481
 6630907,25.5882536085,12.4210950315\C,7.2284650549,19.5158306713,11.25
 71370001\C,7.2185059171,26.250060114,11.2603060059\C,6.1060369276,19.9
 378113624,10.332951952\C,6.1042029014,25.82105008,10.3322306449\C,6.67
 19185121,19.5372718908,8.9879083004\C,6.673347917,26.220599222,8.98896
 66814\C,6.3649520439,20.2078094048,7.8504832641\C,6.3661717406,25.5535
 291554,7.8518532349\C,7.3258769828,20.3231450491,6.7949198491\C,7.3339
 682472,25.4417724351,6.7975375639\C,8.6694281605,19.8694986489,6.93850
 44875\C,8.6671508366,25.9075882774,6.9359772132\C,9.7370040367,20.5937
 568515,6.2581515682\C,9.7352926326,25.1715373967,6.255096149\C,11.0778
 937839,20.5539921476,6.8164880896\C,12.7903956707,22.1513952868,7.7520
 204392\C,12.7535873642,23.5786572547,7.7485640713\C,11.0704375026,25.1
 766576962,6.8306131914\C,11.340807109,19.7688579357,7.9140390728\C,12.
 944274274,21.4360671909,8.9113224622\C,12.9152372403,24.32645433,8.932
 0313047\C,11.347557034,25.9888968694,7.9528615444\C,13.1490317318,22.1
 568198863,10.1644535818\C,13.1473778445,23.6049782138,10.1699364827\C,
 12.8403883076,21.503184985,11.3826464222\C,12.8189298273,24.2655607879
 ,11.3882357545\C,12.4535540185,22.1970997073,12.5472101185\C,12.449032
 432,23.5713943597,12.5537559388\C,11.1849829698,20.2149301718,12.41819
 69128\C,11.183648676,25.568670638,12.4419034547\C,11.4635471598,21.381
 8197922,13.3599620103\C,11.4592441048,24.3884392213,13.3699848768\C,8.
 975056983,21.4981745741,13.6101133695\C,8.9715163653,24.2715543149,13.
 6028120948\C,7.7437155037,22.204978649,13.5468792238\C,7.7417980031,23
 .5624692281,13.5448533806\C,6.6898466361,21.4039255944,12.8176723957\C
 ,6.686355818,24.3601170278,12.8161806991\C,6.2056680187,22.1725728118,
 11.5687188974\C,6.2040201496,23.5876836733,11.5684668301\C,5.911562798
 ,21.4685085809,10.381120405\C,5.9086971841,24.2901624286,10.3812281085
 \C,5.5979968924,22.1739677449,9.1943769306\C,5.597006984,23.5847746196
 ,9.1949168616\C,5.4259997505,21.3992334308,7.8661699379\C,5.429654882,
 24.361063952,7.8669023894\C,5.9469725075,22.2019415711,6.6937825865\C,
 5.9499295671,23.5584996889,6.6959096727\C,7.0129523032,21.4854162638,6
 .0382125618\C,7.0211365304,24.2712071969,6.0420724341\C,8.0277695122,2
 2.1545525545,5.3578119528\C,8.0262035526,23.5979603719,5.3632711362\C,
 9.3785810614,21.6960166242,5.4354122193\C,9.382098371,24.0526987503,5.
 46057774\C,12.1049748335,21.6250835228,6.4867567566\C,11.896145124,24.
 0180214424,6.6824984579\C,10.2266548893,22.8784017066,5.3771380258\C,1
 1.4659856242,22.8839460156,5.9567469661\C,10.21161679,22.1853620842,13
 .668867157\C,10.209641052,23.5850074939,13.6701767753\Cl,4.5335719231,
 19.0777430101,10.733067321\Cl,3.6606793275,20.9264288465,7.6500653331\
 Cl,3.659260788,24.8233515332,7.6466745028\Cl,4.520767271,26.6721423366
 ,10.7206476865\Cl,5.2579100118,20.9839677405,13.8884511841\Cl,5.246517
 657,24.7612029678,13.8876613606\Cl,13.3552074637,20.9582471938,5.27980
 25534\Cl,13.945091498,18.874887802,8.4399669873\Cl,12.1937270416,20.76
 97224323,14.955791401\Cl,12.1987452865,24.9670813959,14.9758812759\\Ve
 rsion=ES64L-G16RevA.03\State=1-A\HF=-7803.0163849\RMSD=6.533e-09\RMSF=
 2.230e-05\Dipole=0.7717892,0.2061665,-0.935468\Quadrupole=-16.7239607,
 14.8399634,1.8839973,8.4271978,4.0137178,-4.9046338\PG=C01 [X(C84Cl10)
 ]\\@


 OLD AGE AND TREACHERY WILL ALWAYS PREVAIL OVER YOUTH AND SKILL.
 Job cpu time:       1 days 13 hours 27 minutes 57.2 seconds.
 Elapsed time:       0 days  1 hours 33 minutes 48.2 seconds.
 File lengths (MBytes):  RWF=   1291 Int=      0 D2E=      0 Chk=    162 Scr=      1
 Normal termination of Gaussian 16 at Thu Jun 30 05:59:16 2022.
