 Entering Gaussian System, Link 0=g16
 Input=10_addons_C84_14_Cl22_rank_9.gjf
 Output=10_addons_C84_14_Cl22_rank_9.log
 Initial command:
 /home/mkliu/g16/l1.exe "/data/scratch/Gau-155380.inp" -scrdir="/data/scratch/"
 Entering Link 1 = /home/mkliu/g16/l1.exe PID=    155381.
  
 Copyright (c) 1988,1990,1992,1993,1995,1998,2003,2009,2016,
            Gaussian, Inc.  All Rights Reserved.
  
 This is part of the Gaussian(R) 16 program.  It is based on
 the Gaussian(R) 09 system (copyright 2009, Gaussian, Inc.),
 the Gaussian(R) 03 system (copyright 2003, Gaussian, Inc.),
 the Gaussian(R) 98 system (copyright 1998, Gaussian, Inc.),
 the Gaussian(R) 94 system (copyright 1995, Gaussian, Inc.),
 the Gaussian 92(TM) system (copyright 1992, Gaussian, Inc.),
 the Gaussian 90(TM) system (copyright 1990, Gaussian, Inc.),
 the Gaussian 88(TM) system (copyright 1988, Gaussian, Inc.),
 the Gaussian 86(TM) system (copyright 1986, Carnegie Mellon
 University), and the Gaussian 82(TM) system (copyright 1983,
 Carnegie Mellon University). Gaussian is a federally registered
 trademark of Gaussian, Inc.
  
 This software contains proprietary and confidential information,
 including trade secrets, belonging to Gaussian, Inc.
  
 This software is provided under written license and may be
 used, copied, transmitted, or stored only in accord with that
 written license.
  
 The following legend is applicable only to US Government
 contracts under FAR:
  
                    RESTRICTED RIGHTS LEGEND
  
 Use, reproduction and disclosure by the US Government is
 subject to restrictions as set forth in subparagraphs (a)
 and (c) of the Commercial Computer Software - Restricted
 Rights clause in FAR 52.227-19.
  
 Gaussian, Inc.
 340 Quinnipiac St., Bldg. 40, Wallingford CT 06492
  
  
 ---------------------------------------------------------------
 Warning -- This program may not be used in any manner that
 competes with the business of Gaussian, Inc. or will provide
 assistance to any competitor of Gaussian, Inc.  The licensee
 of this program is prohibited from giving any competitor of
 Gaussian, Inc. access to this program.  By using this program,
 the user acknowledges that Gaussian, Inc. is engaged in the
 business of creating and licensing software in the field of
 computational chemistry and represents and warrants to the
 licensee that it is not a competitor of Gaussian, Inc. and that
 it will not use this program in any manner prohibited above.
 ---------------------------------------------------------------
  

 Cite this work as:
 Gaussian 16, Revision A.03,
 M. J. Frisch, G. W. Trucks, H. B. Schlegel, G. E. Scuseria, 
 M. A. Robb, J. R. Cheeseman, G. Scalmani, V. Barone, 
 G. A. Petersson, H. Nakatsuji, X. Li, M. Caricato, A. V. Marenich, 
 J. Bloino, B. G. Janesko, R. Gomperts, B. Mennucci, H. P. Hratchian, 
 J. V. Ortiz, A. F. Izmaylov, J. L. Sonnenberg, D. Williams-Young, 
 F. Ding, F. Lipparini, F. Egidi, J. Goings, B. Peng, A. Petrone, 
 T. Henderson, D. Ranasinghe, V. G. Zakrzewski, J. Gao, N. Rega, 
 G. Zheng, W. Liang, M. Hada, M. Ehara, K. Toyota, R. Fukuda, 
 J. Hasegawa, M. Ishida, T. Nakajima, Y. Honda, O. Kitao, H. Nakai, 
 T. Vreven, K. Throssell, J. A. Montgomery, Jr., J. E. Peralta, 
 F. Ogliaro, M. J. Bearpark, J. J. Heyd, E. N. Brothers, K. N. Kudin, 
 V. N. Staroverov, T. A. Keith, R. Kobayashi, J. Normand, 
 K. Raghavachari, A. P. Rendell, J. C. Burant, S. S. Iyengar, 
 J. Tomasi, M. Cossi, J. M. Millam, M. Klene, C. Adamo, R. Cammi, 
 J. W. Ochterski, R. L. Martin, K. Morokuma, O. Farkas, 
 J. B. Foresman, and D. J. Fox, Gaussian, Inc., Wallingford CT, 2016.
 
 ******************************************
 Gaussian 16:  ES64L-G16RevA.03 25-Dec-2016
                27-Jun-2022 
 ******************************************
 %mem=10GB
 %chk=10_addons_C84_14_Cl22_rank_9.chk
 %nprocshared=24
 Will use up to   24 processors via shared memory.
 ------------------------------------------------
 #P opt b3lyp/6-31G(d, p) empiricaldispersion=GD3
 ------------------------------------------------
 1/18=20,19=15,26=3,38=1/1,3;
 2/9=110,12=2,17=6,18=5,40=1/2;
 3/5=1,6=6,7=101,11=2,25=1,30=1,71=1,74=-5,124=31/1,2,3;
 4//1;
 5/5=2,38=5/2;
 6/7=2,8=2,9=2,10=2,28=1/1;
 7//1,2,3,16;
 1/18=20,19=15,26=3/3(2);
 2/9=110/2;
 99//99;
 2/9=110/2;
 3/5=1,6=6,7=101,11=2,25=1,30=1,71=1,74=-5,124=31/1,2,3;
 4/5=5,16=3,69=1/1;
 5/5=2,38=5/2;
 7//1,2,3,16;
 1/18=20,19=15,26=3/3(-5);
 2/9=110/2;
 6/7=2,8=2,9=2,10=2,19=2,28=1/1;
 99/9=1/99;
 Leave Link    1 at Mon Jun 27 09:03:08 2022, MaxMem=  1342177280 cpu:               0.7 elap:               0.1
 (Enter /home/mkliu/g16/l101.exe)
 -----
 force
 -----
 Symbolic Z-matrix:
 Charge =  0 Multiplicity = 1
 C                     8.25471   18.65509   10.5719 
 C                     12.2875   20.19178   8.95109 
 C                     8.30098   26.84426   10.5106 
 C                     12.28739   25.58394   8.94413 
 C                     7.98358   18.96763   9.12291 
 C                     11.85723   19.6205   10.18368 
 C                     7.98217   26.79687   9.11025 
 C                     11.85944   26.16942   10.17577 
 C                     8.96932   19.13442   8.13541 
 C                     12.11491   20.26575   11.37366 
 C                     12.10892   25.51506   11.37239 
 C                     8.97214   26.64083   8.11763 
 C                     10.30991   19.05373   8.58094 
 C                     10.30601   26.7109   8.57758 
 C                     10.61587   18.9612   9.99493 
 C                     10.62308   26.83069   9.97371 
 C                     9.65591   18.98504   10.99411 
 C                     9.6365    26.80362   10.97546 
 C                     9.93041   19.64418   12.21937 
 C                     9.91523   26.13041   12.22183 
 C                     8.80738   20.07038   13.12311 
 C                     8.82318   25.52374   12.89134 
 C                     7.5051    20.18233   12.3779 
 C                     7.51664   25.57292   12.3903 
 C                     7.25179   19.53865   11.25117 
 C                     7.24934   26.24419   11.22281 
 C                     6.15944   19.98267   10.32133 
 C                     6.14065   25.81174   10.30941 
 C                     6.74291   19.59054   9.0049 
 C                     6.70386   26.20915   8.978 
 C                     6.41328   20.25459   7.85692 
 C                     6.392     25.54081   7.84053 
 C                     7.3499    20.35007   6.81025 
 C                     7.34467   25.43622   6.79281 
 C                     8.67925   19.88938   6.94817 
 C                     8.67537   25.8902   6.92976 
 C                     9.72985   20.60766   6.26077 
 C                     9.72949   25.16151   6.25219 
 C                     11.06352   20.5981   6.81507 
 C                     12.75007   22.17806   7.73446 
 C                     12.75022   23.5929   7.7317 
 C                     11.06649   25.17057   6.81286 
 C                     11.32352   19.79947   7.95657 
 C                     12.91398   21.44658   8.93126 
 C                     12.9116   24.32632   8.92702 
 C                     11.33308   25.96941   7.94581 
 C                     13.1434   22.16845   10.16752 
 C                     13.13983   23.60481   10.16555 
 C                     12.81089   21.5185   11.37398 
 C                     12.80386   24.25447   11.36913 
 C                     12.41751   22.20524   12.5483 
 C                     12.416    23.56448   12.54329 
 C                     11.16471   20.23566   12.4199 
 C                     11.1761   25.54272   12.42314 
 C                     11.45748   21.378    13.36825 
 C                     11.44876   24.38202   13.35487 
 C                     8.99603   21.49368   13.57408 
 C                     8.99464   24.24935   13.55474 
 C                     7.78896   22.18981   13.45971 
 C                     7.77933   23.55291   13.4703 
 C                     6.72943   21.41288   12.75412 
 C                     6.72618   24.35131   12.768 
 C                     6.2807    22.18996   11.52261 
 C                     6.28359   23.59339   11.5224 
 C                     5.98704   21.49449   10.34743 
 C                     5.99024   24.2926   10.34485 
 C                     5.67263   22.19283   9.17091 
 C                     5.67331   23.5937   9.16911 
 C                     5.46251   21.41788   7.87271 
 C                     5.45551   24.364    7.86608 
 C                     5.95691   22.21127   6.69779 
 C                     5.95696   23.56891   6.69616 
 C                     7.01402   21.50732   6.04171 
 C                     7.01388   24.27341   6.03859 
 C                     8.01308   22.17461   5.366 
 C                     8.01393   23.60203   5.3627 
 C                     9.37019   21.71543   5.46339 
 C                     9.36962   24.05732   5.45891 
 C                     11.89638   21.72049   6.67192 
 C                     11.89952   24.04673   6.66724 
 C                     10.19429   22.88218   5.39051 
 C                     11.4349   22.88331   5.99182 
 C                     10.20824   22.16996   13.64456 
 C                     10.21083   23.57517   13.63915 
 Cl                    4.58225   19.19847   10.69444 
 Cl                    3.72838   20.95258   7.75389 
 Cl                    3.71525   24.80387   7.74756 
 Cl                    4.55746   26.5648   10.70176 
 Cl                    5.28764   21.05001   13.76946 
 Cl                    5.28046   24.70327   13.77573 
 Cl                    12.17547   20.79836   14.91855 
 Cl                    12.1626   24.95415   14.92193 
 Cl                    8.6695    18.9444   14.53423 
 Cl                    7.93782   16.89591   10.91408 
 
 ITRead=  0  0  0  0  0  0  0  0  0  0  0  0  0  0  0  0  0  0  0  0
 ITRead=  0  0  0  0  0  0  0  0  0  0  0  0  0  0  0  0  0  0  0  0
 ITRead=  0  0  0  0  0  0  0  0  0  0  0  0  0  0  0  0  0  0  0  0
 ITRead=  0  0  0  0  0  0  0  0  0  0  0  0  0  0  0  0  0  0  0  0
 ITRead=  0  0  0  0  0  0  0  0  0  0  0  0  0  0
 MicOpt= -1 -1 -1 -1 -1 -1 -1 -1 -1 -1 -1 -1 -1 -1 -1 -1 -1 -1 -1 -1
 MicOpt= -1 -1 -1 -1 -1 -1 -1 -1 -1 -1 -1 -1 -1 -1 -1 -1 -1 -1 -1 -1
 MicOpt= -1 -1 -1 -1 -1 -1 -1 -1 -1 -1 -1 -1 -1 -1 -1 -1 -1 -1 -1 -1
 MicOpt= -1 -1 -1 -1 -1 -1 -1 -1 -1 -1 -1 -1 -1 -1 -1 -1 -1 -1 -1 -1
 MicOpt= -1 -1 -1 -1 -1 -1 -1 -1 -1 -1 -1 -1 -1 -1
 NAtoms=     94 NQM=       94 NQMF=       0 NMMI=      0 NMMIF=      0
                NMic=       0 NMicF=      0.
                    Isotopes and Nuclear Properties:
 (Nuclear quadrupole moments (NQMom) in fm**2, nuclear magnetic moments (NMagM)
  in nuclear magnetons)

  Atom         1           2           3           4           5           6           7           8           9          10
 IAtWgt=          12          12          12          12          12          12          12          12          12          12
 AtmWgt=  12.0000000  12.0000000  12.0000000  12.0000000  12.0000000  12.0000000  12.0000000  12.0000000  12.0000000  12.0000000
 NucSpn=           0           0           0           0           0           0           0           0           0           0
 AtZEff=  -0.0000000  -0.0000000  -0.0000000  -0.0000000  -0.0000000  -0.0000000  -0.0000000  -0.0000000  -0.0000000  -0.0000000
 NQMom=    0.0000000   0.0000000   0.0000000   0.0000000   0.0000000   0.0000000   0.0000000   0.0000000   0.0000000   0.0000000
 NMagM=    0.0000000   0.0000000   0.0000000   0.0000000   0.0000000   0.0000000   0.0000000   0.0000000   0.0000000   0.0000000
 AtZNuc=   6.0000000   6.0000000   6.0000000   6.0000000   6.0000000   6.0000000   6.0000000   6.0000000   6.0000000   6.0000000

  Atom        11          12          13          14          15          16          17          18          19          20
 IAtWgt=          12          12          12          12          12          12          12          12          12          12
 AtmWgt=  12.0000000  12.0000000  12.0000000  12.0000000  12.0000000  12.0000000  12.0000000  12.0000000  12.0000000  12.0000000
 NucSpn=           0           0           0           0           0           0           0           0           0           0
 AtZEff=  -0.0000000  -0.0000000  -0.0000000  -0.0000000  -0.0000000  -0.0000000  -0.0000000  -0.0000000  -0.0000000  -0.0000000
 NQMom=    0.0000000   0.0000000   0.0000000   0.0000000   0.0000000   0.0000000   0.0000000   0.0000000   0.0000000   0.0000000
 NMagM=    0.0000000   0.0000000   0.0000000   0.0000000   0.0000000   0.0000000   0.0000000   0.0000000   0.0000000   0.0000000
 AtZNuc=   6.0000000   6.0000000   6.0000000   6.0000000   6.0000000   6.0000000   6.0000000   6.0000000   6.0000000   6.0000000

  Atom        21          22          23          24          25          26          27          28          29          30
 IAtWgt=          12          12          12          12          12          12          12          12          12          12
 AtmWgt=  12.0000000  12.0000000  12.0000000  12.0000000  12.0000000  12.0000000  12.0000000  12.0000000  12.0000000  12.0000000
 NucSpn=           0           0           0           0           0           0           0           0           0           0
 AtZEff=  -0.0000000  -0.0000000  -0.0000000  -0.0000000  -0.0000000  -0.0000000  -0.0000000  -0.0000000  -0.0000000  -0.0000000
 NQMom=    0.0000000   0.0000000   0.0000000   0.0000000   0.0000000   0.0000000   0.0000000   0.0000000   0.0000000   0.0000000
 NMagM=    0.0000000   0.0000000   0.0000000   0.0000000   0.0000000   0.0000000   0.0000000   0.0000000   0.0000000   0.0000000
 AtZNuc=   6.0000000   6.0000000   6.0000000   6.0000000   6.0000000   6.0000000   6.0000000   6.0000000   6.0000000   6.0000000

  Atom        31          32          33          34          35          36          37          38          39          40
 IAtWgt=          12          12          12          12          12          12          12          12          12          12
 AtmWgt=  12.0000000  12.0000000  12.0000000  12.0000000  12.0000000  12.0000000  12.0000000  12.0000000  12.0000000  12.0000000
 NucSpn=           0           0           0           0           0           0           0           0           0           0
 AtZEff=  -0.0000000  -0.0000000  -0.0000000  -0.0000000  -0.0000000  -0.0000000  -0.0000000  -0.0000000  -0.0000000  -0.0000000
 NQMom=    0.0000000   0.0000000   0.0000000   0.0000000   0.0000000   0.0000000   0.0000000   0.0000000   0.0000000   0.0000000
 NMagM=    0.0000000   0.0000000   0.0000000   0.0000000   0.0000000   0.0000000   0.0000000   0.0000000   0.0000000   0.0000000
 AtZNuc=   6.0000000   6.0000000   6.0000000   6.0000000   6.0000000   6.0000000   6.0000000   6.0000000   6.0000000   6.0000000

  Atom        41          42          43          44          45          46          47          48          49          50
 IAtWgt=          12          12          12          12          12          12          12          12          12          12
 AtmWgt=  12.0000000  12.0000000  12.0000000  12.0000000  12.0000000  12.0000000  12.0000000  12.0000000  12.0000000  12.0000000
 NucSpn=           0           0           0           0           0           0           0           0           0           0
 AtZEff=  -0.0000000  -0.0000000  -0.0000000  -0.0000000  -0.0000000  -0.0000000  -0.0000000  -0.0000000  -0.0000000  -0.0000000
 NQMom=    0.0000000   0.0000000   0.0000000   0.0000000   0.0000000   0.0000000   0.0000000   0.0000000   0.0000000   0.0000000
 NMagM=    0.0000000   0.0000000   0.0000000   0.0000000   0.0000000   0.0000000   0.0000000   0.0000000   0.0000000   0.0000000
 AtZNuc=   6.0000000   6.0000000   6.0000000   6.0000000   6.0000000   6.0000000   6.0000000   6.0000000   6.0000000   6.0000000

  Atom        51          52          53          54          55          56          57          58          59          60
 IAtWgt=          12          12          12          12          12          12          12          12          12          12
 AtmWgt=  12.0000000  12.0000000  12.0000000  12.0000000  12.0000000  12.0000000  12.0000000  12.0000000  12.0000000  12.0000000
 NucSpn=           0           0           0           0           0           0           0           0           0           0
 AtZEff=  -0.0000000  -0.0000000  -0.0000000  -0.0000000  -0.0000000  -0.0000000  -0.0000000  -0.0000000  -0.0000000  -0.0000000
 NQMom=    0.0000000   0.0000000   0.0000000   0.0000000   0.0000000   0.0000000   0.0000000   0.0000000   0.0000000   0.0000000
 NMagM=    0.0000000   0.0000000   0.0000000   0.0000000   0.0000000   0.0000000   0.0000000   0.0000000   0.0000000   0.0000000
 AtZNuc=   6.0000000   6.0000000   6.0000000   6.0000000   6.0000000   6.0000000   6.0000000   6.0000000   6.0000000   6.0000000

  Atom        61          62          63          64          65          66          67          68          69          70
 IAtWgt=          12          12          12          12          12          12          12          12          12          12
 AtmWgt=  12.0000000  12.0000000  12.0000000  12.0000000  12.0000000  12.0000000  12.0000000  12.0000000  12.0000000  12.0000000
 NucSpn=           0           0           0           0           0           0           0           0           0           0
 AtZEff=  -0.0000000  -0.0000000  -0.0000000  -0.0000000  -0.0000000  -0.0000000  -0.0000000  -0.0000000  -0.0000000  -0.0000000
 NQMom=    0.0000000   0.0000000   0.0000000   0.0000000   0.0000000   0.0000000   0.0000000   0.0000000   0.0000000   0.0000000
 NMagM=    0.0000000   0.0000000   0.0000000   0.0000000   0.0000000   0.0000000   0.0000000   0.0000000   0.0000000   0.0000000
 AtZNuc=   6.0000000   6.0000000   6.0000000   6.0000000   6.0000000   6.0000000   6.0000000   6.0000000   6.0000000   6.0000000

  Atom        71          72          73          74          75          76          77          78          79          80
 IAtWgt=          12          12          12          12          12          12          12          12          12          12
 AtmWgt=  12.0000000  12.0000000  12.0000000  12.0000000  12.0000000  12.0000000  12.0000000  12.0000000  12.0000000  12.0000000
 NucSpn=           0           0           0           0           0           0           0           0           0           0
 AtZEff=  -0.0000000  -0.0000000  -0.0000000  -0.0000000  -0.0000000  -0.0000000  -0.0000000  -0.0000000  -0.0000000  -0.0000000
 NQMom=    0.0000000   0.0000000   0.0000000   0.0000000   0.0000000   0.0000000   0.0000000   0.0000000   0.0000000   0.0000000
 NMagM=    0.0000000   0.0000000   0.0000000   0.0000000   0.0000000   0.0000000   0.0000000   0.0000000   0.0000000   0.0000000
 AtZNuc=   6.0000000   6.0000000   6.0000000   6.0000000   6.0000000   6.0000000   6.0000000   6.0000000   6.0000000   6.0000000

  Atom        81          82          83          84          85          86          87          88          89          90
 IAtWgt=          12          12          12          12          35          35          35          35          35          35
 AtmWgt=  12.0000000  12.0000000  12.0000000  12.0000000  34.9688527  34.9688527  34.9688527  34.9688527  34.9688527  34.9688527
 NucSpn=           0           0           0           0           3           3           3           3           3           3
 AtZEff=  -0.0000000  -0.0000000  -0.0000000  -0.0000000  -0.0000000  -0.0000000  -0.0000000  -0.0000000  -0.0000000  -0.0000000
 NQMom=    0.0000000   0.0000000   0.0000000   0.0000000  -8.1650000  -8.1650000  -8.1650000  -8.1650000  -8.1650000  -8.1650000
 NMagM=    0.0000000   0.0000000   0.0000000   0.0000000   0.8218740   0.8218740   0.8218740   0.8218740   0.8218740   0.8218740
 AtZNuc=   6.0000000   6.0000000   6.0000000   6.0000000  17.0000000  17.0000000  17.0000000  17.0000000  17.0000000  17.0000000

  Atom        91          92          93          94
 IAtWgt=          35          35          35          35
 AtmWgt=  34.9688527  34.9688527  34.9688527  34.9688527
 NucSpn=           3           3           3           3
 AtZEff=  -0.0000000  -0.0000000  -0.0000000  -0.0000000
 NQMom=   -8.1650000  -8.1650000  -8.1650000  -8.1650000
 NMagM=    0.8218740   0.8218740   0.8218740   0.8218740
 AtZNuc=  17.0000000  17.0000000  17.0000000  17.0000000
 Leave Link  101 at Mon Jun 27 09:03:09 2022, MaxMem=  1342177280 cpu:               6.6 elap:               0.3
 (Enter /home/mkliu/g16/l103.exe)

 GradGradGradGradGradGradGradGradGradGradGradGradGradGradGradGradGradGrad
 Berny optimization.
 Initialization pass.
                           ----------------------------
                           !    Initial Parameters    !
                           ! (Angstroms and Degrees)  !
 --------------------------                            --------------------------
 ! Name  Definition              Value          Derivative Info.                !
 --------------------------------------------------------------------------------
 ! R1    R(1,5)                  1.5069         estimate D2E/DX2                !
 ! R2    R(1,17)                 1.5002         estimate D2E/DX2                !
 ! R3    R(1,25)                 1.4993         estimate D2E/DX2                !
 ! R4    R(1,94)                 1.82           estimate D2E/DX2                !
 ! R5    R(2,6)                  1.425          estimate D2E/DX2                !
 ! R6    R(2,43)                 1.4395         estimate D2E/DX2                !
 ! R7    R(2,44)                 1.4026         estimate D2E/DX2                !
 ! R8    R(3,7)                  1.437          estimate D2E/DX2                !
 ! R9    R(3,18)                 1.4147         estimate D2E/DX2                !
 ! R10   R(3,26)                 1.4047         estimate D2E/DX2                !
 ! R11   R(4,8)                  1.4293         estimate D2E/DX2                !
 ! R12   R(4,45)                 1.4041         estimate D2E/DX2                !
 ! R13   R(4,46)                 1.4339         estimate D2E/DX2                !
 ! R14   R(5,9)                  1.4052         estimate D2E/DX2                !
 ! R15   R(5,29)                 1.3933         estimate D2E/DX2                !
 ! R16   R(6,10)                 1.378          estimate D2E/DX2                !
 ! R17   R(6,15)                 1.4182         estimate D2E/DX2                !
 ! R18   R(7,12)                 1.4106         estimate D2E/DX2                !
 ! R19   R(7,30)                 1.4131         estimate D2E/DX2                !
 ! R20   R(8,11)                 1.3865         estimate D2E/DX2                !
 ! R21   R(8,16)                 1.4166         estimate D2E/DX2                !
 ! R22   R(9,13)                 1.415          estimate D2E/DX2                !
 ! R23   R(9,35)                 1.4365         estimate D2E/DX2                !
 ! R24   R(10,49)                1.4331         estimate D2E/DX2                !
 ! R25   R(10,53)                1.4136         estimate D2E/DX2                !
 ! R26   R(11,50)                1.4395         estimate D2E/DX2                !
 ! R27   R(11,54)                1.4054         estimate D2E/DX2                !
 ! R28   R(12,14)                1.4127         estimate D2E/DX2                !
 ! R29   R(12,36)                1.4362         estimate D2E/DX2                !
 ! R30   R(13,15)                1.4497         estimate D2E/DX2                !
 ! R31   R(13,43)                1.4048         estimate D2E/DX2                !
 ! R32   R(14,16)                1.4367         estimate D2E/DX2                !
 ! R33   R(14,46)                1.4156         estimate D2E/DX2                !
 ! R34   R(15,17)                1.3858         estimate D2E/DX2                !
 ! R35   R(16,18)                1.4063         estimate D2E/DX2                !
 ! R36   R(17,19)                1.4181         estimate D2E/DX2                !
 ! R37   R(18,20)                1.4437         estimate D2E/DX2                !
 ! R38   R(19,21)                1.5032         estimate D2E/DX2                !
 ! R39   R(19,53)                1.3833         estimate D2E/DX2                !
 ! R40   R(20,22)                1.4173         estimate D2E/DX2                !
 ! R41   R(20,54)                1.4056         estimate D2E/DX2                !
 ! R42   R(21,23)                1.5046         estimate D2E/DX2                !
 ! R43   R(21,57)                1.5049         estimate D2E/DX2                !
 ! R44   R(21,93)                1.8106         estimate D2E/DX2                !
 ! R45   R(22,24)                1.4002         estimate D2E/DX2                !
 ! R46   R(22,58)                1.4469         estimate D2E/DX2                !
 ! R47   R(23,25)                1.3221         estimate D2E/DX2                !
 ! R48   R(23,61)                1.5025         estimate D2E/DX2                !
 ! R49   R(24,26)                1.373          estimate D2E/DX2                !
 ! R50   R(24,62)                1.5033         estimate D2E/DX2                !
 ! R51   R(25,27)                1.5017         estimate D2E/DX2                !
 ! R52   R(26,28)                1.5002         estimate D2E/DX2                !
 ! R53   R(27,29)                1.4924         estimate D2E/DX2                !
 ! R54   R(27,65)                1.5218         estimate D2E/DX2                !
 ! R55   R(27,85)                1.8005         estimate D2E/DX2                !
 ! R56   R(28,30)                1.4993         estimate D2E/DX2                !
 ! R57   R(28,66)                1.527          estimate D2E/DX2                !
 ! R58   R(28,88)                1.7965         estimate D2E/DX2                !
 ! R59   R(29,31)                1.3666         estimate D2E/DX2                !
 ! R60   R(30,32)                1.3556         estimate D2E/DX2                !
 ! R61   R(31,33)                1.4078         estimate D2E/DX2                !
 ! R62   R(31,69)                1.5025         estimate D2E/DX2                !
 ! R63   R(32,34)                1.4199         estimate D2E/DX2                !
 ! R64   R(32,70)                1.5042         estimate D2E/DX2                !
 ! R65   R(33,35)                1.4137         estimate D2E/DX2                !
 ! R66   R(33,73)                1.4292         estimate D2E/DX2                !
 ! R67   R(34,36)                1.4127         estimate D2E/DX2                !
 ! R68   R(34,74)                1.4249         estimate D2E/DX2                !
 ! R69   R(35,37)                1.4465         estimate D2E/DX2                !
 ! R70   R(36,38)                1.4496         estimate D2E/DX2                !
 ! R71   R(37,39)                1.4443         estimate D2E/DX2                !
 ! R72   R(37,77)                1.4115         estimate D2E/DX2                !
 ! R73   R(38,42)                1.4498         estimate D2E/DX2                !
 ! R74   R(38,78)                1.4064         estimate D2E/DX2                !
 ! R75   R(39,43)                1.4172         estimate D2E/DX2                !
 ! R76   R(39,79)                1.405          estimate D2E/DX2                !
 ! R77   R(40,41)                1.4148         estimate D2E/DX2                !
 ! R78   R(40,44)                1.4122         estimate D2E/DX2                !
 ! R79   R(40,79)                1.4378         estimate D2E/DX2                !
 ! R80   R(41,45)                1.4116         estimate D2E/DX2                !
 ! R81   R(41,80)                1.4362         estimate D2E/DX2                !
 ! R82   R(42,46)                1.4117         estimate D2E/DX2                !
 ! R83   R(42,80)                1.4065         estimate D2E/DX2                !
 ! R84   R(44,47)                1.4498         estimate D2E/DX2                !
 ! R85   R(45,48)                1.4514         estimate D2E/DX2                !
 ! R86   R(47,48)                1.4364         estimate D2E/DX2                !
 ! R87   R(47,49)                1.4102         estimate D2E/DX2                !
 ! R88   R(48,50)                1.4084         estimate D2E/DX2                !
 ! R89   R(49,51)                1.4161         estimate D2E/DX2                !
 ! R90   R(50,52)                1.416          estimate D2E/DX2                !
 ! R91   R(51,52)                1.3592         estimate D2E/DX2                !
 ! R92   R(51,55)                1.5094         estimate D2E/DX2                !
 ! R93   R(52,56)                1.5042         estimate D2E/DX2                !
 ! R94   R(53,55)                1.5133         estimate D2E/DX2                !
 ! R95   R(54,56)                1.5132         estimate D2E/DX2                !
 ! R96   R(55,83)                1.5047         estimate D2E/DX2                !
 ! R97   R(55,91)                1.8041         estimate D2E/DX2                !
 ! R98   R(56,84)                1.5047         estimate D2E/DX2                !
 ! R99   R(56,92)                1.8145         estimate D2E/DX2                !
 ! R100  R(57,59)                1.3981         estimate D2E/DX2                !
 ! R101  R(57,83)                1.3899         estimate D2E/DX2                !
 ! R102  R(58,60)                1.4033         estimate D2E/DX2                !
 ! R103  R(58,84)                1.3931         estimate D2E/DX2                !
 ! R104  R(59,60)                1.3632         estimate D2E/DX2                !
 ! R105  R(59,61)                1.4913         estimate D2E/DX2                !
 ! R106  R(60,62)                1.4966         estimate D2E/DX2                !
 ! R107  R(61,63)                1.5238         estimate D2E/DX2                !
 ! R108  R(61,89)                1.8004         estimate D2E/DX2                !
 ! R109  R(62,64)                1.5238         estimate D2E/DX2                !
 ! R110  R(62,90)                1.7971         estimate D2E/DX2                !
 ! R111  R(63,64)                1.4034         estimate D2E/DX2                !
 ! R112  R(63,65)                1.3968         estimate D2E/DX2                !
 ! R113  R(64,66)                1.4006         estimate D2E/DX2                !
 ! R114  R(65,67)                1.4038         estimate D2E/DX2                !
 ! R115  R(66,68)                1.404          estimate D2E/DX2                !
 ! R116  R(67,68)                1.4009         estimate D2E/DX2                !
 ! R117  R(67,69)                1.5264         estimate D2E/DX2                !
 ! R118  R(68,70)                1.5293         estimate D2E/DX2                !
 ! R119  R(69,71)                1.5014         estimate D2E/DX2                !
 ! R120  R(69,86)                1.7994         estimate D2E/DX2                !
 ! R121  R(70,72)                1.5008         estimate D2E/DX2                !
 ! R122  R(70,87)                1.7989         estimate D2E/DX2                !
 ! R123  R(71,72)                1.3576         estimate D2E/DX2                !
 ! R124  R(71,73)                1.4295         estimate D2E/DX2                !
 ! R125  R(72,74)                1.4303         estimate D2E/DX2                !
 ! R126  R(73,75)                1.3784         estimate D2E/DX2                !
 ! R127  R(74,76)                1.3812         estimate D2E/DX2                !
 ! R128  R(75,76)                1.4274         estimate D2E/DX2                !
 ! R129  R(75,77)                1.436          estimate D2E/DX2                !
 ! R130  R(76,78)                1.4333         estimate D2E/DX2                !
 ! R131  R(77,81)                1.4303         estimate D2E/DX2                !
 ! R132  R(78,81)                1.4373         estimate D2E/DX2                !
 ! R133  R(79,82)                1.424          estimate D2E/DX2                !
 ! R134  R(80,82)                1.4232         estimate D2E/DX2                !
 ! R135  R(81,82)                1.3787         estimate D2E/DX2                !
 ! R136  R(83,84)                1.4052         estimate D2E/DX2                !
 ! A1    A(5,1,17)             113.1455         estimate D2E/DX2                !
 ! A2    A(5,1,25)             101.1313         estimate D2E/DX2                !
 ! A3    A(5,1,94)             110.4834         estimate D2E/DX2                !
 ! A4    A(17,1,25)            111.5723         estimate D2E/DX2                !
 ! A5    A(17,1,94)            108.803          estimate D2E/DX2                !
 ! A6    A(25,1,94)            111.5909         estimate D2E/DX2                !
 ! A7    A(6,2,43)             106.6254         estimate D2E/DX2                !
 ! A8    A(6,2,44)             120.3792         estimate D2E/DX2                !
 ! A9    A(43,2,44)            122.2173         estimate D2E/DX2                !
 ! A10   A(7,3,18)             121.9194         estimate D2E/DX2                !
 ! A11   A(7,3,26)             108.2948         estimate D2E/DX2                !
 ! A12   A(18,3,26)            121.8616         estimate D2E/DX2                !
 ! A13   A(8,4,45)             120.6973         estimate D2E/DX2                !
 ! A14   A(8,4,46)             106.8923         estimate D2E/DX2                !
 ! A15   A(45,4,46)            121.8826         estimate D2E/DX2                !
 ! A16   A(1,5,9)              125.0385         estimate D2E/DX2                !
 ! A17   A(1,5,29)             109.5357         estimate D2E/DX2                !
 ! A18   A(9,5,29)             120.8013         estimate D2E/DX2                !
 ! A19   A(2,6,10)             120.183          estimate D2E/DX2                !
 ! A20   A(2,6,15)             109.6055         estimate D2E/DX2                !
 ! A21   A(10,6,15)            119.7557         estimate D2E/DX2                !
 ! A22   A(3,7,12)             122.2566         estimate D2E/DX2                !
 ! A23   A(3,7,30)             107.7952         estimate D2E/DX2                !
 ! A24   A(12,7,30)            121.5334         estimate D2E/DX2                !
 ! A25   A(4,8,11)             119.7693         estimate D2E/DX2                !
 ! A26   A(4,8,16)             109.2458         estimate D2E/DX2                !
 ! A27   A(11,8,16)            120.031          estimate D2E/DX2                !
 ! A28   A(5,9,13)             115.8847         estimate D2E/DX2                !
 ! A29   A(5,9,35)             120.0999         estimate D2E/DX2                !
 ! A30   A(13,9,35)            118.7838         estimate D2E/DX2                !
 ! A31   A(6,10,49)            120.0224         estimate D2E/DX2                !
 ! A32   A(6,10,53)            120.23           estimate D2E/DX2                !
 ! A33   A(49,10,53)           110.1743         estimate D2E/DX2                !
 ! A34   A(8,11,50)            119.883          estimate D2E/DX2                !
 ! A35   A(8,11,54)            121.1023         estimate D2E/DX2                !
 ! A36   A(50,11,54)           109.8392         estimate D2E/DX2                !
 ! A37   A(7,12,14)            115.3447         estimate D2E/DX2                !
 ! A38   A(7,12,36)            119.6587         estimate D2E/DX2                !
 ! A39   A(14,12,36)           119.363          estimate D2E/DX2                !
 ! A40   A(9,13,15)            120.7115         estimate D2E/DX2                !
 ! A41   A(9,13,43)            120.8897         estimate D2E/DX2                !
 ! A42   A(15,13,43)           108.3685         estimate D2E/DX2                !
 ! A43   A(12,14,16)           121.9324         estimate D2E/DX2                !
 ! A44   A(12,14,46)           120.9162         estimate D2E/DX2                !
 ! A45   A(16,14,46)           108.4968         estimate D2E/DX2                !
 ! A46   A(6,15,13)            106.5516         estimate D2E/DX2                !
 ! A47   A(6,15,17)            120.1576         estimate D2E/DX2                !
 ! A48   A(13,15,17)           123.7772         estimate D2E/DX2                !
 ! A49   A(8,16,14)            106.9964         estimate D2E/DX2                !
 ! A50   A(8,16,18)            120.1132         estimate D2E/DX2                !
 ! A51   A(14,16,18)           122.3989         estimate D2E/DX2                !
 ! A52   A(1,17,15)            116.1236         estimate D2E/DX2                !
 ! A53   A(1,17,19)            121.7487         estimate D2E/DX2                !
 ! A54   A(15,17,19)           119.7924         estimate D2E/DX2                !
 ! A55   A(3,18,16)            115.3194         estimate D2E/DX2                !
 ! A56   A(3,18,20)            118.6419         estimate D2E/DX2                !
 ! A57   A(16,18,20)           119.2422         estimate D2E/DX2                !
 ! A58   A(17,19,21)           120.4386         estimate D2E/DX2                !
 ! A59   A(17,19,53)           119.782          estimate D2E/DX2                !
 ! A60   A(21,19,53)           117.2733         estimate D2E/DX2                !
 ! A61   A(18,20,22)           117.2989         estimate D2E/DX2                !
 ! A62   A(18,20,54)           119.4589         estimate D2E/DX2                !
 ! A63   A(22,20,54)           116.3937         estimate D2E/DX2                !
 ! A64   A(19,21,23)           111.7132         estimate D2E/DX2                !
 ! A65   A(19,21,57)           110.773          estimate D2E/DX2                !
 ! A66   A(19,21,93)           110.4349         estimate D2E/DX2                !
 ! A67   A(23,21,57)           100.7514         estimate D2E/DX2                !
 ! A68   A(23,21,93)           111.4925         estimate D2E/DX2                !
 ! A69   A(57,21,93)           111.3564         estimate D2E/DX2                !
 ! A70   A(20,22,24)           122.3371         estimate D2E/DX2                !
 ! A71   A(20,22,58)           120.1505         estimate D2E/DX2                !
 ! A72   A(24,22,58)           107.7924         estimate D2E/DX2                !
 ! A73   A(21,23,25)           123.4834         estimate D2E/DX2                !
 ! A74   A(21,23,61)           112.5666         estimate D2E/DX2                !
 ! A75   A(25,23,61)           120.8788         estimate D2E/DX2                !
 ! A76   A(22,24,26)           120.2062         estimate D2E/DX2                !
 ! A77   A(22,24,62)           111.8526         estimate D2E/DX2                !
 ! A78   A(26,24,62)           120.5698         estimate D2E/DX2                !
 ! A79   A(1,25,23)            123.0141         estimate D2E/DX2                !
 ! A80   A(1,25,27)            112.3528         estimate D2E/DX2                !
 ! A81   A(23,25,27)           121.5411         estimate D2E/DX2                !
 ! A82   A(3,26,24)            119.6189         estimate D2E/DX2                !
 ! A83   A(3,26,28)            111.5748         estimate D2E/DX2                !
 ! A84   A(24,26,28)           121.3777         estimate D2E/DX2                !
 ! A85   A(25,27,29)           100.6095         estimate D2E/DX2                !
 ! A86   A(25,27,65)           111.4396         estimate D2E/DX2                !
 ! A87   A(25,27,85)           112.3405         estimate D2E/DX2                !
 ! A88   A(29,27,65)           108.6901         estimate D2E/DX2                !
 ! A89   A(29,27,85)           114.2574         estimate D2E/DX2                !
 ! A90   A(65,27,85)           109.2622         estimate D2E/DX2                !
 ! A91   A(26,28,30)           100.7581         estimate D2E/DX2                !
 ! A92   A(26,28,66)           110.2096         estimate D2E/DX2                !
 ! A93   A(26,28,88)           113.4204         estimate D2E/DX2                !
 ! A94   A(30,28,66)           108.7428         estimate D2E/DX2                !
 ! A95   A(30,28,88)           114.4491         estimate D2E/DX2                !
 ! A96   A(66,28,88)           108.9742         estimate D2E/DX2                !
 ! A97   A(5,29,27)            113.0107         estimate D2E/DX2                !
 ! A98   A(5,29,31)            120.212          estimate D2E/DX2                !
 ! A99   A(27,29,31)           121.2668         estimate D2E/DX2                !
 ! A100  A(7,30,28)            111.5272         estimate D2E/DX2                !
 ! A101  A(7,30,32)            119.4499         estimate D2E/DX2                !
 ! A102  A(28,30,32)           121.8722         estimate D2E/DX2                !
 ! A103  A(29,31,33)           119.8042         estimate D2E/DX2                !
 ! A104  A(29,31,69)           121.3354         estimate D2E/DX2                !
 ! A105  A(33,31,69)           112.1047         estimate D2E/DX2                !
 ! A106  A(30,32,34)           120.0716         estimate D2E/DX2                !
 ! A107  A(30,32,70)           120.9761         estimate D2E/DX2                !
 ! A108  A(34,32,70)           111.8772         estimate D2E/DX2                !
 ! A109  A(31,33,35)           122.0724         estimate D2E/DX2                !
 ! A110  A(31,33,73)           107.3592         estimate D2E/DX2                !
 ! A111  A(35,33,73)           122.5017         estimate D2E/DX2                !
 ! A112  A(32,34,36)           122.4654         estimate D2E/DX2                !
 ! A113  A(32,34,74)           107.1522         estimate D2E/DX2                !
 ! A114  A(36,34,74)           122.1569         estimate D2E/DX2                !
 ! A115  A(9,35,33)            116.2177         estimate D2E/DX2                !
 ! A116  A(9,35,37)            120.4687         estimate D2E/DX2                !
 ! A117  A(33,35,37)           118.3477         estimate D2E/DX2                !
 ! A118  A(12,36,34)           116.2832         estimate D2E/DX2                !
 ! A119  A(12,36,38)           119.9397         estimate D2E/DX2                !
 ! A120  A(34,36,38)           118.564          estimate D2E/DX2                !
 ! A121  A(35,37,39)           119.0136         estimate D2E/DX2                !
 ! A122  A(35,37,77)           118.2366         estimate D2E/DX2                !
 ! A123  A(39,37,77)           117.213          estimate D2E/DX2                !
 ! A124  A(36,38,42)           119.1239         estimate D2E/DX2                !
 ! A125  A(36,38,78)           118.1801         estimate D2E/DX2                !
 ! A126  A(42,38,78)           117.3218         estimate D2E/DX2                !
 ! A127  A(37,39,43)           118.8335         estimate D2E/DX2                !
 ! A128  A(37,39,79)           120.1982         estimate D2E/DX2                !
 ! A129  A(43,39,79)           115.0564         estimate D2E/DX2                !
 ! A130  A(41,40,44)           121.3071         estimate D2E/DX2                !
 ! A131  A(41,40,79)           108.4741         estimate D2E/DX2                !
 ! A132  A(44,40,79)           122.0311         estimate D2E/DX2                !
 ! A133  A(40,41,45)           121.1919         estimate D2E/DX2                !
 ! A134  A(40,41,80)           108.5041         estimate D2E/DX2                !
 ! A135  A(45,41,80)           122.0809         estimate D2E/DX2                !
 ! A136  A(38,42,46)           119.2125         estimate D2E/DX2                !
 ! A137  A(38,42,80)           120.0765         estimate D2E/DX2                !
 ! A138  A(46,42,80)           115.0503         estimate D2E/DX2                !
 ! A139  A(2,43,13)            108.7108         estimate D2E/DX2                !
 ! A140  A(2,43,39)            121.7184         estimate D2E/DX2                !
 ! A141  A(13,43,39)           121.6539         estimate D2E/DX2                !
 ! A142  A(2,44,40)            115.0576         estimate D2E/DX2                !
 ! A143  A(2,44,47)            120.2674         estimate D2E/DX2                !
 ! A144  A(40,44,47)           118.8876         estimate D2E/DX2                !
 ! A145  A(4,45,41)            115.1408         estimate D2E/DX2                !
 ! A146  A(4,45,48)            120.3146         estimate D2E/DX2                !
 ! A147  A(41,45,48)           118.8332         estimate D2E/DX2                !
 ! A148  A(4,46,14)            108.2388         estimate D2E/DX2                !
 ! A149  A(4,46,42)            122.1641         estimate D2E/DX2                !
 ! A150  A(14,46,42)           121.1705         estimate D2E/DX2                !
 ! A151  A(44,47,48)           119.7577         estimate D2E/DX2                !
 ! A152  A(44,47,49)           117.5625         estimate D2E/DX2                !
 ! A153  A(48,47,49)           117.483          estimate D2E/DX2                !
 ! A154  A(45,48,47)           119.9116         estimate D2E/DX2                !
 ! A155  A(45,48,50)           117.5431         estimate D2E/DX2                !
 ! A156  A(47,48,50)           117.4325         estimate D2E/DX2                !
 ! A157  A(10,49,47)           121.1464         estimate D2E/DX2                !
 ! A158  A(10,49,51)           106.8098         estimate D2E/DX2                !
 ! A159  A(47,49,51)           123.467          estimate D2E/DX2                !
 ! A160  A(11,50,48)           121.4037         estimate D2E/DX2                !
 ! A161  A(11,50,52)           107.0141         estimate D2E/DX2                !
 ! A162  A(48,50,52)           123.3109         estimate D2E/DX2                !
 ! A163  A(49,51,52)           118.8286         estimate D2E/DX2                !
 ! A164  A(49,51,55)           111.1845         estimate D2E/DX2                !
 ! A165  A(52,51,55)           123.323          estimate D2E/DX2                !
 ! A166  A(50,52,51)           119.3418         estimate D2E/DX2                !
 ! A167  A(50,52,56)           111.0191         estimate D2E/DX2                !
 ! A168  A(51,52,56)           122.8351         estimate D2E/DX2                !
 ! A169  A(10,53,19)           120.1041         estimate D2E/DX2                !
 ! A170  A(10,53,55)           108.524          estimate D2E/DX2                !
 ! A171  A(19,53,55)           125.8905         estimate D2E/DX2                !
 ! A172  A(11,54,20)           119.7731         estimate D2E/DX2                !
 ! A173  A(11,54,56)           109.0067         estimate D2E/DX2                !
 ! A174  A(20,54,56)           124.7882         estimate D2E/DX2                !
 ! A175  A(51,55,53)           101.3227         estimate D2E/DX2                !
 ! A176  A(51,55,83)           109.8369         estimate D2E/DX2                !
 ! A177  A(51,55,91)           112.9395         estimate D2E/DX2                !
 ! A178  A(53,55,83)           110.5952         estimate D2E/DX2                !
 ! A179  A(53,55,91)           111.8993         estimate D2E/DX2                !
 ! A180  A(83,55,91)           109.9809         estimate D2E/DX2                !
 ! A181  A(52,56,54)           101.5691         estimate D2E/DX2                !
 ! A182  A(52,56,84)           109.8471         estimate D2E/DX2                !
 ! A183  A(52,56,92)           112.6036         estimate D2E/DX2                !
 ! A184  A(54,56,84)           112.296          estimate D2E/DX2                !
 ! A185  A(54,56,92)           111.1491         estimate D2E/DX2                !
 ! A186  A(84,56,92)           109.2415         estimate D2E/DX2                !
 ! A187  A(21,57,59)           109.7657         estimate D2E/DX2                !
 ! A188  A(21,57,83)           125.7826         estimate D2E/DX2                !
 ! A189  A(59,57,83)           120.9889         estimate D2E/DX2                !
 ! A190  A(22,58,60)           107.8729         estimate D2E/DX2                !
 ! A191  A(22,58,84)           123.8801         estimate D2E/DX2                !
 ! A192  A(60,58,84)           121.3021         estimate D2E/DX2                !
 ! A193  A(57,59,60)           120.2222         estimate D2E/DX2                !
 ! A194  A(57,59,61)           113.1219         estimate D2E/DX2                !
 ! A195  A(60,59,61)           121.3046         estimate D2E/DX2                !
 ! A196  A(58,60,59)           119.3811         estimate D2E/DX2                !
 ! A197  A(58,60,62)           111.8961         estimate D2E/DX2                !
 ! A198  A(59,60,62)           122.3286         estimate D2E/DX2                !
 ! A199  A(23,61,59)           100.2746         estimate D2E/DX2                !
 ! A200  A(23,61,63)           111.5515         estimate D2E/DX2                !
 ! A201  A(23,61,89)           112.928          estimate D2E/DX2                !
 ! A202  A(59,61,63)           109.0216         estimate D2E/DX2                !
 ! A203  A(59,61,89)           114.025          estimate D2E/DX2                !
 ! A204  A(63,61,89)           108.8291         estimate D2E/DX2                !
 ! A205  A(24,62,60)           100.4511         estimate D2E/DX2                !
 ! A206  A(24,62,64)           110.5823         estimate D2E/DX2                !
 ! A207  A(24,62,90)           113.8758         estimate D2E/DX2                !
 ! A208  A(60,62,64)           108.8228         estimate D2E/DX2                !
 ! A209  A(60,62,90)           114.0447         estimate D2E/DX2                !
 ! A210  A(64,62,90)           108.7928         estimate D2E/DX2                !
 ! A211  A(61,63,64)           120.6302         estimate D2E/DX2                !
 ! A212  A(61,63,65)           119.2076         estimate D2E/DX2                !
 ! A213  A(64,63,65)           119.8824         estimate D2E/DX2                !
 ! A214  A(62,64,63)           119.8595         estimate D2E/DX2                !
 ! A215  A(62,64,66)           119.9869         estimate D2E/DX2                !
 ! A216  A(63,64,66)           119.9295         estimate D2E/DX2                !
 ! A217  A(27,65,63)           119.0292         estimate D2E/DX2                !
 ! A218  A(27,65,67)           120.3427         estimate D2E/DX2                !
 ! A219  A(63,65,67)           120.2994         estimate D2E/DX2                !
 ! A220  A(28,66,64)           119.7064         estimate D2E/DX2                !
 ! A221  A(28,66,68)           119.8699         estimate D2E/DX2                !
 ! A222  A(64,66,68)           120.1875         estimate D2E/DX2                !
 ! A223  A(65,67,68)           119.8954         estimate D2E/DX2                !
 ! A224  A(65,67,69)           119.4096         estimate D2E/DX2                !
 ! A225  A(68,67,69)           120.4415         estimate D2E/DX2                !
 ! A226  A(66,68,67)           119.7901         estimate D2E/DX2                !
 ! A227  A(66,68,70)           119.6653         estimate D2E/DX2                !
 ! A228  A(67,68,70)           120.313          estimate D2E/DX2                !
 ! A229  A(31,69,67)           108.3546         estimate D2E/DX2                !
 ! A230  A(31,69,71)           101.1007         estimate D2E/DX2                !
 ! A231  A(31,69,86)           114.1381         estimate D2E/DX2                !
 ! A232  A(67,69,71)           110.6053         estimate D2E/DX2                !
 ! A233  A(67,69,86)           108.669          estimate D2E/DX2                !
 ! A234  A(71,69,86)           113.7228         estimate D2E/DX2                !
 ! A235  A(32,70,68)           108.6556         estimate D2E/DX2                !
 ! A236  A(32,70,72)           101.1406         estimate D2E/DX2                !
 ! A237  A(32,70,87)           114.1971         estimate D2E/DX2                !
 ! A238  A(68,70,72)           110.4735         estimate D2E/DX2                !
 ! A239  A(68,70,87)           108.4864         estimate D2E/DX2                !
 ! A240  A(72,70,87)           113.6672         estimate D2E/DX2                !
 ! A241  A(69,71,72)           121.9626         estimate D2E/DX2                !
 ! A242  A(69,71,73)           110.0255         estimate D2E/DX2                !
 ! A243  A(72,71,73)           119.4632         estimate D2E/DX2                !
 ! A244  A(70,72,71)           121.9269         estimate D2E/DX2                !
 ! A245  A(70,72,74)           110.1413         estimate D2E/DX2                !
 ! A246  A(71,72,74)           119.5465         estimate D2E/DX2                !
 ! A247  A(33,73,71)           109.0093         estimate D2E/DX2                !
 ! A248  A(33,73,75)           119.0291         estimate D2E/DX2                !
 ! A249  A(71,73,75)           121.5054         estimate D2E/DX2                !
 ! A250  A(34,74,72)           109.278          estimate D2E/DX2                !
 ! A251  A(34,74,76)           119.1838         estimate D2E/DX2                !
 ! A252  A(72,74,76)           121.3711         estimate D2E/DX2                !
 ! A253  A(73,75,76)           119.0563         estimate D2E/DX2                !
 ! A254  A(73,75,77)           119.7973         estimate D2E/DX2                !
 ! A255  A(76,75,77)           108.6241         estimate D2E/DX2                !
 ! A256  A(74,76,75)           118.9817         estimate D2E/DX2                !
 ! A257  A(74,76,78)           119.8395         estimate D2E/DX2                !
 ! A258  A(75,76,78)           108.5455         estimate D2E/DX2                !
 ! A259  A(37,77,75)           122.0114         estimate D2E/DX2                !
 ! A260  A(37,77,81)           121.4782         estimate D2E/DX2                !
 ! A261  A(75,77,81)           106.2732         estimate D2E/DX2                !
 ! A262  A(38,78,76)           121.9553         estimate D2E/DX2                !
 ! A263  A(38,78,81)           121.4632         estimate D2E/DX2                !
 ! A264  A(76,78,81)           106.2474         estimate D2E/DX2                !
 ! A265  A(39,79,40)           122.068          estimate D2E/DX2                !
 ! A266  A(39,79,82)           120.5922         estimate D2E/DX2                !
 ! A267  A(40,79,82)           106.5891         estimate D2E/DX2                !
 ! A268  A(41,80,42)           121.7743         estimate D2E/DX2                !
 ! A269  A(41,80,82)           106.6655         estimate D2E/DX2                !
 ! A270  A(42,80,82)           120.5951         estimate D2E/DX2                !
 ! A271  A(77,81,78)           109.5087         estimate D2E/DX2                !
 ! A272  A(77,81,82)           119.7967         estimate D2E/DX2                !
 ! A273  A(78,81,82)           119.6633         estimate D2E/DX2                !
 ! A274  A(79,82,80)           109.5775         estimate D2E/DX2                !
 ! A275  A(79,82,81)           119.9523         estimate D2E/DX2                !
 ! A276  A(80,82,81)           120.0937         estimate D2E/DX2                !
 ! A277  A(55,83,57)           117.3026         estimate D2E/DX2                !
 ! A278  A(55,83,84)           121.6058         estimate D2E/DX2                !
 ! A279  A(57,83,84)           119.2081         estimate D2E/DX2                !
 ! A280  A(56,84,58)           116.5687         estimate D2E/DX2                !
 ! A281  A(56,84,83)           122.5778         estimate D2E/DX2                !
 ! A282  A(58,84,83)           118.8519         estimate D2E/DX2                !
 ! D1    D(17,1,5,9)            19.6085         estimate D2E/DX2                !
 ! D2    D(17,1,5,29)         -136.2323         estimate D2E/DX2                !
 ! D3    D(25,1,5,9)           139.0567         estimate D2E/DX2                !
 ! D4    D(25,1,5,29)          -16.7841         estimate D2E/DX2                !
 ! D5    D(94,1,5,9)          -102.6591         estimate D2E/DX2                !
 ! D6    D(94,1,5,29)          101.5001         estimate D2E/DX2                !
 ! D7    D(5,1,17,15)          -26.6048         estimate D2E/DX2                !
 ! D8    D(5,1,17,19)          135.9922         estimate D2E/DX2                !
 ! D9    D(25,1,17,15)        -139.8572         estimate D2E/DX2                !
 ! D10   D(25,1,17,19)          22.7397         estimate D2E/DX2                !
 ! D11   D(94,1,17,15)          96.5959         estimate D2E/DX2                !
 ! D12   D(94,1,17,19)        -100.8072         estimate D2E/DX2                !
 ! D13   D(5,1,25,23)         -141.9348         estimate D2E/DX2                !
 ! D14   D(5,1,25,27)           18.405          estimate D2E/DX2                !
 ! D15   D(17,1,25,23)         -21.3662         estimate D2E/DX2                !
 ! D16   D(17,1,25,27)         138.9736         estimate D2E/DX2                !
 ! D17   D(94,1,25,23)         100.5861         estimate D2E/DX2                !
 ! D18   D(94,1,25,27)         -99.0741         estimate D2E/DX2                !
 ! D19   D(43,2,6,10)         -148.4174         estimate D2E/DX2                !
 ! D20   D(43,2,6,15)           -3.667          estimate D2E/DX2                !
 ! D21   D(44,2,6,10)           -3.3344         estimate D2E/DX2                !
 ! D22   D(44,2,6,15)          141.4161         estimate D2E/DX2                !
 ! D23   D(6,2,43,13)            2.1753         estimate D2E/DX2                !
 ! D24   D(6,2,43,39)          151.569          estimate D2E/DX2                !
 ! D25   D(44,2,43,13)        -142.1161         estimate D2E/DX2                !
 ! D26   D(44,2,43,39)           7.2776         estimate D2E/DX2                !
 ! D27   D(6,2,44,40)         -152.2214         estimate D2E/DX2                !
 ! D28   D(6,2,44,47)            0.6897         estimate D2E/DX2                !
 ! D29   D(43,2,44,40)         -12.6329         estimate D2E/DX2                !
 ! D30   D(43,2,44,47)         140.2782         estimate D2E/DX2                !
 ! D31   D(18,3,7,12)            3.1992         estimate D2E/DX2                !
 ! D32   D(18,3,7,30)          151.6388         estimate D2E/DX2                !
 ! D33   D(26,3,7,12)         -146.2255         estimate D2E/DX2                !
 ! D34   D(26,3,7,30)            2.2141         estimate D2E/DX2                !
 ! D35   D(7,3,18,16)            5.2543         estimate D2E/DX2                !
 ! D36   D(7,3,18,20)         -145.6918         estimate D2E/DX2                !
 ! D37   D(26,3,18,16)         150.5989         estimate D2E/DX2                !
 ! D38   D(26,3,18,20)          -0.3472         estimate D2E/DX2                !
 ! D39   D(7,3,26,24)          148.0811         estimate D2E/DX2                !
 ! D40   D(7,3,26,28)           -2.246          estimate D2E/DX2                !
 ! D41   D(18,3,26,24)          -1.3648         estimate D2E/DX2                !
 ! D42   D(18,3,26,28)        -151.6919         estimate D2E/DX2                !
 ! D43   D(45,4,8,11)            2.5479         estimate D2E/DX2                !
 ! D44   D(45,4,8,16)         -141.5858         estimate D2E/DX2                !
 ! D45   D(46,4,8,11)          147.8576         estimate D2E/DX2                !
 ! D46   D(46,4,8,16)            3.7239         estimate D2E/DX2                !
 ! D47   D(8,4,45,41)          152.6461         estimate D2E/DX2                !
 ! D48   D(8,4,45,48)           -0.4171         estimate D2E/DX2                !
 ! D49   D(46,4,45,41)          12.5379         estimate D2E/DX2                !
 ! D50   D(46,4,45,48)        -140.5252         estimate D2E/DX2                !
 ! D51   D(8,4,46,14)           -3.227          estimate D2E/DX2                !
 ! D52   D(8,4,46,42)         -151.5472         estimate D2E/DX2                !
 ! D53   D(45,4,46,14)         141.5794         estimate D2E/DX2                !
 ! D54   D(45,4,46,42)          -6.7408         estimate D2E/DX2                !
 ! D55   D(1,5,9,13)            -2.8646         estimate D2E/DX2                !
 ! D56   D(1,5,9,35)          -157.0101         estimate D2E/DX2                !
 ! D57   D(29,5,9,13)          150.4526         estimate D2E/DX2                !
 ! D58   D(29,5,9,35)           -3.693          estimate D2E/DX2                !
 ! D59   D(1,5,29,27)           10.0735         estimate D2E/DX2                !
 ! D60   D(1,5,29,31)          164.2082         estimate D2E/DX2                !
 ! D61   D(9,5,29,27)         -146.9641         estimate D2E/DX2                !
 ! D62   D(9,5,29,31)            7.1706         estimate D2E/DX2                !
 ! D63   D(2,6,10,49)            0.3431         estimate D2E/DX2                !
 ! D64   D(2,6,10,53)          143.2586         estimate D2E/DX2                !
 ! D65   D(15,6,10,49)        -140.8828         estimate D2E/DX2                !
 ! D66   D(15,6,10,53)           2.0327         estimate D2E/DX2                !
 ! D67   D(2,6,15,13)            3.7038         estimate D2E/DX2                !
 ! D68   D(2,6,15,17)         -143.8044         estimate D2E/DX2                !
 ! D69   D(10,6,15,13)         148.6279         estimate D2E/DX2                !
 ! D70   D(10,6,15,17)           1.1196         estimate D2E/DX2                !
 ! D71   D(3,7,12,14)           -7.9734         estimate D2E/DX2                !
 ! D72   D(3,7,12,36)          145.4167         estimate D2E/DX2                !
 ! D73   D(30,7,12,14)        -152.1921         estimate D2E/DX2                !
 ! D74   D(30,7,12,36)           1.1981         estimate D2E/DX2                !
 ! D75   D(3,7,30,28)           -1.3983         estimate D2E/DX2                !
 ! D76   D(3,7,30,32)         -152.3925         estimate D2E/DX2                !
 ! D77   D(12,7,30,28)         147.3162         estimate D2E/DX2                !
 ! D78   D(12,7,30,32)          -3.6779         estimate D2E/DX2                !
 ! D79   D(4,8,11,50)            0.3642         estimate D2E/DX2                !
 ! D80   D(4,8,11,54)         -143.1314         estimate D2E/DX2                !
 ! D81   D(16,8,11,50)         140.6525         estimate D2E/DX2                !
 ! D82   D(16,8,11,54)          -2.843          estimate D2E/DX2                !
 ! D83   D(4,8,16,14)           -2.7723         estimate D2E/DX2                !
 ! D84   D(4,8,16,18)          142.814          estimate D2E/DX2                !
 ! D85   D(11,8,16,14)        -146.797          estimate D2E/DX2                !
 ! D86   D(11,8,16,18)          -1.2107         estimate D2E/DX2                !
 ! D87   D(5,9,13,15)           -6.8818         estimate D2E/DX2                !
 ! D88   D(5,9,13,43)         -148.3708         estimate D2E/DX2                !
 ! D89   D(35,9,13,15)         147.6208         estimate D2E/DX2                !
 ! D90   D(35,9,13,43)           6.1318         estimate D2E/DX2                !
 ! D91   D(5,9,35,33)           -4.2987         estimate D2E/DX2                !
 ! D92   D(5,9,35,37)          150.3611         estimate D2E/DX2                !
 ! D93   D(13,9,35,33)        -157.706          estimate D2E/DX2                !
 ! D94   D(13,9,35,37)          -3.0462         estimate D2E/DX2                !
 ! D95   D(6,10,49,47)           5.4211         estimate D2E/DX2                !
 ! D96   D(6,10,49,51)         154.2556         estimate D2E/DX2                !
 ! D97   D(53,10,49,47)       -140.865          estimate D2E/DX2                !
 ! D98   D(53,10,49,51)          7.9695         estimate D2E/DX2                !
 ! D99   D(6,10,53,19)          -4.8586         estimate D2E/DX2                !
 ! D100  D(6,10,53,55)        -160.2162         estimate D2E/DX2                !
 ! D101  D(49,10,53,19)        141.347          estimate D2E/DX2                !
 ! D102  D(49,10,53,55)        -14.0106         estimate D2E/DX2                !
 ! D103  D(8,11,50,48)          -5.5745         estimate D2E/DX2                !
 ! D104  D(8,11,50,52)        -154.8568         estimate D2E/DX2                !
 ! D105  D(54,11,50,48)        141.6393         estimate D2E/DX2                !
 ! D106  D(54,11,50,52)         -7.643          estimate D2E/DX2                !
 ! D107  D(8,11,54,20)           6.2076         estimate D2E/DX2                !
 ! D108  D(8,11,54,56)         159.3677         estimate D2E/DX2                !
 ! D109  D(50,11,54,20)       -140.5395         estimate D2E/DX2                !
 ! D110  D(50,11,54,56)         12.6206         estimate D2E/DX2                !
 ! D111  D(7,12,14,16)           4.5339         estimate D2E/DX2                !
 ! D112  D(7,12,14,46)         148.5288         estimate D2E/DX2                !
 ! D113  D(36,12,14,16)       -148.9399         estimate D2E/DX2                !
 ! D114  D(36,12,14,46)         -4.9451         estimate D2E/DX2                !
 ! D115  D(7,12,36,34)           4.7691         estimate D2E/DX2                !
 ! D116  D(7,12,36,38)        -149.3674         estimate D2E/DX2                !
 ! D117  D(14,12,36,34)        157.0931         estimate D2E/DX2                !
 ! D118  D(14,12,36,38)          2.9566         estimate D2E/DX2                !
 ! D119  D(9,13,15,6)         -148.0379         estimate D2E/DX2                !
 ! D120  D(9,13,15,17)          -2.0101         estimate D2E/DX2                !
 ! D121  D(43,13,15,6)          -2.3035         estimate D2E/DX2                !
 ! D122  D(43,13,15,17)        143.7243         estimate D2E/DX2                !
 ! D123  D(9,13,43,2)          145.7355         estimate D2E/DX2                !
 ! D124  D(9,13,43,39)          -3.6817         estimate D2E/DX2                !
 ! D125  D(15,13,43,2)           0.0736         estimate D2E/DX2                !
 ! D126  D(15,13,43,39)       -149.3436         estimate D2E/DX2                !
 ! D127  D(12,14,16,8)         148.6028         estimate D2E/DX2                !
 ! D128  D(12,14,16,18)          3.9844         estimate D2E/DX2                !
 ! D129  D(46,14,16,8)           0.7305         estimate D2E/DX2                !
 ! D130  D(46,14,16,18)       -143.888          estimate D2E/DX2                !
 ! D131  D(12,14,46,4)        -146.6931         estimate D2E/DX2                !
 ! D132  D(12,14,46,42)          2.0026         estimate D2E/DX2                !
 ! D133  D(16,14,46,4)           1.5663         estimate D2E/DX2                !
 ! D134  D(16,14,46,42)        150.262          estimate D2E/DX2                !
 ! D135  D(6,15,17,1)          161.4688         estimate D2E/DX2                !
 ! D136  D(6,15,17,19)          -1.4893         estimate D2E/DX2                !
 ! D137  D(13,15,17,1)          19.7474         estimate D2E/DX2                !
 ! D138  D(13,15,17,19)       -143.2107         estimate D2E/DX2                !
 ! D139  D(8,16,18,3)         -148.9146         estimate D2E/DX2                !
 ! D140  D(8,16,18,20)           1.8464         estimate D2E/DX2                !
 ! D141  D(14,16,18,3)          -8.7155         estimate D2E/DX2                !
 ! D142  D(14,16,18,20)        142.0455         estimate D2E/DX2                !
 ! D143  D(1,17,19,21)          -1.7344         estimate D2E/DX2                !
 ! D144  D(1,17,19,53)        -163.2933         estimate D2E/DX2                !
 ! D145  D(15,17,19,21)        160.2404         estimate D2E/DX2                !
 ! D146  D(15,17,19,53)         -1.3186         estimate D2E/DX2                !
 ! D147  D(3,18,20,22)           1.2794         estimate D2E/DX2                !
 ! D148  D(3,18,20,54)         151.282          estimate D2E/DX2                !
 ! D149  D(16,18,20,22)       -148.5157         estimate D2E/DX2                !
 ! D150  D(16,18,20,54)          1.4869         estimate D2E/DX2                !
 ! D151  D(17,19,21,23)        -20.8961         estimate D2E/DX2                !
 ! D152  D(17,19,21,57)       -132.3535         estimate D2E/DX2                !
 ! D153  D(17,19,21,93)        103.7995         estimate D2E/DX2                !
 ! D154  D(53,19,21,23)        141.1117         estimate D2E/DX2                !
 ! D155  D(53,19,21,57)         29.6543         estimate D2E/DX2                !
 ! D156  D(53,19,21,93)        -94.1927         estimate D2E/DX2                !
 ! D157  D(17,19,53,10)          4.4663         estimate D2E/DX2                !
 ! D158  D(17,19,53,55)        155.2569         estimate D2E/DX2                !
 ! D159  D(21,19,53,10)       -157.6647         estimate D2E/DX2                !
 ! D160  D(21,19,53,55)         -6.8741         estimate D2E/DX2                !
 ! D161  D(18,20,22,24)         -0.5876         estimate D2E/DX2                !
 ! D162  D(18,20,22,58)        141.2228         estimate D2E/DX2                !
 ! D163  D(54,20,22,24)       -151.511          estimate D2E/DX2                !
 ! D164  D(54,20,22,58)         -9.7007         estimate D2E/DX2                !
 ! D165  D(18,20,54,11)         -5.4536         estimate D2E/DX2                !
 ! D166  D(18,20,54,56)       -154.1356         estimate D2E/DX2                !
 ! D167  D(22,20,54,11)        144.8121         estimate D2E/DX2                !
 ! D168  D(22,20,54,56)         -3.8699         estimate D2E/DX2                !
 ! D169  D(19,21,23,25)         23.3573         estimate D2E/DX2                !
 ! D170  D(19,21,23,61)       -136.9058         estimate D2E/DX2                !
 ! D171  D(57,21,23,25)        141.0149         estimate D2E/DX2                !
 ! D172  D(57,21,23,61)        -19.2482         estimate D2E/DX2                !
 ! D173  D(93,21,23,25)       -100.7465         estimate D2E/DX2                !
 ! D174  D(93,21,23,61)         98.9904         estimate D2E/DX2                !
 ! D175  D(19,21,57,59)        134.5302         estimate D2E/DX2                !
 ! D176  D(19,21,57,83)        -24.4424         estimate D2E/DX2                !
 ! D177  D(23,21,57,59)         16.1852         estimate D2E/DX2                !
 ! D178  D(23,21,57,83)       -142.7874         estimate D2E/DX2                !
 ! D179  D(93,21,57,59)       -102.1527         estimate D2E/DX2                !
 ! D180  D(93,21,57,83)         98.8747         estimate D2E/DX2                !
 ! D181  D(20,22,24,26)         -1.1189         estimate D2E/DX2                !
 ! D182  D(20,22,24,62)        149.0526         estimate D2E/DX2                !
 ! D183  D(58,22,24,26)       -146.9609         estimate D2E/DX2                !
 ! D184  D(58,22,24,62)          3.2106         estimate D2E/DX2                !
 ! D185  D(20,22,58,60)       -147.8983         estimate D2E/DX2                !
 ! D186  D(20,22,58,84)          3.0368         estimate D2E/DX2                !
 ! D187  D(24,22,58,60)         -1.171          estimate D2E/DX2                !
 ! D188  D(24,22,58,84)        149.7641         estimate D2E/DX2                !
 ! D189  D(21,23,25,1)          -1.8291         estimate D2E/DX2                !
 ! D190  D(21,23,25,27)       -160.4154         estimate D2E/DX2                !
 ! D191  D(61,23,25,1)         156.865          estimate D2E/DX2                !
 ! D192  D(61,23,25,27)         -1.7214         estimate D2E/DX2                !
 ! D193  D(21,23,61,59)         14.6844         estimate D2E/DX2                !
 ! D194  D(21,23,61,63)        130.0078         estimate D2E/DX2                !
 ! D195  D(21,23,61,89)       -107.0473         estimate D2E/DX2                !
 ! D196  D(25,23,61,59)       -146.1575         estimate D2E/DX2                !
 ! D197  D(25,23,61,63)        -30.8341         estimate D2E/DX2                !
 ! D198  D(25,23,61,89)         92.1109         estimate D2E/DX2                !
 ! D199  D(22,24,26,3)           2.0807         estimate D2E/DX2                !
 ! D200  D(22,24,26,28)        149.4499         estimate D2E/DX2                !
 ! D201  D(62,24,26,3)        -145.4947         estimate D2E/DX2                !
 ! D202  D(62,24,26,28)          1.8745         estimate D2E/DX2                !
 ! D203  D(22,24,62,60)         -3.7293         estimate D2E/DX2                !
 ! D204  D(22,24,62,64)       -118.5465         estimate D2E/DX2                !
 ! D205  D(22,24,62,90)        118.5972         estimate D2E/DX2                !
 ! D206  D(26,24,62,60)        146.3196         estimate D2E/DX2                !
 ! D207  D(26,24,62,64)         31.5025         estimate D2E/DX2                !
 ! D208  D(26,24,62,90)        -91.3538         estimate D2E/DX2                !
 ! D209  D(1,25,27,29)         -12.9215         estimate D2E/DX2                !
 ! D210  D(1,25,27,65)        -127.9973         estimate D2E/DX2                !
 ! D211  D(1,25,27,85)         109.0083         estimate D2E/DX2                !
 ! D212  D(23,25,27,29)        147.7477         estimate D2E/DX2                !
 ! D213  D(23,25,27,65)         32.6719         estimate D2E/DX2                !
 ! D214  D(23,25,27,85)        -90.3225         estimate D2E/DX2                !
 ! D215  D(3,26,28,30)           1.328          estimate D2E/DX2                !
 ! D216  D(3,26,28,66)         116.0659         estimate D2E/DX2                !
 ! D217  D(3,26,28,88)        -121.452          estimate D2E/DX2                !
 ! D218  D(24,26,28,30)       -148.4017         estimate D2E/DX2                !
 ! D219  D(24,26,28,66)        -33.6637         estimate D2E/DX2                !
 ! D220  D(24,26,28,88)         88.8183         estimate D2E/DX2                !
 ! D221  D(25,27,29,5)           1.5437         estimate D2E/DX2                !
 ! D222  D(25,27,29,31)       -152.2849         estimate D2E/DX2                !
 ! D223  D(65,27,29,5)         118.6696         estimate D2E/DX2                !
 ! D224  D(65,27,29,31)        -35.159          estimate D2E/DX2                !
 ! D225  D(85,27,29,5)        -119.0256         estimate D2E/DX2                !
 ! D226  D(85,27,29,31)         87.1458         estimate D2E/DX2                !
 ! D227  D(25,27,65,63)        -30.109          estimate D2E/DX2                !
 ! D228  D(25,27,65,67)        143.3284         estimate D2E/DX2                !
 ! D229  D(29,27,65,63)       -140.0868         estimate D2E/DX2                !
 ! D230  D(29,27,65,67)         33.3506         estimate D2E/DX2                !
 ! D231  D(85,27,65,63)         94.6282         estimate D2E/DX2                !
 ! D232  D(85,27,65,67)        -91.9344         estimate D2E/DX2                !
 ! D233  D(26,28,30,7)           0.0802         estimate D2E/DX2                !
 ! D234  D(26,28,30,32)        150.2647         estimate D2E/DX2                !
 ! D235  D(66,28,30,7)        -115.7559         estimate D2E/DX2                !
 ! D236  D(66,28,30,32)         34.4286         estimate D2E/DX2                !
 ! D237  D(88,28,30,7)         122.1413         estimate D2E/DX2                !
 ! D238  D(88,28,30,32)        -87.6742         estimate D2E/DX2                !
 ! D239  D(26,28,66,64)         31.6341         estimate D2E/DX2                !
 ! D240  D(26,28,66,68)       -142.794          estimate D2E/DX2                !
 ! D241  D(30,28,66,64)        141.2039         estimate D2E/DX2                !
 ! D242  D(30,28,66,68)        -33.2242         estimate D2E/DX2                !
 ! D243  D(88,28,66,64)        -93.4273         estimate D2E/DX2                !
 ! D244  D(88,28,66,68)         92.1446         estimate D2E/DX2                !
 ! D245  D(5,29,31,33)          -2.3166         estimate D2E/DX2                !
 ! D246  D(5,29,31,69)        -151.2392         estimate D2E/DX2                !
 ! D247  D(27,29,31,33)        149.6638         estimate D2E/DX2                !
 ! D248  D(27,29,31,69)          0.7412         estimate D2E/DX2                !
 ! D249  D(7,30,32,34)          -0.0739         estimate D2E/DX2                !
 ! D250  D(7,30,32,70)         148.1134         estimate D2E/DX2                !
 ! D251  D(28,30,32,34)       -147.9901         estimate D2E/DX2                !
 ! D252  D(28,30,32,70)          0.1971         estimate D2E/DX2                !
 ! D253  D(29,31,33,35)         -6.1451         estimate D2E/DX2                !
 ! D254  D(29,31,33,73)       -155.4893         estimate D2E/DX2                !
 ! D255  D(69,31,33,35)        145.4383         estimate D2E/DX2                !
 ! D256  D(69,31,33,73)         -3.906          estimate D2E/DX2                !
 ! D257  D(29,31,69,67)         34.9211         estimate D2E/DX2                !
 ! D258  D(29,31,69,71)        151.2139         estimate D2E/DX2                !
 ! D259  D(29,31,69,86)        -86.2937         estimate D2E/DX2                !
 ! D260  D(33,31,69,67)       -116.1677         estimate D2E/DX2                !
 ! D261  D(33,31,69,71)          0.125          estimate D2E/DX2                !
 ! D262  D(33,31,69,86)        122.6174         estimate D2E/DX2                !
 ! D263  D(30,32,34,36)          6.5032         estimate D2E/DX2                !
 ! D264  D(30,32,34,74)        155.4348         estimate D2E/DX2                !
 ! D265  D(70,32,34,36)       -144.3506         estimate D2E/DX2                !
 ! D266  D(70,32,34,74)          4.581          estimate D2E/DX2                !
 ! D267  D(30,32,70,68)        -35.1746         estimate D2E/DX2                !
 ! D268  D(30,32,70,72)       -151.4539         estimate D2E/DX2                !
 ! D269  D(30,32,70,87)         86.0643         estimate D2E/DX2                !
 ! D270  D(34,32,70,68)        115.38           estimate D2E/DX2                !
 ! D271  D(34,32,70,72)         -0.8993         estimate D2E/DX2                !
 ! D272  D(34,32,70,87)       -123.3811         estimate D2E/DX2                !
 ! D273  D(31,33,35,9)           9.2388         estimate D2E/DX2                !
 ! D274  D(31,33,35,37)       -145.9801         estimate D2E/DX2                !
 ! D275  D(73,33,35,9)         153.9967         estimate D2E/DX2                !
 ! D276  D(73,33,35,37)         -1.2222         estimate D2E/DX2                !
 ! D277  D(31,33,73,71)          6.271          estimate D2E/DX2                !
 ! D278  D(31,33,73,75)        151.6903         estimate D2E/DX2                !
 ! D279  D(35,33,73,71)       -142.912          estimate D2E/DX2                !
 ! D280  D(35,33,73,75)          2.5073         estimate D2E/DX2                !
 ! D281  D(32,34,36,12)         -8.6698         estimate D2E/DX2                !
 ! D282  D(32,34,36,38)        145.8372         estimate D2E/DX2                !
 ! D283  D(74,34,36,12)       -153.0458         estimate D2E/DX2                !
 ! D284  D(74,34,36,38)          1.4611         estimate D2E/DX2                !
 ! D285  D(32,34,74,72)         -6.5392         estimate D2E/DX2                !
 ! D286  D(32,34,74,76)       -152.3347         estimate D2E/DX2                !
 ! D287  D(36,34,74,72)        142.5097         estimate D2E/DX2                !
 ! D288  D(36,34,74,76)         -3.2859         estimate D2E/DX2                !
 ! D289  D(9,35,37,39)          -2.4355         estimate D2E/DX2                !
 ! D290  D(9,35,37,77)        -155.4848         estimate D2E/DX2                !
 ! D291  D(33,35,37,39)        151.6978         estimate D2E/DX2                !
 ! D292  D(33,35,37,77)         -1.3515         estimate D2E/DX2                !
 ! D293  D(12,36,38,42)          1.8672         estimate D2E/DX2                !
 ! D294  D(12,36,38,78)        155.3187         estimate D2E/DX2                !
 ! D295  D(34,36,38,42)       -151.6881         estimate D2E/DX2                !
 ! D296  D(34,36,38,78)          1.7635         estimate D2E/DX2                !
 ! D297  D(35,37,39,43)          4.909          estimate D2E/DX2                !
 ! D298  D(35,37,39,79)       -146.702          estimate D2E/DX2                !
 ! D299  D(77,37,39,43)        158.2302         estimate D2E/DX2                !
 ! D300  D(77,37,39,79)          6.6192         estimate D2E/DX2                !
[...]
 Alpha virt. eigenvalues --    1.34618   1.34966   1.35458   1.35765   1.36091
 Alpha virt. eigenvalues --    1.36690   1.37045   1.37433   1.37842   1.38372
 Alpha virt. eigenvalues --    1.38810   1.39388   1.40526   1.40770   1.41074
 Alpha virt. eigenvalues --    1.41870   1.42087   1.42330   1.42537   1.43092
 Alpha virt. eigenvalues --    1.44084   1.45024   1.45441   1.45916   1.46192
 Alpha virt. eigenvalues --    1.46465   1.46695   1.47704   1.48034   1.48869
 Alpha virt. eigenvalues --    1.49218   1.50158   1.50895   1.51074   1.51908
 Alpha virt. eigenvalues --    1.52256   1.52874   1.53299   1.53894   1.54247
 Alpha virt. eigenvalues --    1.54543   1.54758   1.55482   1.55855   1.56318
 Alpha virt. eigenvalues --    1.56869   1.57201   1.57850   1.58315   1.58697
 Alpha virt. eigenvalues --    1.58906   1.60020   1.60321   1.60717   1.61059
 Alpha virt. eigenvalues --    1.61218   1.61776   1.62124   1.62458   1.63005
 Alpha virt. eigenvalues --    1.63606   1.63822   1.64150   1.64349   1.64499
 Alpha virt. eigenvalues --    1.64750   1.64988   1.65249   1.65433   1.65627
 Alpha virt. eigenvalues --    1.66015   1.66277   1.66570   1.66939   1.67107
 Alpha virt. eigenvalues --    1.67332   1.67936   1.67990   1.68155   1.68370
 Alpha virt. eigenvalues --    1.68514   1.69137   1.69259   1.69524   1.69607
 Alpha virt. eigenvalues --    1.69826   1.69920   1.70340   1.70408   1.70597
 Alpha virt. eigenvalues --    1.70653   1.70960   1.71377   1.71592   1.71678
 Alpha virt. eigenvalues --    1.71829   1.72076   1.72310   1.72478   1.72912
 Alpha virt. eigenvalues --    1.73247   1.73399   1.73638   1.73956   1.74164
 Alpha virt. eigenvalues --    1.74212   1.74568   1.74829   1.74973   1.75125
 Alpha virt. eigenvalues --    1.75415   1.75468   1.75627   1.76006   1.76313
 Alpha virt. eigenvalues --    1.76750   1.77052   1.77060   1.77580   1.77860
 Alpha virt. eigenvalues --    1.78103   1.78296   1.78672   1.78907   1.79318
 Alpha virt. eigenvalues --    1.79468   1.79780   1.79859   1.80270   1.80658
 Alpha virt. eigenvalues --    1.80717   1.81060   1.81571   1.81739   1.82072
 Alpha virt. eigenvalues --    1.82360   1.82755   1.82868   1.83125   1.83583
 Alpha virt. eigenvalues --    1.83671   1.84013   1.84542   1.84767   1.85190
 Alpha virt. eigenvalues --    1.85317   1.85796   1.86225   1.86396   1.86843
 Alpha virt. eigenvalues --    1.86945   1.87228   1.88329   1.88582   1.88851
 Alpha virt. eigenvalues --    1.89263   1.89553   1.89696   1.90237   1.90393
 Alpha virt. eigenvalues --    1.91024   1.91421   1.91536   1.91878   1.92153
 Alpha virt. eigenvalues --    1.92389   1.93245   1.93335   1.93781   1.93867
 Alpha virt. eigenvalues --    1.94544   1.94615   1.95094   1.95364   1.96010
 Alpha virt. eigenvalues --    1.96263   1.96354   1.96751   1.97099   1.97289
 Alpha virt. eigenvalues --    1.97635   1.97867   1.98022   1.98431   1.98641
 Alpha virt. eigenvalues --    1.99044   1.99197   1.99486   1.99692   2.00271
 Alpha virt. eigenvalues --    2.00573   2.00810   2.00982   2.01142   2.01516
 Alpha virt. eigenvalues --    2.01710   2.01836   2.02161   2.02419   2.02606
 Alpha virt. eigenvalues --    2.02953   2.03235   2.03732   2.03996   2.04103
 Alpha virt. eigenvalues --    2.04659   2.04939   2.05267   2.05666   2.06088
 Alpha virt. eigenvalues --    2.06764   2.07207   2.07422   2.07754   2.08151
 Alpha virt. eigenvalues --    2.08284   2.08699   2.09222   2.09982   2.10136
 Alpha virt. eigenvalues --    2.10559   2.11106   2.11546   2.11843   2.12023
 Alpha virt. eigenvalues --    2.12710   2.13022   2.13347   2.13760   2.14381
 Alpha virt. eigenvalues --    2.14869   2.15285   2.15513   2.16032   2.16482
 Alpha virt. eigenvalues --    2.16736   2.17053   2.17179   2.18030   2.18424
 Alpha virt. eigenvalues --    2.19015   2.19594   2.19708   2.20011   2.20275
 Alpha virt. eigenvalues --    2.20939   2.21028   2.21359   2.21831   2.22334
 Alpha virt. eigenvalues --    2.23049   2.23278   2.23716   2.24200   2.24388
 Alpha virt. eigenvalues --    2.24839   2.24940   2.25442   2.25846   2.25892
 Alpha virt. eigenvalues --    2.26492   2.26650   2.27137   2.28010   2.28103
 Alpha virt. eigenvalues --    2.28362   2.28642   2.29392   2.29591   2.29951
 Alpha virt. eigenvalues --    2.30612   2.30966   2.31561   2.31799   2.31979
 Alpha virt. eigenvalues --    2.33036   2.33663   2.34153   2.34226   2.35133
 Alpha virt. eigenvalues --    2.35521   2.36068   2.36612   2.36807   2.37053
 Alpha virt. eigenvalues --    2.38210   2.38332   2.39073   2.39347   2.39774
 Alpha virt. eigenvalues --    2.40119   2.41157   2.41407   2.41959   2.42024
 Alpha virt. eigenvalues --    2.42333   2.42922   2.43394   2.43774   2.44511
 Alpha virt. eigenvalues --    2.45202   2.45526   2.46130   2.47295   2.47687
 Alpha virt. eigenvalues --    2.47935   2.48301   2.48804   2.49435   2.50074
 Alpha virt. eigenvalues --    2.50764   2.51012   2.51408   2.51813   2.52519
 Alpha virt. eigenvalues --    2.53052   2.53203   2.53645   2.53926   2.54206
 Alpha virt. eigenvalues --    2.54476   2.54648   2.55276   2.55664   2.56009
 Alpha virt. eigenvalues --    2.56244   2.56596   2.56890   2.57277   2.57470
 Alpha virt. eigenvalues --    2.57661   2.57900   2.58257   2.58762   2.58888
 Alpha virt. eigenvalues --    2.59079   2.59816   2.59920   2.60140   2.60636
 Alpha virt. eigenvalues --    2.60701   2.61012   2.61401   2.61653   2.62080
 Alpha virt. eigenvalues --    2.62556   2.63063   2.63690   2.63789   2.64057
 Alpha virt. eigenvalues --    2.64424   2.64850   2.65384   2.65707   2.65951
 Alpha virt. eigenvalues --    2.66161   2.66633   2.66931   2.67337   2.67497
 Alpha virt. eigenvalues --    2.68140   2.68870   2.68925   2.69601   2.69770
 Alpha virt. eigenvalues --    2.70447   2.70776   2.70880   2.71456   2.71578
 Alpha virt. eigenvalues --    2.71859   2.72305   2.72520   2.72906   2.73464
 Alpha virt. eigenvalues --    2.74399   2.74874   2.75008   2.75313   2.75568
 Alpha virt. eigenvalues --    2.76322   2.76547   2.76801   2.77153   2.77372
 Alpha virt. eigenvalues --    2.77529   2.77906   2.78200   2.78682   2.79614
 Alpha virt. eigenvalues --    2.79986   2.80321   2.80451   2.81252   2.81800
 Alpha virt. eigenvalues --    2.82416   2.82618   2.83207   2.83485   2.83789
 Alpha virt. eigenvalues --    2.84211   2.84798   2.85520   2.85877   2.86270
 Alpha virt. eigenvalues --    2.86660   2.86935   2.87902   2.88215   2.88582
 Alpha virt. eigenvalues --    2.89406   2.89528   2.90023   2.90537   2.91042
 Alpha virt. eigenvalues --    2.91748   2.91821   2.92686   2.92884   2.93729
 Alpha virt. eigenvalues --    2.94050   2.94344   2.94979   2.96199   2.96477
 Alpha virt. eigenvalues --    2.97408   2.97612   2.98712   2.99969   3.00434
 Alpha virt. eigenvalues --    3.02146   3.02534   3.03706   3.04652   3.05145
 Alpha virt. eigenvalues --    3.06107   3.08149   3.08642   3.10270   3.11280
 Alpha virt. eigenvalues --    3.12321   3.13323   3.14452   3.17276   3.18011
 Alpha virt. eigenvalues --    3.20520   3.21335   3.22323   3.22956   3.24913
 Alpha virt. eigenvalues --    3.26695   3.27829   3.28764   3.30335   3.32822
 Alpha virt. eigenvalues --    3.33966   3.35548   3.36185   3.39130   3.39662
 Alpha virt. eigenvalues --    3.42532   3.43117   3.45112   3.48331   3.50329
 Alpha virt. eigenvalues --    3.50863   3.53420   3.57508   3.58693   4.00550
 Alpha virt. eigenvalues --    4.00899   4.01022   4.02323   4.03045   4.04067
 Alpha virt. eigenvalues --    4.04708   4.04925   4.05195   4.06790   4.07201
 Alpha virt. eigenvalues --    4.07807   4.08092   4.08459   4.09331   4.09735
 Alpha virt. eigenvalues --    4.10807   4.11177   4.11941   4.12374   4.13579
 Alpha virt. eigenvalues --    4.14645   4.14978   4.16715   4.17420   4.17759
 Alpha virt. eigenvalues --    4.19218   4.19836   4.20202   4.20556   4.21234
 Alpha virt. eigenvalues --    4.22161   4.22558   4.23904   4.24650   4.25584
 Alpha virt. eigenvalues --    4.26132   4.26844   4.27003   4.27488   4.28261
 Alpha virt. eigenvalues --    4.28557   4.28646   4.29353   4.29428   4.31029
 Alpha virt. eigenvalues --    4.33052   4.33154   4.34796   4.35103   4.35989
 Alpha virt. eigenvalues --    4.38394   4.39119   4.40301   4.41427   4.41693
 Alpha virt. eigenvalues --    4.41874   4.43852   4.44775   4.45698   4.46822
 Alpha virt. eigenvalues --    4.48378   4.49250   4.50323   4.51421   4.51479
 Alpha virt. eigenvalues --    4.53997   4.56905   4.58421   4.59099   4.60089
 Alpha virt. eigenvalues --    4.61598   4.63065   4.64490   4.66184   4.67327
 Alpha virt. eigenvalues --    4.69253   4.71520   4.77607   4.79307   4.81233
 Alpha virt. eigenvalues --    4.82936   4.84345   4.88746   4.91473   4.91662
 Alpha virt. eigenvalues --    4.94114   4.98982   5.02830   5.08970   5.09768
 Alpha virt. eigenvalues --    5.16350   5.18091   5.24400
          Condensed to atoms (all electrons):
 Mulliken charges:
               1
     1  C   -0.357313
     2  C   -0.026963
     3  C    0.008736
     4  C   -0.032509
     5  C    0.073895
     6  C   -0.023459
     7  C    0.004913
     8  C   -0.027732
     9  C    0.065015
    10  C    0.029054
    11  C    0.040945
    12  C    0.049411
    13  C   -0.045547
    14  C   -0.027541
    15  C    0.009837
    16  C   -0.021131
    17  C    0.127733
    18  C    0.046364
    19  C    0.153462
    20  C    0.066541
    21  C   -0.375992
    22  C   -0.011835
    23  C    0.182795
    24  C    0.092668
    25  C    0.184368
    26  C    0.086498
    27  C   -0.370085
    28  C   -0.377228
    29  C    0.132805
    30  C    0.087355
    31  C    0.080272
    32  C    0.087911
    33  C    0.009601
    34  C    0.004485
    35  C    0.029627
    36  C    0.030813
    37  C    0.048859
    38  C    0.051989
    39  C    0.055755
    40  C   -0.027660
    41  C   -0.032542
    42  C    0.060981
    43  C   -0.019250
    44  C    0.063342
    45  C    0.068825
    46  C   -0.032222
    47  C    0.037302
    48  C    0.037800
    49  C    0.007843
    50  C    0.003341
    51  C    0.092006
    52  C    0.093488
    53  C    0.074599
    54  C    0.050091
    55  C   -0.383010
    56  C   -0.364784
    57  C    0.104322
    58  C    0.040447
    59  C    0.131997
    60  C    0.083454
    61  C   -0.371753
    62  C   -0.382190
    63  C    0.124989
    64  C    0.128650
    65  C    0.128382
    66  C    0.126849
    67  C    0.129586
    68  C    0.122888
    69  C   -0.375763
    70  C   -0.372438
    71  C    0.094066
    72  C    0.093702
    73  C    0.025166
    74  C    0.027643
    75  C   -0.014826
    76  C   -0.015421
    77  C   -0.018274
    78  C   -0.023963
    79  C   -0.024987
    80  C   -0.030838
    81  C   -0.003318
    82  C   -0.018446
    83  C    0.148568
    84  C    0.121875
    85  Cl   0.027082
    86  Cl   0.017305
    87  Cl   0.016023
    88  Cl   0.023572
    89  Cl   0.027709
    90  Cl   0.024634
    91  Cl   0.011832
    92  Cl  -0.008301
    93  Cl   0.008827
    94  Cl  -0.003572
 Sum of Mulliken charges =  -0.00000
 Mulliken charges with hydrogens summed into heavy atoms:
               1
     1  C   -0.357313
     2  C   -0.026963
     3  C    0.008736
     4  C   -0.032509
     5  C    0.073895
     6  C   -0.023459
     7  C    0.004913
     8  C   -0.027732
     9  C    0.065015
    10  C    0.029054
    11  C    0.040945
    12  C    0.049411
    13  C   -0.045547
    14  C   -0.027541
    15  C    0.009837
    16  C   -0.021131
    17  C    0.127733
    18  C    0.046364
    19  C    0.153462
    20  C    0.066541
    21  C   -0.375992
    22  C   -0.011835
    23  C    0.182795
    24  C    0.092668
    25  C    0.184368
    26  C    0.086498
    27  C   -0.370085
    28  C   -0.377228
    29  C    0.132805
    30  C    0.087355
    31  C    0.080272
    32  C    0.087911
    33  C    0.009601
    34  C    0.004485
    35  C    0.029627
    36  C    0.030813
    37  C    0.048859
    38  C    0.051989
    39  C    0.055755
    40  C   -0.027660
    41  C   -0.032542
    42  C    0.060981
    43  C   -0.019250
    44  C    0.063342
    45  C    0.068825
    46  C   -0.032222
    47  C    0.037302
    48  C    0.037800
    49  C    0.007843
    50  C    0.003341
    51  C    0.092006
    52  C    0.093488
    53  C    0.074599
    54  C    0.050091
    55  C   -0.383010
    56  C   -0.364784
    57  C    0.104322
    58  C    0.040447
    59  C    0.131997
    60  C    0.083454
    61  C   -0.371753
    62  C   -0.382190
    63  C    0.124989
    64  C    0.128650
    65  C    0.128382
    66  C    0.126849
    67  C    0.129586
    68  C    0.122888
    69  C   -0.375763
    70  C   -0.372438
    71  C    0.094066
    72  C    0.093702
    73  C    0.025166
    74  C    0.027643
    75  C   -0.014826
    76  C   -0.015421
    77  C   -0.018274
    78  C   -0.023963
    79  C   -0.024987
    80  C   -0.030838
    81  C   -0.003318
    82  C   -0.018446
    83  C    0.148568
    84  C    0.121875
    85  Cl   0.027082
    86  Cl   0.017305
    87  Cl   0.016023
    88  Cl   0.023572
    89  Cl   0.027709
    90  Cl   0.024634
    91  Cl   0.011832
    92  Cl  -0.008301
    93  Cl   0.008827
    94  Cl  -0.003572
 Electronic spatial extent (au):  <R**2>=          55362.0370
 Charge=             -0.0000 electrons
 Dipole moment (field-independent basis, Debye):
    X=              1.1579    Y=             -7.0353    Z=             -3.6076  Tot=              7.9907
 Quadrupole moment (field-independent basis, Debye-Ang):
   XX=           -609.2871   YY=           -604.3057   ZZ=           -589.9096
   XY=             -1.1807   XZ=             -3.6532   YZ=             -0.5312
 Traceless Quadrupole moment (field-independent basis, Debye-Ang):
   XX=             -8.1196   YY=             -3.1383   ZZ=             11.2579
   XY=             -1.1807   XZ=             -3.6532   YZ=             -0.5312
 Octapole moment (field-independent basis, Debye-Ang**2):
  XXX=             44.0741  YYY=             41.5550  ZZZ=             27.8229  XYY=             14.4044
  XXY=             -1.9130  XXZ=            -36.5269  XZZ=             -6.2277  YZZ=             26.6177
  YYZ=             50.9555  XYZ=            -17.8153
 Hexadecapole moment (field-independent basis, Debye-Ang**3):
 XXXX=         -30442.3623 YYYY=         -26225.0830 ZZZZ=         -22922.0898 XXXY=            -49.5860
 XXXZ=             93.3367 YYYX=            118.1465 YYYZ=             66.1555 ZZZX=              0.8235
 ZZZY=            -23.7346 XXYY=          -9329.8586 XXZZ=          -8804.5080 YYZZ=          -8184.4920
 XXYZ=             94.2579 YYXZ=             70.2056 ZZXY=             38.7843
 N-N= 2.239590461675D+04 E-N=-6.312647608893D+04  KE= 7.759011948269D+03
 No NMR shielding tensors so no spin-rotation constants.
 Leave Link  601 at Mon Jun 27 10:33:41 2022, MaxMem=  1342177280 cpu:              25.0 elap:               1.3
 (Enter /home/mkliu/g16/l9999.exe)
 1\1\GINC-NODE05\FOpt\RB3LYP\6-31G(d,p)\C84Cl10\MKLIU\27-Jun-2022\0\\#P
  opt b3lyp/6-31G(d, p) empiricaldispersion=GD3\\force\\0,1\C,8.2560506
 004,18.6360906217,10.5764291886\C,12.3146639764,20.1704573848,8.951708
 1475\C,8.2946404674,26.8692076392,10.5132467334\C,12.3124670948,25.610
 3337249,8.9408221904\C,7.9786662065,18.9557388331,9.1184046711\C,11.88
 85642354,19.5931989026,10.190185828\C,7.9712852139,26.8198704345,9.098
 7085469\C,11.8801707881,26.1952584376,10.1790764383\C,8.9744234594,19.
 114511447,8.1254108294\C,12.1434469209,20.2403373573,11.3859907235\C,1
 2.1225753679,25.5333675614,11.3812907041\C,8.9715924969,26.6666083757,
 8.1044012526\C,10.3251117343,19.0338782149,8.5719215608\C,10.318665116
 6,26.7338342425,8.5638753809\C,10.6405014734,18.93410632,9.9984942634\
 C,10.6393283913,26.8570257178,9.9738741908\C,9.6726517946,18.958325662
 ,10.9981580436\C,9.6411797932,26.82455467,10.9759673791\C,9.9468583745
 ,19.6187007787,12.2378733232\C,9.9177273115,26.1488978974,12.237592328
 2\C,8.8101135785,20.054090458,13.1375276239\C,8.818256052,25.539630618
 3,12.9104011022\C,7.4966590236,20.165026694,12.3907861912\C,7.51214472
 41,25.5958561051,12.4088075874\C,7.2444492365,19.5207630612,11.2607075
 978\C,7.2491056128,26.265561772,11.229360597\C,6.1436825967,19.9605257
 081,10.3226756625\C,6.1270829152,25.8366373899,10.3087002405\C,6.73256
 77796,19.5729301036,8.9964682303\C,6.6873134046,26.2372787115,8.961441
 2597\C,6.3978613284,20.2371297016,7.8427357676\C,6.3713259927,25.56686
 39306,7.8226296179\C,7.3351923339,20.3382062241,6.7933989117\C,7.32738
 75657,25.4531508965,6.7692360492\C,8.6760875127,19.8724171968,6.931415
 3587\C,8.6681402673,25.9098838411,6.9084299555\C,9.7357907926,20.59828
 74365,6.2350941629\C,9.7332490122,25.1713794378,6.22360685\C,11.078691
 5213,20.5906398635,6.7996503423\C,12.7743278369,22.1792896067,7.721263
 3804\C,12.7772203565,23.5951518606,7.7158423532\C,11.0825356243,25.178
 1743262,6.7960704527\C,11.3416383388,19.775135355,7.944282131\C,12.934
 5924533,21.4350249922,8.9252173239\C,12.9272806494,24.3395167655,8.920
 3087247\C,11.3504828519,25.9969178226,7.9303672233\C,13.1697613836,22.
 1617861922,10.1749762834\C,13.1643510187,23.6120622734,10.1731653504\C
 ,12.8365038146,21.5065023618,11.3885525004\C,12.8253838715,24.26414792
 16,11.3840294014\C,12.4521765469,22.2032725693,12.5670566733\C,12.4497
 978562,23.5658396287,12.5639491062\C,11.1891669413,20.2125075108,12.43
 47061405\C,11.1876047493,25.5552159926,12.432599732\C,11.4747441807,21
 .3722790522,13.3879797641\C,11.4633894994,24.3858119043,13.3756517983\
 C,8.9922585747,21.4853761371,13.5986442186\C,8.9888200487,24.253855193
 6,13.5859570632\C,7.7833152511,22.1855628281,13.4874739009\C,7.7749481
 903,23.5545434114,13.5015029831\C,6.7177764424,21.4028090137,12.777276
 5179\C,6.716557536,24.362805595,12.7906621085\C,6.2246130248,22.184995
 0644,11.5444258436\C,6.2311413338,23.6007186603,11.5439441059\C,5.9268
 074024,21.4843374187,10.3625899948\C,5.935371428,24.3058496694,10.3573
 76392\C,5.6098408408,22.1892634082,9.1762470414\C,5.6132938407,23.6003
 350013,9.1736104168\C,5.4394144699,21.4110174084,7.8546396155\C,5.4314
 982687,24.375700816,7.8471661654\C,5.9425560394,22.2128327164,6.674603
 2431\C,5.9421865111,23.5719737051,6.6721782844\C,7.006315104,21.503847
 395,6.0169565304\C,7.0045314116,24.2824678512,6.0103124692\C,8.0036412
 979,22.1714215025,5.3323922135\C,8.0039278103,23.6090145688,5.32611138
 2\C,9.3721578013,21.7147064839,5.4308025967\C,9.3696798628,24.06073106
 91,5.4233815908\C,11.9175530694,21.7182429816,6.6429094686\C,11.922981
 2278,24.0514578904,6.6355682645\C,10.2065127517,22.8815232442,5.353458
 2758\C,11.452087461,22.883524783,5.9596243884\C,10.2135892096,22.16446
 14976,13.6707707841\C,10.2147287231,23.5787499203,13.6684015304\Cl,4.5
 648805016,19.0852533326,10.6910084536\Cl,3.6779960661,20.9161970053,7.
 6440799965\Cl,3.6621952259,24.8413975497,7.6435201703\Cl,4.5510421284,
 26.6876216918,10.7172988202\Cl,5.2895739901,21.0045380109,13.871102712
 6\Cl,5.2866274753,24.7582339529,13.875964495\Cl,12.2234232296,20.78438
 7779,14.9684966313\Cl,12.2076627133,24.9855239328,14.9707585998\Cl,8.6
 507855041,18.9031486009,14.5841299275\Cl,7.9171154411,16.8329795885,10
 .9189477212\\Version=ES64L-G16RevA.03\State=1-A\HF=-7803.0253576\RMSD=
 4.074e-09\RMSF=2.114e-05\Dipole=2.0062283,1.0403776,-2.1853971\Quadrup
 ole=-4.5358289,2.3963377,2.1394912,-1.2939128,-4.1246022,5.4901229\PG=
 C01 [X(C84Cl10)]\\@


 WE HAVE LEFT UNDONE THOSE THINGS WHICH WE OUGHT TO HAVE DONE,
 AND WE HAVE DONE THOSE THINGS WHICH WE OUGHT NOT TO HAVE DONE.
                   BOOK OF COMMON PRAYER                      
 Job cpu time:       1 days 12 hours  1 minutes  1.2 seconds.
 Elapsed time:       0 days  1 hours 30 minutes 10.1 seconds.
 File lengths (MBytes):  RWF=   1291 Int=      0 D2E=      0 Chk=    162 Scr=      1
 Normal termination of Gaussian 16 at Mon Jun 27 10:33:43 2022.
