 Entering Gaussian System, Link 0=g16
 Input=10_addons_C84_14_Cl22_rank_8.gjf
 Output=10_addons_C84_14_Cl22_rank_8.log
 Initial command:
 /home/mkliu/g16/l1.exe "/data/scratch/Gau-185853.inp" -scrdir="/data/scratch/"
 Entering Link 1 = /home/mkliu/g16/l1.exe PID=    185854.
  
 Copyright (c) 1988,1990,1992,1993,1995,1998,2003,2009,2016,
            Gaussian, Inc.  All Rights Reserved.
  
 This is part of the Gaussian(R) 16 program.  It is based on
 the Gaussian(R) 09 system (copyright 2009, Gaussian, Inc.),
 the Gaussian(R) 03 system (copyright 2003, Gaussian, Inc.),
 the Gaussian(R) 98 system (copyright 1998, Gaussian, Inc.),
 the Gaussian(R) 94 system (copyright 1995, Gaussian, Inc.),
 the Gaussian 92(TM) system (copyright 1992, Gaussian, Inc.),
 the Gaussian 90(TM) system (copyright 1990, Gaussian, Inc.),
 the Gaussian 88(TM) system (copyright 1988, Gaussian, Inc.),
 the Gaussian 86(TM) system (copyright 1986, Carnegie Mellon
 University), and the Gaussian 82(TM) system (copyright 1983,
 Carnegie Mellon University). Gaussian is a federally registered
 trademark of Gaussian, Inc.
  
 This software contains proprietary and confidential information,
 including trade secrets, belonging to Gaussian, Inc.
  
 This software is provided under written license and may be
 used, copied, transmitted, or stored only in accord with that
 written license.
  
 The following legend is applicable only to US Government
 contracts under FAR:
  
                    RESTRICTED RIGHTS LEGEND
  
 Use, reproduction and disclosure by the US Government is
 subject to restrictions as set forth in subparagraphs (a)
 and (c) of the Commercial Computer Software - Restricted
 Rights clause in FAR 52.227-19.
  
 Gaussian, Inc.
 340 Quinnipiac St., Bldg. 40, Wallingford CT 06492
  
  
 ---------------------------------------------------------------
 Warning -- This program may not be used in any manner that
 competes with the business of Gaussian, Inc. or will provide
 assistance to any competitor of Gaussian, Inc.  The licensee
 of this program is prohibited from giving any competitor of
 Gaussian, Inc. access to this program.  By using this program,
 the user acknowledges that Gaussian, Inc. is engaged in the
 business of creating and licensing software in the field of
 computational chemistry and represents and warrants to the
 licensee that it is not a competitor of Gaussian, Inc. and that
 it will not use this program in any manner prohibited above.
 ---------------------------------------------------------------
  

 Cite this work as:
 Gaussian 16, Revision A.03,
 M. J. Frisch, G. W. Trucks, H. B. Schlegel, G. E. Scuseria, 
 M. A. Robb, J. R. Cheeseman, G. Scalmani, V. Barone, 
 G. A. Petersson, H. Nakatsuji, X. Li, M. Caricato, A. V. Marenich, 
 J. Bloino, B. G. Janesko, R. Gomperts, B. Mennucci, H. P. Hratchian, 
 J. V. Ortiz, A. F. Izmaylov, J. L. Sonnenberg, D. Williams-Young, 
 F. Ding, F. Lipparini, F. Egidi, J. Goings, B. Peng, A. Petrone, 
 T. Henderson, D. Ranasinghe, V. G. Zakrzewski, J. Gao, N. Rega, 
 G. Zheng, W. Liang, M. Hada, M. Ehara, K. Toyota, R. Fukuda, 
 J. Hasegawa, M. Ishida, T. Nakajima, Y. Honda, O. Kitao, H. Nakai, 
 T. Vreven, K. Throssell, J. A. Montgomery, Jr., J. E. Peralta, 
 F. Ogliaro, M. J. Bearpark, J. J. Heyd, E. N. Brothers, K. N. Kudin, 
 V. N. Staroverov, T. A. Keith, R. Kobayashi, J. Normand, 
 K. Raghavachari, A. P. Rendell, J. C. Burant, S. S. Iyengar, 
 J. Tomasi, M. Cossi, J. M. Millam, M. Klene, C. Adamo, R. Cammi, 
 J. W. Ochterski, R. L. Martin, K. Morokuma, O. Farkas, 
 J. B. Foresman, and D. J. Fox, Gaussian, Inc., Wallingford CT, 2016.
 
 ******************************************
 Gaussian 16:  ES64L-G16RevA.03 25-Dec-2016
                30-Jun-2022 
 ******************************************
 %mem=10GB
 %chk=10_addons_C84_14_Cl22_rank_8.chk
 %nprocshared=24
 Will use up to   24 processors via shared memory.
 ------------------------------------------------
 #P opt b3lyp/6-31G(d, p) empiricaldispersion=GD3
 ------------------------------------------------
 1/18=20,19=15,26=3,38=1/1,3;
 2/9=110,12=2,17=6,18=5,40=1/2;
 3/5=1,6=6,7=101,11=2,25=1,30=1,71=1,74=-5,124=31/1,2,3;
 4//1;
 5/5=2,38=5/2;
 6/7=2,8=2,9=2,10=2,28=1/1;
 7//1,2,3,16;
 1/18=20,19=15,26=3/3(2);
 2/9=110/2;
 99//99;
 2/9=110/2;
 3/5=1,6=6,7=101,11=2,25=1,30=1,71=1,74=-5,124=31/1,2,3;
 4/5=5,16=3,69=1/1;
 5/5=2,38=5/2;
 7//1,2,3,16;
 1/18=20,19=15,26=3/3(-5);
 2/9=110/2;
 6/7=2,8=2,9=2,10=2,19=2,28=1/1;
 99/9=1/99;
 Leave Link    1 at Thu Jun 30 05:06:29 2022, MaxMem=  1342177280 cpu:               0.7 elap:               0.1
 (Enter /home/mkliu/g16/l101.exe)
 -----
 force
 -----
 Symbolic Z-matrix:
 Charge =  0 Multiplicity = 1
 C                     8.2842    18.92322   10.54064 
 C                     12.48886   20.00433   8.90448 
 C                     8.2811    26.82692   10.54203 
 C                     12.4866   25.74963   8.9055 
 C                     7.96539   18.97123   9.15826 
 C                     11.88462   19.56172   10.20598 
 C                     7.96233   26.77914   9.15964 
 C                     11.88203   26.19132   10.20714 
 C                     8.96224   19.13989   8.16913 
 C                     12.13715   20.21931   11.37093 
 C                     12.13507   25.53352   11.37186 
 C                     8.95932   26.61159   8.17045 
 C                     10.29308   19.08531   8.62425 
 C                     10.29011   26.66705   8.62558 
 C                     10.61656   18.95888   9.99816 
 C                     10.61349   26.79325   9.99954 
 C                     9.61402   18.97171   11.00192 
 C                     9.61096   26.77929   11.00329 
 C                     9.88676   19.64358   12.24031 
 C                     9.88423   26.1072   12.24145 
 C                     8.80733   20.25929   12.91618 
 C                     8.80528   25.49041   12.9171 
 C                     7.4764    20.19702   12.41137 
 C                     7.47431   25.55182   12.41232 
 C                     7.21486   19.52922   11.26371 
 C                     7.21224   26.21982   11.26488 
 C                     6.10893   19.95482   10.3424 
 C                     6.10664   25.79368   10.34343 
 C                     6.68043   19.55758   9.01506 
 C                     6.67784   26.19183   9.01623 
 C                     6.37833   20.22437   7.87879 
 C                     6.37626   25.5252   7.87973 
 C                     7.33928   20.33179   6.83279 
 C                     7.33729   25.4189   6.83369 
 C                     8.67133   19.88253   6.98413 
 C                     8.66899   25.86914   6.98518 
 C                     9.73098   20.60451   6.32235 
 C                     9.72921   25.14823   6.32314 
 C                     11.06779   20.57054   6.86224 
 C                     12.71449   22.17146   7.78117 
 C                     12.71395   23.58308   7.78142 
 C                     11.06598   25.18304   6.86306 
 C                     11.32941   19.79607   7.9539 
 C                     12.88792   21.45876   8.93825 
 C                     12.88683   24.29552   8.93875 
 C                     11.327    25.95732   7.95498 
 C                     13.11444   22.15584   10.16289 
 C                     13.11388   23.59818   10.16315 
 C                     12.846    21.4805   11.37784 
 C                     12.84491   24.27289   11.37833 
 C                     12.38998   22.18318   12.51149 
 C                     12.38944   23.56946   12.51173 
 C                     11.15026   20.24509   12.42177 
 C                     11.1482   25.50662   12.42269 
 C                     11.30696   21.45996   13.13086 
 C                     11.30586   24.29162   13.13135 
 C                     8.96439   21.4854   13.61266 
 C                     8.96331   24.26418   13.61315 
 C                     7.73013   22.19838   13.54419 
 C                     7.7296    23.55026   13.54443 
 C                     6.68657   21.41111   12.80665 
 C                     6.68543   24.33697   12.80716 
 C                     6.24688   22.17296   11.55754 
 C                     6.24633   23.57522   11.55778 
 C                     5.95747   21.4749   10.37777 
 C                     5.95638   24.27347   10.37826 
 C                     5.65229   22.17357   9.1989 
 C                     5.65174   23.57497   9.19915 
 C                     5.44488   21.40357   7.89282 
 C                     5.44372   24.34527   7.89333 
 C                     5.95893   22.19677   6.72564 
 C                     5.9584    23.55288   6.72588 
 C                     7.02243   21.48898   6.08018 
 C                     7.02135   24.26173   6.08067 
 C                     8.04478   22.15867   5.42079 
 C                     8.04422   23.59307   5.42105 
 C                     9.38059   21.69916   5.5208 
 C                     9.37968   24.05358   5.52121 
 C                     12.08894   21.63044   6.5215 
 C                     12.08797   24.12406   6.52193 
 C                     10.23343   22.87671   5.47218 
 C                     11.48142   22.87711   5.96422 
 C                     10.20699   22.15323   13.68221 
 C                     10.20643   23.5973   13.68246 
 Cl                    4.52232   19.20064   10.71888 
 Cl                    3.70578   20.9676   7.75625 
 Cl                    3.70429   24.77992   7.75692 
 Cl                    4.51946   26.54649   10.72017 
 Cl                    5.22786   21.0398   13.7916 
 Cl                    5.22642   24.7068   13.79225 
 Cl                    13.34673   20.93097   5.40641 
 Cl                    13.9123   18.98685   8.44396 
 Cl                    13.90926   26.76843   8.44533 
 Cl                    13.34519   24.82491   5.40708 
 
 ITRead=  0  0  0  0  0  0  0  0  0  0  0  0  0  0  0  0  0  0  0  0
 ITRead=  0  0  0  0  0  0  0  0  0  0  0  0  0  0  0  0  0  0  0  0
 ITRead=  0  0  0  0  0  0  0  0  0  0  0  0  0  0  0  0  0  0  0  0
 ITRead=  0  0  0  0  0  0  0  0  0  0  0  0  0  0  0  0  0  0  0  0
 ITRead=  0  0  0  0  0  0  0  0  0  0  0  0  0  0
 MicOpt= -1 -1 -1 -1 -1 -1 -1 -1 -1 -1 -1 -1 -1 -1 -1 -1 -1 -1 -1 -1
 MicOpt= -1 -1 -1 -1 -1 -1 -1 -1 -1 -1 -1 -1 -1 -1 -1 -1 -1 -1 -1 -1
 MicOpt= -1 -1 -1 -1 -1 -1 -1 -1 -1 -1 -1 -1 -1 -1 -1 -1 -1 -1 -1 -1
 MicOpt= -1 -1 -1 -1 -1 -1 -1 -1 -1 -1 -1 -1 -1 -1 -1 -1 -1 -1 -1 -1
 MicOpt= -1 -1 -1 -1 -1 -1 -1 -1 -1 -1 -1 -1 -1 -1
 NAtoms=     94 NQM=       94 NQMF=       0 NMMI=      0 NMMIF=      0
                NMic=       0 NMicF=      0.
                    Isotopes and Nuclear Properties:
 (Nuclear quadrupole moments (NQMom) in fm**2, nuclear magnetic moments (NMagM)
  in nuclear magnetons)

  Atom         1           2           3           4           5           6           7           8           9          10
 IAtWgt=          12          12          12          12          12          12          12          12          12          12
 AtmWgt=  12.0000000  12.0000000  12.0000000  12.0000000  12.0000000  12.0000000  12.0000000  12.0000000  12.0000000  12.0000000
 NucSpn=           0           0           0           0           0           0           0           0           0           0
 AtZEff=  -0.0000000  -0.0000000  -0.0000000  -0.0000000  -0.0000000  -0.0000000  -0.0000000  -0.0000000  -0.0000000  -0.0000000
 NQMom=    0.0000000   0.0000000   0.0000000   0.0000000   0.0000000   0.0000000   0.0000000   0.0000000   0.0000000   0.0000000
 NMagM=    0.0000000   0.0000000   0.0000000   0.0000000   0.0000000   0.0000000   0.0000000   0.0000000   0.0000000   0.0000000
 AtZNuc=   6.0000000   6.0000000   6.0000000   6.0000000   6.0000000   6.0000000   6.0000000   6.0000000   6.0000000   6.0000000

  Atom        11          12          13          14          15          16          17          18          19          20
 IAtWgt=          12          12          12          12          12          12          12          12          12          12
 AtmWgt=  12.0000000  12.0000000  12.0000000  12.0000000  12.0000000  12.0000000  12.0000000  12.0000000  12.0000000  12.0000000
 NucSpn=           0           0           0           0           0           0           0           0           0           0
 AtZEff=  -0.0000000  -0.0000000  -0.0000000  -0.0000000  -0.0000000  -0.0000000  -0.0000000  -0.0000000  -0.0000000  -0.0000000
 NQMom=    0.0000000   0.0000000   0.0000000   0.0000000   0.0000000   0.0000000   0.0000000   0.0000000   0.0000000   0.0000000
 NMagM=    0.0000000   0.0000000   0.0000000   0.0000000   0.0000000   0.0000000   0.0000000   0.0000000   0.0000000   0.0000000
 AtZNuc=   6.0000000   6.0000000   6.0000000   6.0000000   6.0000000   6.0000000   6.0000000   6.0000000   6.0000000   6.0000000

  Atom        21          22          23          24          25          26          27          28          29          30
 IAtWgt=          12          12          12          12          12          12          12          12          12          12
 AtmWgt=  12.0000000  12.0000000  12.0000000  12.0000000  12.0000000  12.0000000  12.0000000  12.0000000  12.0000000  12.0000000
 NucSpn=           0           0           0           0           0           0           0           0           0           0
 AtZEff=  -0.0000000  -0.0000000  -0.0000000  -0.0000000  -0.0000000  -0.0000000  -0.0000000  -0.0000000  -0.0000000  -0.0000000
 NQMom=    0.0000000   0.0000000   0.0000000   0.0000000   0.0000000   0.0000000   0.0000000   0.0000000   0.0000000   0.0000000
 NMagM=    0.0000000   0.0000000   0.0000000   0.0000000   0.0000000   0.0000000   0.0000000   0.0000000   0.0000000   0.0000000
 AtZNuc=   6.0000000   6.0000000   6.0000000   6.0000000   6.0000000   6.0000000   6.0000000   6.0000000   6.0000000   6.0000000

  Atom        31          32          33          34          35          36          37          38          39          40
 IAtWgt=          12          12          12          12          12          12          12          12          12          12
 AtmWgt=  12.0000000  12.0000000  12.0000000  12.0000000  12.0000000  12.0000000  12.0000000  12.0000000  12.0000000  12.0000000
 NucSpn=           0           0           0           0           0           0           0           0           0           0
 AtZEff=  -0.0000000  -0.0000000  -0.0000000  -0.0000000  -0.0000000  -0.0000000  -0.0000000  -0.0000000  -0.0000000  -0.0000000
 NQMom=    0.0000000   0.0000000   0.0000000   0.0000000   0.0000000   0.0000000   0.0000000   0.0000000   0.0000000   0.0000000
 NMagM=    0.0000000   0.0000000   0.0000000   0.0000000   0.0000000   0.0000000   0.0000000   0.0000000   0.0000000   0.0000000
 AtZNuc=   6.0000000   6.0000000   6.0000000   6.0000000   6.0000000   6.0000000   6.0000000   6.0000000   6.0000000   6.0000000

  Atom        41          42          43          44          45          46          47          48          49          50
 IAtWgt=          12          12          12          12          12          12          12          12          12          12
 AtmWgt=  12.0000000  12.0000000  12.0000000  12.0000000  12.0000000  12.0000000  12.0000000  12.0000000  12.0000000  12.0000000
 NucSpn=           0           0           0           0           0           0           0           0           0           0
 AtZEff=  -0.0000000  -0.0000000  -0.0000000  -0.0000000  -0.0000000  -0.0000000  -0.0000000  -0.0000000  -0.0000000  -0.0000000
 NQMom=    0.0000000   0.0000000   0.0000000   0.0000000   0.0000000   0.0000000   0.0000000   0.0000000   0.0000000   0.0000000
 NMagM=    0.0000000   0.0000000   0.0000000   0.0000000   0.0000000   0.0000000   0.0000000   0.0000000   0.0000000   0.0000000
 AtZNuc=   6.0000000   6.0000000   6.0000000   6.0000000   6.0000000   6.0000000   6.0000000   6.0000000   6.0000000   6.0000000

  Atom        51          52          53          54          55          56          57          58          59          60
 IAtWgt=          12          12          12          12          12          12          12          12          12          12
 AtmWgt=  12.0000000  12.0000000  12.0000000  12.0000000  12.0000000  12.0000000  12.0000000  12.0000000  12.0000000  12.0000000
 NucSpn=           0           0           0           0           0           0           0           0           0           0
 AtZEff=  -0.0000000  -0.0000000  -0.0000000  -0.0000000  -0.0000000  -0.0000000  -0.0000000  -0.0000000  -0.0000000  -0.0000000
 NQMom=    0.0000000   0.0000000   0.0000000   0.0000000   0.0000000   0.0000000   0.0000000   0.0000000   0.0000000   0.0000000
 NMagM=    0.0000000   0.0000000   0.0000000   0.0000000   0.0000000   0.0000000   0.0000000   0.0000000   0.0000000   0.0000000
 AtZNuc=   6.0000000   6.0000000   6.0000000   6.0000000   6.0000000   6.0000000   6.0000000   6.0000000   6.0000000   6.0000000

  Atom        61          62          63          64          65          66          67          68          69          70
 IAtWgt=          12          12          12          12          12          12          12          12          12          12
 AtmWgt=  12.0000000  12.0000000  12.0000000  12.0000000  12.0000000  12.0000000  12.0000000  12.0000000  12.0000000  12.0000000
 NucSpn=           0           0           0           0           0           0           0           0           0           0
 AtZEff=  -0.0000000  -0.0000000  -0.0000000  -0.0000000  -0.0000000  -0.0000000  -0.0000000  -0.0000000  -0.0000000  -0.0000000
 NQMom=    0.0000000   0.0000000   0.0000000   0.0000000   0.0000000   0.0000000   0.0000000   0.0000000   0.0000000   0.0000000
 NMagM=    0.0000000   0.0000000   0.0000000   0.0000000   0.0000000   0.0000000   0.0000000   0.0000000   0.0000000   0.0000000
 AtZNuc=   6.0000000   6.0000000   6.0000000   6.0000000   6.0000000   6.0000000   6.0000000   6.0000000   6.0000000   6.0000000

  Atom        71          72          73          74          75          76          77          78          79          80
 IAtWgt=          12          12          12          12          12          12          12          12          12          12
 AtmWgt=  12.0000000  12.0000000  12.0000000  12.0000000  12.0000000  12.0000000  12.0000000  12.0000000  12.0000000  12.0000000
 NucSpn=           0           0           0           0           0           0           0           0           0           0
 AtZEff=  -0.0000000  -0.0000000  -0.0000000  -0.0000000  -0.0000000  -0.0000000  -0.0000000  -0.0000000  -0.0000000  -0.0000000
 NQMom=    0.0000000   0.0000000   0.0000000   0.0000000   0.0000000   0.0000000   0.0000000   0.0000000   0.0000000   0.0000000
 NMagM=    0.0000000   0.0000000   0.0000000   0.0000000   0.0000000   0.0000000   0.0000000   0.0000000   0.0000000   0.0000000
 AtZNuc=   6.0000000   6.0000000   6.0000000   6.0000000   6.0000000   6.0000000   6.0000000   6.0000000   6.0000000   6.0000000

  Atom        81          82          83          84          85          86          87          88          89          90
 IAtWgt=          12          12          12          12          35          35          35          35          35          35
 AtmWgt=  12.0000000  12.0000000  12.0000000  12.0000000  34.9688527  34.9688527  34.9688527  34.9688527  34.9688527  34.9688527
 NucSpn=           0           0           0           0           3           3           3           3           3           3
 AtZEff=  -0.0000000  -0.0000000  -0.0000000  -0.0000000  -0.0000000  -0.0000000  -0.0000000  -0.0000000  -0.0000000  -0.0000000
 NQMom=    0.0000000   0.0000000   0.0000000   0.0000000  -8.1650000  -8.1650000  -8.1650000  -8.1650000  -8.1650000  -8.1650000
 NMagM=    0.0000000   0.0000000   0.0000000   0.0000000   0.8218740   0.8218740   0.8218740   0.8218740   0.8218740   0.8218740
 AtZNuc=   6.0000000   6.0000000   6.0000000   6.0000000  17.0000000  17.0000000  17.0000000  17.0000000  17.0000000  17.0000000

  Atom        91          92          93          94
 IAtWgt=          35          35          35          35
 AtmWgt=  34.9688527  34.9688527  34.9688527  34.9688527
 NucSpn=           3           3           3           3
 AtZEff=  -0.0000000  -0.0000000  -0.0000000  -0.0000000
 NQMom=   -8.1650000  -8.1650000  -8.1650000  -8.1650000
 NMagM=    0.8218740   0.8218740   0.8218740   0.8218740
 AtZNuc=  17.0000000  17.0000000  17.0000000  17.0000000
 Leave Link  101 at Thu Jun 30 05:06:29 2022, MaxMem=  1342177280 cpu:               6.6 elap:               0.3
 (Enter /home/mkliu/g16/l103.exe)

 GradGradGradGradGradGradGradGradGradGradGradGradGradGradGradGradGradGrad
 Berny optimization.
 Initialization pass.
                           ----------------------------
                           !    Initial Parameters    !
                           ! (Angstroms and Degrees)  !
 --------------------------                            --------------------------
 ! Name  Definition              Value          Derivative Info.                !
 --------------------------------------------------------------------------------
 ! R1    R(1,5)                  1.4195         estimate D2E/DX2                !
 ! R2    R(1,17)                 1.4084         estimate D2E/DX2                !
 ! R3    R(1,25)                 1.426          estimate D2E/DX2                !
 ! R4    R(2,6)                  1.5016         estimate D2E/DX2                !
 ! R5    R(2,43)                 1.5137         estimate D2E/DX2                !
 ! R6    R(2,44)                 1.5086         estimate D2E/DX2                !
 ! R7    R(2,92)                 1.8093         estimate D2E/DX2                !
 ! R8    R(3,7)                  1.4195         estimate D2E/DX2                !
 ! R9    R(3,18)                 1.4084         estimate D2E/DX2                !
 ! R10   R(3,26)                 1.426          estimate D2E/DX2                !
 ! R11   R(4,8)                  1.5016         estimate D2E/DX2                !
 ! R12   R(4,45)                 1.5086         estimate D2E/DX2                !
 ! R13   R(4,46)                 1.5137         estimate D2E/DX2                !
 ! R14   R(4,93)                 1.8093         estimate D2E/DX2                !
 ! R15   R(5,9)                  1.4144         estimate D2E/DX2                !
 ! R16   R(5,29)                 1.4197         estimate D2E/DX2                !
 ! R17   R(6,10)                 1.3614         estimate D2E/DX2                !
 ! R18   R(6,15)                 1.4194         estimate D2E/DX2                !
 ! R19   R(7,12)                 1.4144         estimate D2E/DX2                !
 ! R20   R(7,30)                 1.4197         estimate D2E/DX2                !
 ! R21   R(8,11)                 1.3614         estimate D2E/DX2                !
 ! R22   R(8,16)                 1.4194         estimate D2E/DX2                !
 ! R23   R(9,13)                 1.4076         estimate D2E/DX2                !
 ! R24   R(9,35)                 1.4284         estimate D2E/DX2                !
 ! R25   R(10,49)                1.4468         estimate D2E/DX2                !
 ! R26   R(10,53)                1.4418         estimate D2E/DX2                !
 ! R27   R(11,50)                1.4468         estimate D2E/DX2                !
 ! R28   R(11,54)                1.4418         estimate D2E/DX2                !
 ! R29   R(12,14)                1.4076         estimate D2E/DX2                !
 ! R30   R(12,36)                1.4284         estimate D2E/DX2                !
 ! R31   R(13,15)                1.4171         estimate D2E/DX2                !
 ! R32   R(13,43)                1.4243         estimate D2E/DX2                !
 ! R33   R(14,16)                1.4171         estimate D2E/DX2                !
 ! R34   R(14,46)                1.4243         estimate D2E/DX2                !
 ! R35   R(15,17)                1.4187         estimate D2E/DX2                !
 ! R36   R(16,18)                1.4187         estimate D2E/DX2                !
 ! R37   R(17,19)                1.4351         estimate D2E/DX2                !
 ! R38   R(18,20)                1.4351         estimate D2E/DX2                !
 ! R39   R(19,21)                1.4146         estimate D2E/DX2                !
 ! R40   R(19,53)                1.4111         estimate D2E/DX2                !
 ! R41   R(20,22)                1.4146         estimate D2E/DX2                !
 ! R42   R(20,54)                1.4111         estimate D2E/DX2                !
 ! R43   R(21,23)                1.4248         estimate D2E/DX2                !
 ! R44   R(21,57)                1.4188         estimate D2E/DX2                !
 ! R45   R(22,24)                1.4248         estimate D2E/DX2                !
 ! R46   R(22,58)                1.4188         estimate D2E/DX2                !
 ! R47   R(23,25)                1.3533         estimate D2E/DX2                !
 ! R48   R(23,61)                1.5014         estimate D2E/DX2                !
 ! R49   R(24,26)                1.3533         estimate D2E/DX2                !
 ! R50   R(24,62)                1.5014         estimate D2E/DX2                !
 ! R51   R(25,27)                1.501          estimate D2E/DX2                !
 ! R52   R(26,28)                1.501          estimate D2E/DX2                !
 ! R53   R(27,29)                1.4987         estimate D2E/DX2                !
 ! R54   R(27,65)                1.528          estimate D2E/DX2                !
 ! R55   R(27,85)                1.7966         estimate D2E/DX2                !
 ! R56   R(28,30)                1.4987         estimate D2E/DX2                !
 ! R57   R(28,66)                1.528          estimate D2E/DX2                !
 ! R58   R(28,88)                1.7966         estimate D2E/DX2                !
 ! R59   R(29,31)                1.3517         estimate D2E/DX2                !
 ! R60   R(30,32)                1.3517         estimate D2E/DX2                !
 ! R61   R(31,33)                1.4245         estimate D2E/DX2                !
 ! R62   R(31,69)                1.504          estimate D2E/DX2                !
 ! R63   R(32,34)                1.4245         estimate D2E/DX2                !
 ! R64   R(32,70)                1.504          estimate D2E/DX2                !
 ! R65   R(33,35)                1.4139         estimate D2E/DX2                !
 ! R66   R(33,73)                1.4163         estimate D2E/DX2                !
 ! R67   R(34,36)                1.4139         estimate D2E/DX2                !
 ! R68   R(34,74)                1.4163         estimate D2E/DX2                !
 ! R69   R(35,37)                1.4429         estimate D2E/DX2                !
 ! R70   R(36,38)                1.4429         estimate D2E/DX2                !
 ! R71   R(37,39)                1.4421         estimate D2E/DX2                !
 ! R72   R(37,77)                1.4013         estimate D2E/DX2                !
 ! R73   R(38,42)                1.4421         estimate D2E/DX2                !
 ! R74   R(38,78)                1.4013         estimate D2E/DX2                !
 ! R75   R(39,43)                1.3638         estimate D2E/DX2                !
 ! R76   R(39,79)                1.5107         estimate D2E/DX2                !
 ! R77   R(40,41)                1.4116         estimate D2E/DX2                !
 ! R78   R(40,44)                1.37           estimate D2E/DX2                !
 ! R79   R(40,79)                1.5069         estimate D2E/DX2                !
 ! R80   R(41,45)                1.37           estimate D2E/DX2                !
 ! R81   R(41,80)                1.5069         estimate D2E/DX2                !
 ! R82   R(42,46)                1.3638         estimate D2E/DX2                !
 ! R83   R(42,80)                1.5107         estimate D2E/DX2                !
 ! R84   R(44,47)                1.4272         estimate D2E/DX2                !
 ! R85   R(45,48)                1.4272         estimate D2E/DX2                !
 ! R86   R(47,48)                1.4423         estimate D2E/DX2                !
 ! R87   R(47,49)                1.4157         estimate D2E/DX2                !
 ! R88   R(48,50)                1.4157         estimate D2E/DX2                !
 ! R89   R(49,51)                1.4096         estimate D2E/DX2                !
 ! R90   R(50,52)                1.4096         estimate D2E/DX2                !
 ! R91   R(51,52)                1.3863         estimate D2E/DX2                !
 ! R92   R(51,55)                1.4421         estimate D2E/DX2                !
 ! R93   R(52,56)                1.4421         estimate D2E/DX2                !
 ! R94   R(53,55)                1.4154         estimate D2E/DX2                !
 ! R95   R(54,56)                1.4154         estimate D2E/DX2                !
 ! R96   R(55,83)                1.4123         estimate D2E/DX2                !
 ! R97   R(56,84)                1.4123         estimate D2E/DX2                !
 ! R98   R(57,59)                1.427          estimate D2E/DX2                !
 ! R99   R(57,83)                1.4124         estimate D2E/DX2                !
 ! R100  R(58,60)                1.427          estimate D2E/DX2                !
 ! R101  R(58,84)                1.4124         estimate D2E/DX2                !
 ! R102  R(59,60)                1.3519         estimate D2E/DX2                !
 ! R103  R(59,61)                1.5009         estimate D2E/DX2                !
 ! R104  R(60,62)                1.5009         estimate D2E/DX2                !
 ! R105  R(61,63)                1.5278         estimate D2E/DX2                !
 ! R106  R(61,89)                1.7988         estimate D2E/DX2                !
 ! R107  R(62,64)                1.5277         estimate D2E/DX2                !
 ! R108  R(62,90)                1.7988         estimate D2E/DX2                !
 ! R109  R(63,64)                1.4023         estimate D2E/DX2                !
 ! R110  R(63,65)                1.401          estimate D2E/DX2                !
 ! R111  R(64,66)                1.401          estimate D2E/DX2                !
 ! R112  R(65,67)                1.4039         estimate D2E/DX2                !
 ! R113  R(66,68)                1.4039         estimate D2E/DX2                !
 ! R114  R(67,68)                1.4014         estimate D2E/DX2                !
 ! R115  R(67,69)                1.5303         estimate D2E/DX2                !
 ! R116  R(68,70)                1.5303         estimate D2E/DX2                !
 ! R117  R(69,71)                1.5019         estimate D2E/DX2                !
 ! R118  R(69,86)                1.7981         estimate D2E/DX2                !
 ! R119  R(70,72)                1.5019         estimate D2E/DX2                !
 ! R120  R(70,87)                1.7981         estimate D2E/DX2                !
 ! R121  R(71,72)                1.3561         estimate D2E/DX2                !
 ! R122  R(71,73)                1.4313         estimate D2E/DX2                !
 ! R123  R(72,74)                1.4313         estimate D2E/DX2                !
 ! R124  R(73,75)                1.3887         estimate D2E/DX2                !
 ! R125  R(74,76)                1.3887         estimate D2E/DX2                !
 ! R126  R(75,76)                1.4344         estimate D2E/DX2                !
 ! R127  R(75,77)                1.4162         estimate D2E/DX2                !
 ! R128  R(76,78)                1.4162         estimate D2E/DX2                !
 ! R129  R(77,81)                1.4548         estimate D2E/DX2                !
 ! R130  R(78,81)                1.4548         estimate D2E/DX2                !
 ! R131  R(79,82)                1.4946         estimate D2E/DX2                !
 ! R132  R(79,91)                1.8206         estimate D2E/DX2                !
 ! R133  R(80,82)                1.4946         estimate D2E/DX2                !
 ! R134  R(80,94)                1.8206         estimate D2E/DX2                !
 ! R135  R(81,82)                1.3415         estimate D2E/DX2                !
 ! R136  R(83,84)                1.4441         estimate D2E/DX2                !
 ! A1    A(5,1,17)             121.9961         estimate D2E/DX2                !
 ! A2    A(5,1,25)             108.1197         estimate D2E/DX2                !
 ! A3    A(17,1,25)            121.8261         estimate D2E/DX2                !
 ! A4    A(6,2,43)             101.2754         estimate D2E/DX2                !
 ! A5    A(6,2,44)             111.7906         estimate D2E/DX2                !
 ! A6    A(6,2,92)             111.8036         estimate D2E/DX2                !
 ! A7    A(43,2,44)            110.446          estimate D2E/DX2                !
 ! A8    A(43,2,92)            111.4325         estimate D2E/DX2                !
 ! A9    A(44,2,92)            109.8624         estimate D2E/DX2                !
 ! A10   A(7,3,18)             121.996          estimate D2E/DX2                !
 ! A11   A(7,3,26)             108.1198         estimate D2E/DX2                !
 ! A12   A(18,3,26)            121.8259         estimate D2E/DX2                !
 ! A13   A(8,4,45)             111.7917         estimate D2E/DX2                !
 ! A14   A(8,4,46)             101.2756         estimate D2E/DX2                !
 ! A15   A(8,4,93)             111.8024         estimate D2E/DX2                !
 ! A16   A(45,4,46)            110.4469         estimate D2E/DX2                !
 ! A17   A(45,4,93)            109.8623         estimate D2E/DX2                !
 ! A18   A(46,4,93)            111.4316         estimate D2E/DX2                !
 ! A19   A(1,5,9)              121.789          estimate D2E/DX2                !
 ! A20   A(1,5,29)             108.3904         estimate D2E/DX2                !
 ! A21   A(9,5,29)             121.2061         estimate D2E/DX2                !
 ! A22   A(2,6,10)             121.6451         estimate D2E/DX2                !
 ! A23   A(2,6,15)             110.964          estimate D2E/DX2                !
 ! A24   A(10,6,15)            119.7473         estimate D2E/DX2                !
 ! A25   A(3,7,12)             121.789          estimate D2E/DX2                !
 ! A26   A(3,7,30)             108.3903         estimate D2E/DX2                !
 ! A27   A(12,7,30)            121.2062         estimate D2E/DX2                !
 ! A28   A(4,8,11)             121.6451         estimate D2E/DX2                !
 ! A29   A(4,8,16)             110.9642         estimate D2E/DX2                !
 ! A30   A(11,8,16)            119.7473         estimate D2E/DX2                !
 ! A31   A(5,9,13)             115.825          estimate D2E/DX2                !
 ! A32   A(5,9,35)             119.9087         estimate D2E/DX2                !
 ! A33   A(13,9,35)            118.7477         estimate D2E/DX2                !
 ! A34   A(6,10,49)            121.0682         estimate D2E/DX2                !
 ! A35   A(6,10,53)            120.3535         estimate D2E/DX2                !
 ! A36   A(49,10,53)           108.4392         estimate D2E/DX2                !
 ! A37   A(8,11,50)            121.0678         estimate D2E/DX2                !
 ! A38   A(8,11,54)            120.3534         estimate D2E/DX2                !
 ! A39   A(50,11,54)           108.4398         estimate D2E/DX2                !
 ! A40   A(7,12,14)            115.825          estimate D2E/DX2                !
 ! A41   A(7,12,36)            119.9087         estimate D2E/DX2                !
 ! A42   A(14,12,36)           118.7476         estimate D2E/DX2                !
 ! A43   A(9,13,15)            122.1917         estimate D2E/DX2                !
 ! A44   A(9,13,43)            121.0928         estimate D2E/DX2                !
 ! A45   A(15,13,43)           109.557          estimate D2E/DX2                !
 ! A46   A(12,14,16)           122.1919         estimate D2E/DX2                !
 ! A47   A(12,14,46)           121.0928         estimate D2E/DX2                !
 ! A48   A(16,14,46)           109.557          estimate D2E/DX2                !
 ! A49   A(6,15,13)            107.9379         estimate D2E/DX2                !
 ! A50   A(6,15,17)            121.5937         estimate D2E/DX2                !
 ! A51   A(13,15,17)           121.589          estimate D2E/DX2                !
 ! A52   A(8,16,14)            107.9377         estimate D2E/DX2                !
 ! A53   A(8,16,18)            121.594          estimate D2E/DX2                !
 ! A54   A(14,16,18)           121.5888         estimate D2E/DX2                !
 ! A55   A(1,17,15)            115.7979         estimate D2E/DX2                !
 ! A56   A(1,17,19)            118.5684         estimate D2E/DX2                !
 ! A57   A(15,17,19)           118.7165         estimate D2E/DX2                !
 ! A58   A(3,18,16)            115.798          estimate D2E/DX2                !
 ! A59   A(3,18,20)            118.5684         estimate D2E/DX2                !
 ! A60   A(16,18,20)           118.7162         estimate D2E/DX2                !
 ! A61   A(17,19,21)           118.1028         estimate D2E/DX2                !
 ! A62   A(17,19,53)           118.7324         estimate D2E/DX2                !
 ! A63   A(21,19,53)           115.867          estimate D2E/DX2                !
 ! A64   A(18,20,22)           118.103          estimate D2E/DX2                !
 ! A65   A(18,20,54)           118.7323         estimate D2E/DX2                !
 ! A66   A(22,20,54)           115.867          estimate D2E/DX2                !
 ! A67   A(19,21,23)           121.634          estimate D2E/DX2                !
 ! A68   A(19,21,57)           121.7486         estimate D2E/DX2                !
 ! A69   A(23,21,57)           108.3665         estimate D2E/DX2                !
 ! A70   A(20,22,24)           121.634          estimate D2E/DX2                !
 ! A71   A(20,22,58)           121.7484         estimate D2E/DX2                !
 ! A72   A(24,22,58)           108.3666         estimate D2E/DX2                !
 ! A73   A(21,23,25)           120.1691         estimate D2E/DX2                !
 ! A74   A(21,23,61)           111.2717         estimate D2E/DX2                !
 ! A75   A(25,23,61)           121.3743         estimate D2E/DX2                !
 ! A76   A(22,24,26)           120.169          estimate D2E/DX2                !
 ! A77   A(22,24,62)           111.2716         estimate D2E/DX2                !
 ! A78   A(26,24,62)           121.3743         estimate D2E/DX2                !
 ! A79   A(1,25,23)            119.6543         estimate D2E/DX2                !
 ! A80   A(1,25,27)            111.209          estimate D2E/DX2                !
 ! A81   A(23,25,27)           121.5337         estimate D2E/DX2                !
 ! A82   A(3,26,24)            119.6545         estimate D2E/DX2                !
 ! A83   A(3,26,28)            111.209          estimate D2E/DX2                !
 ! A84   A(24,26,28)           121.5336         estimate D2E/DX2                !
 ! A85   A(25,27,29)           100.8062         estimate D2E/DX2                !
 ! A86   A(25,27,65)           109.9313         estimate D2E/DX2                !
 ! A87   A(25,27,85)           113.7671         estimate D2E/DX2                !
 ! A88   A(29,27,65)           108.7823         estimate D2E/DX2                !
 ! A89   A(29,27,85)           114.2719         estimate D2E/DX2                !
 ! A90   A(65,27,85)           108.9785         estimate D2E/DX2                !
 ! A91   A(26,28,30)           100.8061         estimate D2E/DX2                !
 ! A92   A(26,28,66)           109.9314         estimate D2E/DX2                !
 ! A93   A(26,28,88)           113.7668         estimate D2E/DX2                !
 ! A94   A(30,28,66)           108.7819         estimate D2E/DX2                !
 ! A95   A(30,28,88)           114.2719         estimate D2E/DX2                !
 ! A96   A(66,28,88)           108.9789         estimate D2E/DX2                !
 ! A97   A(5,29,27)            111.4248         estimate D2E/DX2                !
 ! A98   A(5,29,31)            119.3961         estimate D2E/DX2                !
 ! A99   A(27,29,31)           121.9056         estimate D2E/DX2                !
 ! A100  A(7,30,28)            111.4248         estimate D2E/DX2                !
 ! A101  A(7,30,32)            119.396          estimate D2E/DX2                !
 ! A102  A(28,30,32)           121.9057         estimate D2E/DX2                !
 ! A103  A(29,31,33)           120.2467         estimate D2E/DX2                !
 ! A104  A(29,31,69)           121.1749         estimate D2E/DX2                !
 ! A105  A(33,31,69)           111.4945         estimate D2E/DX2                !
 ! A106  A(30,32,34)           120.2466         estimate D2E/DX2                !
 ! A107  A(30,32,70)           121.1751         estimate D2E/DX2                !
 ! A108  A(34,32,70)           111.4944         estimate D2E/DX2                !
 ! A109  A(31,33,35)           122.2083         estimate D2E/DX2                !
 ! A110  A(31,33,73)           107.5121         estimate D2E/DX2                !
 ! A111  A(35,33,73)           121.8206         estimate D2E/DX2                !
 ! A112  A(32,34,36)           122.2085         estimate D2E/DX2                !
 ! A113  A(32,34,74)           107.5121         estimate D2E/DX2                !
 ! A114  A(36,34,74)           121.8203         estimate D2E/DX2                !
 ! A115  A(9,35,33)            116.4785         estimate D2E/DX2                !
 ! A116  A(9,35,37)            119.4099         estimate D2E/DX2                !
 ! A117  A(33,35,37)           118.933          estimate D2E/DX2                !
 ! A118  A(12,36,34)           116.4783         estimate D2E/DX2                !
 ! A119  A(12,36,38)           119.4101         estimate D2E/DX2                !
 ! A120  A(34,36,38)           118.9333         estimate D2E/DX2                !
 ! A121  A(35,37,39)           119.8187         estimate D2E/DX2                !
 ! A122  A(35,37,77)           118.0075         estimate D2E/DX2                !
 ! A123  A(39,37,77)           117.668          estimate D2E/DX2                !
 ! A124  A(36,38,42)           119.8186         estimate D2E/DX2                !
 ! A125  A(36,38,78)           118.0077         estimate D2E/DX2                !
 ! A126  A(42,38,78)           117.6677         estimate D2E/DX2                !
 ! A127  A(37,39,43)           119.3978         estimate D2E/DX2                !
 ! A128  A(37,39,79)           121.7094         estimate D2E/DX2                !
 ! A129  A(43,39,79)           116.6984         estimate D2E/DX2                !
 ! A130  A(41,40,44)           121.3409         estimate D2E/DX2                !
 ! A131  A(41,40,79)           111.0395         estimate D2E/DX2                !
 ! A132  A(44,40,79)           124.8756         estimate D2E/DX2                !
 ! A133  A(40,41,45)           121.3411         estimate D2E/DX2                !
 ! A134  A(40,41,80)           111.0392         estimate D2E/DX2                !
 ! A135  A(45,41,80)           124.8755         estimate D2E/DX2                !
 ! A136  A(38,42,46)           119.398          estimate D2E/DX2                !
 ! A137  A(38,42,80)           121.7097         estimate D2E/DX2                !
 ! A138  A(46,42,80)           116.6984         estimate D2E/DX2                !
 ! A139  A(2,43,13)            109.2943         estimate D2E/DX2                !
 ! A140  A(2,43,39)            124.8536         estimate D2E/DX2                !
 ! A141  A(13,43,39)           121.3694         estimate D2E/DX2                !
 ! A142  A(2,44,40)            116.6901         estimate D2E/DX2                !
 ! A143  A(2,44,47)            122.1466         estimate D2E/DX2                !
 ! A144  A(40,44,47)           119.3871         estimate D2E/DX2                !
 ! A145  A(4,45,41)            116.6903         estimate D2E/DX2                !
 ! A146  A(4,45,48)            122.1461         estimate D2E/DX2                !
 ! A147  A(41,45,48)           119.387          estimate D2E/DX2                !
 ! A148  A(4,46,14)            109.2942         estimate D2E/DX2                !
 ! A149  A(4,46,42)            124.8536         estimate D2E/DX2                !
 ! A150  A(14,46,42)           121.3693         estimate D2E/DX2                !
 ! A151  A(44,47,48)           119.2426         estimate D2E/DX2                !
 ! A152  A(44,47,49)           118.2478         estimate D2E/DX2                !
 ! A153  A(48,47,49)           118.477          estimate D2E/DX2                !
 ! A154  A(45,48,47)           119.2426         estimate D2E/DX2                !
 ! A155  A(45,48,50)           118.2478         estimate D2E/DX2                !
 ! A156  A(47,48,50)           118.4773         estimate D2E/DX2                !
 ! A157  A(10,49,47)           120.3079         estimate D2E/DX2                !
 ! A158  A(10,49,51)           106.254          estimate D2E/DX2                !
 ! A159  A(47,49,51)           120.9133         estimate D2E/DX2                !
 ! A160  A(11,50,48)           120.3081         estimate D2E/DX2                !
 ! A161  A(11,50,52)           106.2538         estimate D2E/DX2                !
 ! A162  A(48,50,52)           120.9133         estimate D2E/DX2                !
 ! A163  A(49,51,52)           119.9191         estimate D2E/DX2                !
 ! A164  A(49,51,55)           109.7784         estimate D2E/DX2                !
 ! A165  A(52,51,55)           120.0759         estimate D2E/DX2                !
 ! A166  A(50,52,51)           119.9189         estimate D2E/DX2                !
 ! A167  A(50,52,56)           109.7784         estimate D2E/DX2                !
 ! A168  A(51,52,56)           120.0761         estimate D2E/DX2                !
 ! A169  A(10,53,19)           120.7665         estimate D2E/DX2                !
 ! A170  A(10,53,55)           107.7396         estimate D2E/DX2                !
 ! A171  A(19,53,55)           121.9682         estimate D2E/DX2                !
 ! A172  A(11,54,20)           120.7668         estimate D2E/DX2                !
 ! A173  A(11,54,56)           107.7391         estimate D2E/DX2                !
 ! A174  A(20,54,56)           121.9684         estimate D2E/DX2                !
 ! A175  A(51,55,53)           107.3643         estimate D2E/DX2                !
 ! A176  A(51,55,83)           120.4254         estimate D2E/DX2                !
 ! A177  A(53,55,83)           122.0527         estimate D2E/DX2                !
 ! A178  A(52,56,54)           107.3646         estimate D2E/DX2                !
 ! A179  A(52,56,84)           120.4254         estimate D2E/DX2                !
 ! A180  A(54,56,84)           122.0525         estimate D2E/DX2                !
 ! A181  A(21,57,59)           108.2074         estimate D2E/DX2                !
 ! A182  A(21,57,83)           122.0168         estimate D2E/DX2                !
 ! A183  A(59,57,83)           121.8069         estimate D2E/DX2                !
 ! A184  A(22,58,60)           108.2072         estimate D2E/DX2                !
 ! A185  A(22,58,84)           122.017          estimate D2E/DX2                !
 ! A186  A(60,58,84)           121.8068         estimate D2E/DX2                !
 ! A187  A(57,59,60)           119.9968         estimate D2E/DX2                !
 ! A188  A(57,59,61)           111.2764         estimate D2E/DX2                !
 ! A189  A(60,59,61)           121.6237         estimate D2E/DX2                !
 ! A190  A(58,60,59)           119.9968         estimate D2E/DX2                !
 ! A191  A(58,60,62)           111.2764         estimate D2E/DX2                !
 ! A192  A(59,60,62)           121.6238         estimate D2E/DX2                !
 ! A193  A(23,61,59)           100.8224         estimate D2E/DX2                !
 ! A194  A(23,61,63)           109.8405         estimate D2E/DX2                !
 ! A195  A(23,61,89)           113.8184         estimate D2E/DX2                !
 ! A196  A(59,61,63)           109.8956         estimate D2E/DX2                !
 ! A197  A(59,61,89)           113.7672         estimate D2E/DX2                !
 ! A198  A(63,61,89)           108.4956         estimate D2E/DX2                !
 ! A199  A(24,62,60)           100.8225         estimate D2E/DX2                !
 ! A200  A(24,62,64)           109.8407         estimate D2E/DX2                !
 ! A201  A(24,62,90)           113.8181         estimate D2E/DX2                !
 ! A202  A(60,62,64)           109.8956         estimate D2E/DX2                !
 ! A203  A(60,62,90)           113.7671         estimate D2E/DX2                !
 ! A204  A(64,62,90)           108.4957         estimate D2E/DX2                !
 ! A205  A(61,63,64)           119.9102         estimate D2E/DX2                !
 ! A206  A(61,63,65)           119.9654         estimate D2E/DX2                !
 ! A207  A(64,63,65)           119.8885         estimate D2E/DX2                !
 ! A208  A(62,64,63)           119.9101         estimate D2E/DX2                !
 ! A209  A(62,64,66)           119.9656         estimate D2E/DX2                !
 ! A210  A(63,64,66)           119.8885         estimate D2E/DX2                !
 ! A211  A(27,65,63)           119.6483         estimate D2E/DX2                !
 ! A212  A(27,65,67)           119.8137         estimate D2E/DX2                !
 ! A213  A(63,65,67)           120.2669         estimate D2E/DX2                !
 ! A214  A(28,66,64)           119.6481         estimate D2E/DX2                !
 ! A215  A(28,66,68)           119.8139         estimate D2E/DX2                !
 ! A216  A(64,66,68)           120.2669         estimate D2E/DX2                !
 ! A217  A(65,67,68)           119.8409         estimate D2E/DX2                !
 ! A218  A(65,67,69)           119.7175         estimate D2E/DX2                !
 ! A219  A(68,67,69)           120.2167         estimate D2E/DX2                !
 ! A220  A(66,68,67)           119.8409         estimate D2E/DX2                !
 ! A221  A(66,68,70)           119.7176         estimate D2E/DX2                !
 ! A222  A(67,68,70)           120.2167         estimate D2E/DX2                !
 ! A223  A(31,69,67)           108.563          estimate D2E/DX2                !
 ! A224  A(31,69,71)           101.2097         estimate D2E/DX2                !
 ! A225  A(31,69,86)           114.1719         estimate D2E/DX2                !
 ! A226  A(67,69,71)           110.557          estimate D2E/DX2                !
 ! A227  A(67,69,86)           108.5366         estimate D2E/DX2                !
 ! A228  A(71,69,86)           113.582          estimate D2E/DX2                !
 ! A229  A(32,70,68)           108.5627         estimate D2E/DX2                !
 ! A230  A(32,70,72)           101.2098         estimate D2E/DX2                !
 ! A231  A(32,70,87)           114.1719         estimate D2E/DX2                !
 ! A232  A(68,70,72)           110.5569         estimate D2E/DX2                !
 ! A233  A(68,70,87)           108.5367         estimate D2E/DX2                !
 ! A234  A(72,70,87)           113.5821         estimate D2E/DX2                !
 ! A235  A(69,71,72)           121.861          estimate D2E/DX2                !
 ! A236  A(69,71,73)           110.0964         estimate D2E/DX2                !
 ! A237  A(72,71,73)           119.662          estimate D2E/DX2                !
 ! A238  A(70,72,71)           121.8611         estimate D2E/DX2                !
 ! A239  A(70,72,74)           110.0964         estimate D2E/DX2                !
 ! A240  A(71,72,74)           119.662          estimate D2E/DX2                !
 ! A241  A(33,73,71)           109.3071         estimate D2E/DX2                !
 ! A242  A(33,73,75)           118.7923         estimate D2E/DX2                !
 ! A243  A(71,73,75)           121.511          estimate D2E/DX2                !
 ! A244  A(34,74,72)           109.3071         estimate D2E/DX2                !
 ! A245  A(34,74,76)           118.7923         estimate D2E/DX2                !
 ! A246  A(72,74,76)           121.511          estimate D2E/DX2                !
 ! A247  A(73,75,76)           118.808          estimate D2E/DX2                !
 ! A248  A(73,75,77)           120.2924         estimate D2E/DX2                !
 ! A249  A(76,75,77)           108.9551         estimate D2E/DX2                !
 ! A250  A(74,76,75)           118.8079         estimate D2E/DX2                !
 ! A251  A(74,76,78)           120.2927         estimate D2E/DX2                !
 ! A252  A(75,76,78)           108.955          estimate D2E/DX2                !
 ! A253  A(37,77,75)           121.9878         estimate D2E/DX2                !
 ! A254  A(37,77,81)           120.3224         estimate D2E/DX2                !
 ! A255  A(75,77,81)           106.7365         estimate D2E/DX2                !
 ! A256  A(38,78,76)           121.9873         estimate D2E/DX2                !
 ! A257  A(38,78,81)           120.3226         estimate D2E/DX2                !
 ! A258  A(76,78,81)           106.7365         estimate D2E/DX2                !
 ! A259  A(39,79,40)           110.117          estimate D2E/DX2                !
 ! A260  A(39,79,82)           113.2386         estimate D2E/DX2                !
 ! A261  A(39,79,91)           109.6075         estimate D2E/DX2                !
 ! A262  A(40,79,82)           100.4252         estimate D2E/DX2                !
 ! A263  A(40,79,91)           111.2925         estimate D2E/DX2                !
 ! A264  A(82,79,91)           111.8949         estimate D2E/DX2                !
 ! A265  A(41,80,42)           110.1166         estimate D2E/DX2                !
 ! A266  A(41,80,82)           100.4251         estimate D2E/DX2                !
 ! A267  A(41,80,94)           111.2933         estimate D2E/DX2                !
 ! A268  A(42,80,82)           113.2381         estimate D2E/DX2                !
 ! A269  A(42,80,94)           109.6075         estimate D2E/DX2                !
 ! A270  A(82,80,94)           111.8951         estimate D2E/DX2                !
 ! A271  A(77,81,78)           108.0384         estimate D2E/DX2                !
 ! A272  A(77,81,82)           122.2329         estimate D2E/DX2                !
 ! A273  A(78,81,82)           122.2329         estimate D2E/DX2                !
 ! A274  A(79,82,80)           113.0677         estimate D2E/DX2                !
 ! A275  A(79,82,81)           120.9746         estimate D2E/DX2                !
 ! A276  A(80,82,81)           120.9744         estimate D2E/DX2                !
 ! A277  A(55,83,57)           115.7148         estimate D2E/DX2                !
 ! A278  A(55,83,84)           119.4235         estimate D2E/DX2                !
 ! A279  A(57,83,84)           118.1963         estimate D2E/DX2                !
 ! A280  A(56,84,58)           115.7149         estimate D2E/DX2                !
 ! A281  A(56,84,83)           119.4232         estimate D2E/DX2                !
 ! A282  A(58,84,83)           118.1964         estimate D2E/DX2                !
 ! D1    D(17,1,5,9)            -3.3159         estimate D2E/DX2                !
 ! D2    D(17,1,5,29)         -151.3555         estimate D2E/DX2                !
 ! D3    D(25,1,5,9)           145.8546         estimate D2E/DX2                !
 ! D4    D(25,1,5,29)           -2.185          estimate D2E/DX2                !
 ! D5    D(5,1,17,15)           -5.0524         estimate D2E/DX2                !
 ! D6    D(5,1,17,19)          145.5046         estimate D2E/DX2                !
 ! D7    D(25,1,17,15)        -150.0746         estimate D2E/DX2                !
 ! D8    D(25,1,17,19)           0.4823         estimate D2E/DX2                !
 ! D9    D(5,1,25,23)         -147.776          estimate D2E/DX2                !
 ! D10   D(5,1,25,27)            2.2762         estimate D2E/DX2                !
 ! D11   D(17,1,25,23)           1.4576         estimate D2E/DX2                !
 ! D12   D(17,1,25,27)         151.5098         estimate D2E/DX2                !
 ! D13   D(43,2,6,10)         -140.4058         estimate D2E/DX2                !
 ! D14   D(43,2,6,15)            8.9421         estimate D2E/DX2                !
 ! D15   D(44,2,6,10)          -22.8046         estimate D2E/DX2                !
 ! D16   D(44,2,6,15)          126.5433         estimate D2E/DX2                !
 ! D17   D(92,2,6,10)          100.8394         estimate D2E/DX2                !
 ! D18   D(92,2,6,15)         -109.8127         estimate D2E/DX2                !
 ! D19   D(6,2,43,13)           -9.6875         estimate D2E/DX2                !
 ! D20   D(6,2,43,39)          146.6459         estimate D2E/DX2                !
 ! D21   D(44,2,43,13)        -128.2618         estimate D2E/DX2                !
 ! D22   D(44,2,43,39)          28.0716         estimate D2E/DX2                !
 ! D23   D(92,2,43,13)         109.3339         estimate D2E/DX2                !
 ! D24   D(92,2,43,39)         -94.3327         estimate D2E/DX2                !
 ! D25   D(6,2,44,40)         -143.593          estimate D2E/DX2                !
 ! D26   D(6,2,44,47)           21.1186         estimate D2E/DX2                !
 ! D27   D(43,2,44,40)         -31.6447         estimate D2E/DX2                !
 ! D28   D(43,2,44,47)         133.0669         estimate D2E/DX2                !
 ! D29   D(92,2,44,40)          91.6755         estimate D2E/DX2                !
 ! D30   D(92,2,44,47)        -103.6129         estimate D2E/DX2                !
 ! D31   D(18,3,7,12)            3.3159         estimate D2E/DX2                !
 ! D32   D(18,3,7,30)          151.3554         estimate D2E/DX2                !
 ! D33   D(26,3,7,12)         -145.8542         estimate D2E/DX2                !
 ! D34   D(26,3,7,30)            2.1853         estimate D2E/DX2                !
 ! D35   D(7,3,18,16)            5.0522         estimate D2E/DX2                !
 ! D36   D(7,3,18,20)         -145.5043         estimate D2E/DX2                !
 ! D37   D(26,3,18,16)         150.074          estimate D2E/DX2                !
 ! D38   D(26,3,18,20)          -0.4824         estimate D2E/DX2                !
 ! D39   D(7,3,26,24)          147.7758         estimate D2E/DX2                !
 ! D40   D(7,3,26,28)           -2.2766         estimate D2E/DX2                !
 ! D41   D(18,3,26,24)          -1.4574         estimate D2E/DX2                !
 ! D42   D(18,3,26,28)        -151.5098         estimate D2E/DX2                !
 ! D43   D(45,4,8,11)           22.8034         estimate D2E/DX2                !
 ! D44   D(45,4,8,16)         -126.5446         estimate D2E/DX2                !
 ! D45   D(46,4,8,11)          140.4062         estimate D2E/DX2                !
 ! D46   D(46,4,8,16)           -8.9417         estimate D2E/DX2                !
 ! D47   D(93,4,8,11)         -100.8404         estimate D2E/DX2                !
 ! D48   D(93,4,8,16)          109.8117         estimate D2E/DX2                !
 ! D49   D(8,4,45,41)          143.593          estimate D2E/DX2                !
 ! D50   D(8,4,45,48)          -21.1166         estimate D2E/DX2                !
 ! D51   D(46,4,45,41)          31.6432         estimate D2E/DX2                !
 ! D52   D(46,4,45,48)        -133.0663         estimate D2E/DX2                !
 ! D53   D(93,4,45,41)         -91.6764         estimate D2E/DX2                !
 ! D54   D(93,4,45,48)         103.6141         estimate D2E/DX2                !
 ! D55   D(8,4,46,14)            9.6868         estimate D2E/DX2                !
 ! D56   D(8,4,46,42)         -146.6458         estimate D2E/DX2                !
 ! D57   D(45,4,46,14)         128.2629         estimate D2E/DX2                !
 ! D58   D(45,4,46,42)         -28.0697         estimate D2E/DX2                !
 ! D59   D(93,4,46,14)        -109.3329         estimate D2E/DX2                !
 ! D60   D(93,4,46,42)          94.3345         estimate D2E/DX2                !
 ! D61   D(1,5,9,13)             7.7952         estimate D2E/DX2                !
 ! D62   D(1,5,9,35)          -145.6867         estimate D2E/DX2                !
 ! D63   D(29,5,9,13)          151.8315         estimate D2E/DX2                !
 ! D64   D(29,5,9,35)           -1.6504         estimate D2E/DX2                !
 ! D65   D(1,5,29,27)            1.3303         estimate D2E/DX2                !
 ! D66   D(1,5,29,31)          152.1073         estimate D2E/DX2                !
 ! D67   D(9,5,29,27)         -146.9311         estimate D2E/DX2                !
 ! D68   D(9,5,29,31)            3.8458         estimate D2E/DX2                !
 ! D69   D(2,6,10,49)            8.7515         estimate D2E/DX2                !
 ! D70   D(2,6,10,53)          150.0801         estimate D2E/DX2                !
 ! D71   D(15,6,10,49)        -137.9956         estimate D2E/DX2                !
 ! D72   D(15,6,10,53)           3.333          estimate D2E/DX2                !
 ! D73   D(2,6,15,13)           -5.0763         estimate D2E/DX2                !
 ! D74   D(2,6,15,17)         -152.8015         estimate D2E/DX2                !
 ! D75   D(10,6,15,13)         144.9305         estimate D2E/DX2                !
 ! D76   D(10,6,15,17)          -2.7947         estimate D2E/DX2                !
 ! D77   D(3,7,12,14)           -7.795          estimate D2E/DX2                !
 ! D78   D(3,7,12,36)          145.6868         estimate D2E/DX2                !
 ! D79   D(30,7,12,14)        -151.8312         estimate D2E/DX2                !
 ! D80   D(30,7,12,36)           1.6507         estimate D2E/DX2                !
 ! D81   D(3,7,30,28)           -1.3305         estimate D2E/DX2                !
 ! D82   D(3,7,30,32)         -152.1074         estimate D2E/DX2                !
 ! D83   D(12,7,30,28)         146.9308         estimate D2E/DX2                !
 ! D84   D(12,7,30,32)          -3.8461         estimate D2E/DX2                !
 ! D85   D(4,8,11,50)           -8.7509         estimate D2E/DX2                !
 ! D86   D(4,8,11,54)         -150.08           estimate D2E/DX2                !
 ! D87   D(16,8,11,50)         137.9965         estimate D2E/DX2                !
 ! D88   D(16,8,11,54)          -3.3327         estimate D2E/DX2                !
 ! D89   D(4,8,16,14)            5.0764         estimate D2E/DX2                !
 ! D90   D(4,8,16,18)          152.8012         estimate D2E/DX2                !
 ! D91   D(11,8,16,14)        -144.9306         estimate D2E/DX2                !
 ! D92   D(11,8,16,18)           2.7942         estimate D2E/DX2                !
 ! D93   D(5,9,13,15)           -4.0554         estimate D2E/DX2                !
 ! D94   D(5,9,13,43)         -151.361          estimate D2E/DX2                !
 ! D95   D(35,9,13,15)         149.7496         estimate D2E/DX2                !
 ! D96   D(35,9,13,43)           2.4441         estimate D2E/DX2                !
 ! D97   D(5,9,35,33)           -4.444          estimate D2E/DX2                !
 ! D98   D(5,9,35,37)          149.8755         estimate D2E/DX2                !
 ! D99   D(13,9,35,33)        -157.1609         estimate D2E/DX2                !
 ! D100  D(13,9,35,37)          -2.8414         estimate D2E/DX2                !
 ! D101  D(6,10,49,47)           9.5673         estimate D2E/DX2                !
 ! D102  D(6,10,49,51)         151.7779         estimate D2E/DX2                !
 ! D103  D(53,10,49,47)       -135.7953         estimate D2E/DX2                !
 ! D104  D(53,10,49,51)          6.4153         estimate D2E/DX2                !
 ! D105  D(6,10,53,19)          -2.8735         estimate D2E/DX2                !
 ! D106  D(6,10,53,55)        -149.7376         estimate D2E/DX2                !
 ! D107  D(49,10,53,19)        142.7808         estimate D2E/DX2                !
 ! D108  D(49,10,53,55)         -4.0833         estimate D2E/DX2                !
 ! D109  D(8,11,50,48)          -9.5676         estimate D2E/DX2                !
 ! D110  D(8,11,50,52)        -151.778          estimate D2E/DX2                !
 ! D111  D(54,11,50,48)        135.7952         estimate D2E/DX2                !
 ! D112  D(54,11,50,52)         -6.4152         estimate D2E/DX2                !
 ! D113  D(8,11,54,20)           2.8735         estimate D2E/DX2                !
 ! D114  D(8,11,54,56)         149.7376         estimate D2E/DX2                !
 ! D115  D(50,11,54,20)       -142.7809         estimate D2E/DX2                !
 ! D116  D(50,11,54,56)          4.0832         estimate D2E/DX2                !
 ! D117  D(7,12,14,16)           4.0552         estimate D2E/DX2                !
 ! D118  D(7,12,14,46)         151.3612         estimate D2E/DX2                !
 ! D119  D(36,12,14,16)       -149.7499         estimate D2E/DX2                !
 ! D120  D(36,12,14,46)         -2.4438         estimate D2E/DX2                !
 ! D121  D(7,12,36,34)           4.4441         estimate D2E/DX2                !
 ! D122  D(7,12,36,38)        -149.876          estimate D2E/DX2                !
 ! D123  D(14,12,36,34)        157.1609         estimate D2E/DX2                !
 ! D124  D(14,12,36,38)          2.8408         estimate D2E/DX2                !
 ! D125  D(9,13,15,6)         -152.0915         estimate D2E/DX2                !
 ! D126  D(9,13,15,17)          -4.3645         estimate D2E/DX2                !
 ! D127  D(43,13,15,6)          -1.4895         estimate D2E/DX2                !
 ! D128  D(43,13,15,17)        146.2375         estimate D2E/DX2                !
 ! D129  D(9,13,43,2)          158.3642         estimate D2E/DX2                !
 ! D130  D(9,13,43,39)           1.0575         estimate D2E/DX2                !
 ! D131  D(15,13,43,2)           7.3836         estimate D2E/DX2                !
 ! D132  D(15,13,43,39)       -149.9231         estimate D2E/DX2                !
 ! D133  D(12,14,16,8)         152.0914         estimate D2E/DX2                !
 ! D134  D(12,14,16,18)          4.3645         estimate D2E/DX2                !
 ! D135  D(46,14,16,8)           1.489          estimate D2E/DX2                !
 ! D136  D(46,14,16,18)       -146.2378         estimate D2E/DX2                !
 ! D137  D(12,14,46,4)        -158.3638         estimate D2E/DX2                !
 ! D138  D(12,14,46,42)         -1.0579         estimate D2E/DX2                !
 ! D139  D(16,14,46,4)          -7.3828         estimate D2E/DX2                !
 ! D140  D(16,14,46,42)        149.9231         estimate D2E/DX2                !
 ! D141  D(6,15,17,1)          152.1633         estimate D2E/DX2                !
 ! D142  D(6,15,17,19)           1.652          estimate D2E/DX2                !
 ! D143  D(13,15,17,1)           8.7753         estimate D2E/DX2                !
 ! D144  D(13,15,17,19)       -141.7359         estimate D2E/DX2                !
 ! D145  D(8,16,18,3)         -152.1628         estimate D2E/DX2                !
 ! D146  D(8,16,18,20)          -1.6519         estimate D2E/DX2                !
 ! D147  D(14,16,18,3)          -8.7752         estimate D2E/DX2                !
 ! D148  D(14,16,18,20)        141.7357         estimate D2E/DX2                !
 ! D149  D(1,17,19,21)          -1.8597         estimate D2E/DX2                !
 ! D150  D(1,17,19,53)        -150.8189         estimate D2E/DX2                !
 ! D151  D(15,17,19,21)        147.8333         estimate D2E/DX2                !
 ! D152  D(15,17,19,53)         -1.1258         estimate D2E/DX2                !
 ! D153  D(3,18,20,22)           1.8597         estimate D2E/DX2                !
 ! D154  D(3,18,20,54)         150.8187         estimate D2E/DX2                !
 ! D155  D(16,18,20,22)       -147.8329         estimate D2E/DX2                !
 ! D156  D(16,18,20,54)          1.1261         estimate D2E/DX2                !
 ! D157  D(17,19,21,23)          1.4321         estimate D2E/DX2                !
 ! D158  D(17,19,21,57)       -143.2928         estimate D2E/DX2                !
 ! D159  D(53,19,21,23)        151.2662         estimate D2E/DX2                !
 ! D160  D(53,19,21,57)          6.5413         estimate D2E/DX2                !
 ! D161  D(17,19,53,10)          1.7139         estimate D2E/DX2                !
 ! D162  D(17,19,53,55)        143.8558         estimate D2E/DX2                !
 ! D163  D(21,19,53,10)       -147.9214         estimate D2E/DX2                !
 ! D164  D(21,19,53,55)         -5.7795         estimate D2E/DX2                !
 ! D165  D(18,20,22,24)         -1.4321         estimate D2E/DX2                !
 ! D166  D(18,20,22,58)        143.2928         estimate D2E/DX2                !
 ! D167  D(54,20,22,24)       -151.266          estimate D2E/DX2                !
 ! D168  D(54,20,22,58)         -6.5411         estimate D2E/DX2                !
 ! D169  D(18,20,54,11)         -1.7143         estimate D2E/DX2                !
 ! D170  D(18,20,54,56)       -143.8558         estimate D2E/DX2                !
 ! D171  D(22,20,54,11)        147.9209         estimate D2E/DX2                !
 ! D172  D(22,20,54,56)          5.7794         estimate D2E/DX2                !
 ! D173  D(19,21,23,25)          0.4926         estimate D2E/DX2                !
 ! D174  D(19,21,23,61)       -150.2612         estimate D2E/DX2                !
 ! D175  D(57,21,23,25)        149.3314         estimate D2E/DX2                !
 ! D176  D(57,21,23,61)         -1.4224         estimate D2E/DX2                !
 ! D177  D(19,21,57,59)        148.6855         estimate D2E/DX2                !
 ! D178  D(19,21,57,83)         -0.6358         estimate D2E/DX2                !
 ! D179  D(23,21,57,59)         -0.1104         estimate D2E/DX2                !
 ! D180  D(23,21,57,83)       -149.4318         estimate D2E/DX2                !
 ! D181  D(20,22,24,26)         -0.4924         estimate D2E/DX2                !
 ! D182  D(20,22,24,62)        150.261          estimate D2E/DX2                !
 ! D183  D(58,22,24,26)       -149.3312         estimate D2E/DX2                !
 ! D184  D(58,22,24,62)          1.4222         estimate D2E/DX2                !
 ! D185  D(20,22,58,60)       -148.6855         estimate D2E/DX2                !
 ! D186  D(20,22,58,84)          0.6358         estimate D2E/DX2                !
 ! D187  D(24,22,58,60)          0.1105         estimate D2E/DX2                !
 ! D188  D(24,22,58,84)        149.4318         estimate D2E/DX2                !
 ! D189  D(21,23,25,1)          -1.9221         estimate D2E/DX2                !
 ! D190  D(21,23,25,27)       -148.8271         estimate D2E/DX2                !
 ! D191  D(61,23,25,1)         145.8527         estimate D2E/DX2                !
 ! D192  D(61,23,25,27)         -1.0523         estimate D2E/DX2                !
 ! D193  D(21,23,61,59)          2.2214         estimate D2E/DX2                !
 ! D194  D(21,23,61,63)        118.1538         estimate D2E/DX2                !
 ! D195  D(21,23,61,89)       -119.9807         estimate D2E/DX2                !
 ! D196  D(25,23,61,59)       -148.1271         estimate D2E/DX2                !
 ! D197  D(25,23,61,63)        -32.1948         estimate D2E/DX2                !
 ! D198  D(25,23,61,89)         89.6708         estimate D2E/DX2                !
 ! D199  D(22,24,26,3)           1.9219         estimate D2E/DX2                !
 ! D200  D(22,24,26,28)        148.8272         estimate D2E/DX2                !
 ! D201  D(62,24,26,3)        -145.8525         estimate D2E/DX2                !
 ! D202  D(62,24,26,28)          1.0528         estimate D2E/DX2                !
 ! D203  D(22,24,62,60)         -2.2213         estimate D2E/DX2                !
 ! D204  D(22,24,62,64)       -118.1538         estimate D2E/DX2                !
 ! D205  D(22,24,62,90)        119.9806         estimate D2E/DX2                !
 ! D206  D(26,24,62,60)        148.1269         estimate D2E/DX2                !
 ! D207  D(26,24,62,64)         32.1943         estimate D2E/DX2                !
 ! D208  D(26,24,62,90)        -89.6712         estimate D2E/DX2                !
 ! D209  D(1,25,27,29)          -1.3932         estimate D2E/DX2                !
 ! D210  D(1,25,27,65)        -116.0942         estimate D2E/DX2                !
 ! D211  D(1,25,27,85)         121.3804         estimate D2E/DX2                !
 ! D212  D(23,25,27,29)        148.0103         estimate D2E/DX2                !
 ! D213  D(23,25,27,65)         33.3093         estimate D2E/DX2                !
 ! D214  D(23,25,27,85)        -89.2161         estimate D2E/DX2                !
 ! D215  D(3,26,28,30)           1.3935         estimate D2E/DX2                !
 ! D216  D(3,26,28,66)         116.0941         estimate D2E/DX2                !
 ! D217  D(3,26,28,88)        -121.3801         estimate D2E/DX2                !
 ! D218  D(24,26,28,30)       -148.0103         estimate D2E/DX2                !
 ! D219  D(24,26,28,66)        -33.3097         estimate D2E/DX2                !
 ! D220  D(24,26,28,88)         89.2161         estimate D2E/DX2                !
 ! D221  D(25,27,29,5)           0.027          estimate D2E/DX2                !
 ! D222  D(25,27,29,31)       -149.9034         estimate D2E/DX2                !
 ! D223  D(65,27,29,5)         115.5885         estimate D2E/DX2                !
 ! D224  D(65,27,29,31)        -34.3419         estimate D2E/DX2                !
 ! D225  D(85,27,29,5)        -122.3949         estimate D2E/DX2                !
 ! D226  D(85,27,29,31)         87.6747         estimate D2E/DX2                !
 ! D227  D(25,27,65,63)        -31.5287         estimate D2E/DX2                !
 ! D228  D(25,27,65,67)        142.5072         estimate D2E/DX2                !
 ! D229  D(29,27,65,63)       -141.0385         estimate D2E/DX2                !
 ! D230  D(29,27,65,67)         32.9974         estimate D2E/DX2                !
 ! D231  D(85,27,65,63)         93.7846         estimate D2E/DX2                !
 ! D232  D(85,27,65,67)        -92.1795         estimate D2E/DX2                !
 ! D233  D(26,28,30,7)          -0.0271         estimate D2E/DX2                !
 ! D234  D(26,28,30,32)        149.9033         estimate D2E/DX2                !
 ! D235  D(66,28,30,7)        -115.5885         estimate D2E/DX2                !
 ! D236  D(66,28,30,32)         34.3418         estimate D2E/DX2                !
 ! D237  D(88,28,30,7)         122.3945         estimate D2E/DX2                !
 ! D238  D(88,28,30,32)        -87.6752         estimate D2E/DX2                !
 ! D239  D(26,28,66,64)         31.529          estimate D2E/DX2                !
 ! D240  D(26,28,66,68)       -142.5072         estimate D2E/DX2                !
 ! D241  D(30,28,66,64)        141.0386         estimate D2E/DX2                !
 ! D242  D(30,28,66,68)        -32.9976         estimate D2E/DX2                !
 ! D243  D(88,28,66,64)        -93.7843         estimate D2E/DX2                !
 ! D244  D(88,28,66,68)         92.1795         estimate D2E/DX2                !
 ! D245  D(5,29,31,33)           0.2854         estimate D2E/DX2                !
 ! D246  D(5,29,31,69)        -147.7675         estimate D2E/DX2                !
 ! D247  D(27,29,31,33)        147.9173         estimate D2E/DX2                !
 ! D248  D(27,29,31,69)         -0.1356         estimate D2E/DX2                !
 ! D249  D(7,30,32,34)          -0.2854         estimate D2E/DX2                !
 ! D250  D(7,30,32,70)         147.7676         estimate D2E/DX2                !
 ! D251  D(28,30,32,34)       -147.9173         estimate D2E/DX2                !
 ! D252  D(28,30,32,70)          0.1358         estimate D2E/DX2                !
 ! D253  D(29,31,33,35)         -6.8065         estimate D2E/DX2                !
 ! D254  D(29,31,33,73)       -155.2587         estimate D2E/DX2                !
 ! D255  D(69,31,33,35)        144.0786         estimate D2E/DX2                !
 ! D256  D(69,31,33,73)         -4.3736         estimate D2E/DX2                !
 ! D257  D(29,31,69,67)         35.006          estimate D2E/DX2                !
 ! D258  D(29,31,69,71)        151.3761         estimate D2E/DX2                !
 ! D259  D(29,31,69,86)        -86.213          estimate D2E/DX2                !
 ! D260  D(33,31,69,67)       -115.57           estimate D2E/DX2                !
 ! D261  D(33,31,69,71)          0.8001         estimate D2E/DX2                !
 ! D262  D(33,31,69,86)        123.211          estimate D2E/DX2                !
 ! D263  D(30,32,34,36)          6.8069         estimate D2E/DX2                !
 ! D264  D(30,32,34,74)        155.2588         estimate D2E/DX2                !
 ! D265  D(70,32,34,36)       -144.0784         estimate D2E/DX2                !
 ! D266  D(70,32,34,74)          4.3735         estimate D2E/DX2                !
 ! D267  D(30,32,70,68)        -35.0062         estimate D2E/DX2                !
 ! D268  D(30,32,70,72)       -151.3761         estimate D2E/DX2                !
 ! D269  D(30,32,70,87)         86.2128         estimate D2E/DX2                !
 ! D270  D(34,32,70,68)        115.57           estimate D2E/DX2                !
 ! D271  D(34,32,70,72)         -0.7999         estimate D2E/DX2                !
 ! D272  D(34,32,70,87)       -123.211          estimate D2E/DX2                !
 ! D273  D(31,33,35,9)           8.7008         estimate D2E/DX2                !
 ! D274  D(31,33,35,37)       -145.7463         estimate D2E/DX2                !
 ! D275  D(73,33,35,9)         152.741          estimate D2E/DX2                !
 ! D276  D(73,33,35,37)         -1.7061         estimate D2E/DX2                !
 ! D277  D(31,33,73,71)          6.2939         estimate D2E/DX2                !
 ! D278  D(31,33,73,75)        151.8287         estimate D2E/DX2                !
 ! D279  D(35,33,73,71)       -142.3067         estimate D2E/DX2                !
 ! D280  D(35,33,73,75)          3.2281         estimate D2E/DX2                !
 ! D281  D(32,34,36,12)         -8.7012         estimate D2E/DX2                !
 ! D282  D(32,34,36,38)        145.7465         estimate D2E/DX2                !
 ! D283  D(74,34,36,12)       -152.7412         estimate D2E/DX2                !
 ! D284  D(74,34,36,38)          1.7065         estimate D2E/DX2                !
 ! D285  D(32,34,74,72)         -6.2939         estimate D2E/DX2                !
 ! D286  D(32,34,74,76)       -151.8288         estimate D2E/DX2                !
 ! D287  D(36,34,74,72)        142.3066         estimate D2E/DX2                !
 ! D288  D(36,34,74,76)         -3.2282         estimate D2E/DX2                !
 ! D289  D(9,35,37,39)          -0.0602         estimate D2E/DX2                !
 ! D290  D(9,35,37,77)        -155.7099         estimate D2E/DX2                !
 ! D291  D(33,35,37,39)        153.6307         estimate D2E/DX2                !
 ! D292  D(33,35,37,77)         -2.019          estimate D2E/DX2                !
 ! D293  D(12,36,38,42)          0.0613         estimate D2E/DX2                !
 ! D294  D(12,36,38,78)        155.7101         estimate D2E/DX2                !
 ! D295  D(34,36,38,42)       -153.6301         estimate D2E/DX2                !
 ! D296  D(34,36,38,78)          2.0187         estimate D2E/DX2                !
 ! D297  D(35,37,39,43)          3.5123         estimate D2E/DX2                !
 ! D298  D(35,37,39,79)       -159.0974         estimate D2E/DX2                !
 ! D299  D(77,37,39,43)        159.2429         estimate D2E/DX2                !
 ! D300  D(77,37,39,79)         -3.3667         estimate D2E/DX2                !
[...]
 Alpha virt. eigenvalues --    1.34739   1.34840   1.34960   1.35729   1.36688
 Alpha virt. eigenvalues --    1.36798   1.36921   1.37191   1.37673   1.38005
 Alpha virt. eigenvalues --    1.38688   1.39567   1.39859   1.40802   1.41689
 Alpha virt. eigenvalues --    1.41931   1.42320   1.42963   1.43412   1.43699
 Alpha virt. eigenvalues --    1.44076   1.44981   1.45295   1.46209   1.46533
 Alpha virt. eigenvalues --    1.47364   1.47481   1.47602   1.48174   1.48871
 Alpha virt. eigenvalues --    1.49000   1.49814   1.50382   1.51018   1.51394
 Alpha virt. eigenvalues --    1.51761   1.52396   1.52785   1.52980   1.53430
 Alpha virt. eigenvalues --    1.53624   1.54585   1.54890   1.55826   1.55919
 Alpha virt. eigenvalues --    1.56348   1.56425   1.56866   1.57003   1.59066
 Alpha virt. eigenvalues --    1.59229   1.59323   1.60403   1.60579   1.61423
 Alpha virt. eigenvalues --    1.61812   1.61916   1.62400   1.62810   1.63402
 Alpha virt. eigenvalues --    1.63415   1.64026   1.64298   1.64379   1.64381
 Alpha virt. eigenvalues --    1.64685   1.65035   1.65296   1.65526   1.65713
 Alpha virt. eigenvalues --    1.66045   1.66373   1.66500   1.66578   1.67197
 Alpha virt. eigenvalues --    1.67391   1.67483   1.67644   1.67850   1.68083
 Alpha virt. eigenvalues --    1.68513   1.68570   1.68583   1.68642   1.69030
 Alpha virt. eigenvalues --    1.69180   1.69581   1.69677   1.70057   1.70341
 Alpha virt. eigenvalues --    1.70528   1.70979   1.71482   1.71511   1.71776
 Alpha virt. eigenvalues --    1.71859   1.72059   1.72245   1.72441   1.72552
 Alpha virt. eigenvalues --    1.73284   1.73348   1.73709   1.74180   1.74198
 Alpha virt. eigenvalues --    1.74766   1.75067   1.75252   1.75331   1.75637
 Alpha virt. eigenvalues --    1.75951   1.76017   1.76126   1.76527   1.76760
 Alpha virt. eigenvalues --    1.77161   1.77639   1.77685   1.77837   1.78396
 Alpha virt. eigenvalues --    1.78487   1.78599   1.78612   1.78803   1.79069
 Alpha virt. eigenvalues --    1.79396   1.79479   1.79551   1.79654   1.80123
 Alpha virt. eigenvalues --    1.80148   1.80798   1.81082   1.81302   1.81779
 Alpha virt. eigenvalues --    1.81981   1.82122   1.82438   1.82678   1.83331
 Alpha virt. eigenvalues --    1.83435   1.83544   1.84110   1.84526   1.85080
 Alpha virt. eigenvalues --    1.85558   1.85902   1.86641   1.86731   1.86780
 Alpha virt. eigenvalues --    1.87448   1.87517   1.88008   1.88449   1.88531
 Alpha virt. eigenvalues --    1.88555   1.88984   1.89072   1.89863   1.90132
 Alpha virt. eigenvalues --    1.90672   1.90852   1.91676   1.91677   1.91780
 Alpha virt. eigenvalues --    1.92637   1.93356   1.93447   1.93596   1.93692
 Alpha virt. eigenvalues --    1.93911   1.94442   1.94772   1.94997   1.95003
 Alpha virt. eigenvalues --    1.95388   1.95738   1.96190   1.96357   1.96512
 Alpha virt. eigenvalues --    1.96711   1.97388   1.97820   1.98411   1.98590
 Alpha virt. eigenvalues --    1.98653   1.99142   1.99246   1.99558   1.99778
 Alpha virt. eigenvalues --    1.99816   2.00435   2.00436   2.01254   2.01432
 Alpha virt. eigenvalues --    2.01531   2.02150   2.02373   2.02506   2.02557
 Alpha virt. eigenvalues --    2.03185   2.03205   2.03762   2.04089   2.04350
 Alpha virt. eigenvalues --    2.04576   2.04605   2.05283   2.05799   2.05883
 Alpha virt. eigenvalues --    2.06951   2.07029   2.07420   2.07586   2.08323
 Alpha virt. eigenvalues --    2.08413   2.09324   2.09747   2.09840   2.10156
 Alpha virt. eigenvalues --    2.10271   2.10525   2.11150   2.11490   2.11491
 Alpha virt. eigenvalues --    2.12169   2.12392   2.12417   2.12815   2.13237
 Alpha virt. eigenvalues --    2.13866   2.14415   2.14626   2.15469   2.16535
 Alpha virt. eigenvalues --    2.16630   2.17409   2.17770   2.17946   2.17955
 Alpha virt. eigenvalues --    2.18763   2.18789   2.19377   2.19533   2.20182
 Alpha virt. eigenvalues --    2.20776   2.21015   2.21022   2.21902   2.21998
 Alpha virt. eigenvalues --    2.22676   2.22957   2.23325   2.23665   2.24350
 Alpha virt. eigenvalues --    2.24434   2.25137   2.25319   2.25632   2.26218
 Alpha virt. eigenvalues --    2.26356   2.27285   2.27322   2.27593   2.27997
 Alpha virt. eigenvalues --    2.28272   2.29054   2.29194   2.29436   2.29873
 Alpha virt. eigenvalues --    2.30045   2.30544   2.31283   2.31348   2.32595
 Alpha virt. eigenvalues --    2.32795   2.32870   2.33881   2.34235   2.34443
 Alpha virt. eigenvalues --    2.35282   2.35607   2.35871   2.36573   2.37546
 Alpha virt. eigenvalues --    2.38480   2.38911   2.39584   2.39907   2.40424
 Alpha virt. eigenvalues --    2.40650   2.41045   2.41350   2.42253   2.42402
 Alpha virt. eigenvalues --    2.42522   2.43149   2.43510   2.43519   2.44692
 Alpha virt. eigenvalues --    2.44864   2.45385   2.45408   2.45943   2.46712
 Alpha virt. eigenvalues --    2.47319   2.48259   2.48776   2.49275   2.49491
 Alpha virt. eigenvalues --    2.50425   2.50615   2.51416   2.51430   2.52103
 Alpha virt. eigenvalues --    2.52177   2.52213   2.52641   2.53850   2.53935
 Alpha virt. eigenvalues --    2.54298   2.54590   2.55292   2.55410   2.56001
 Alpha virt. eigenvalues --    2.56599   2.56688   2.56718   2.56942   2.57275
 Alpha virt. eigenvalues --    2.57618   2.58119   2.58632   2.59105   2.59288
 Alpha virt. eigenvalues --    2.59358   2.59759   2.60037   2.60444   2.60658
 Alpha virt. eigenvalues --    2.61303   2.61631   2.62278   2.62326   2.62704
 Alpha virt. eigenvalues --    2.63051   2.63476   2.63682   2.63899   2.64076
 Alpha virt. eigenvalues --    2.64314   2.64986   2.65005   2.65385   2.65612
 Alpha virt. eigenvalues --    2.65942   2.66404   2.66616   2.67180   2.67477
 Alpha virt. eigenvalues --    2.67661   2.67907   2.68662   2.68967   2.69660
 Alpha virt. eigenvalues --    2.70098   2.70139   2.70880   2.71577   2.71762
 Alpha virt. eigenvalues --    2.71988   2.72306   2.72313   2.72490   2.72608
 Alpha virt. eigenvalues --    2.73533   2.73582   2.74552   2.74614   2.75034
 Alpha virt. eigenvalues --    2.75314   2.75635   2.76009   2.76727   2.77035
 Alpha virt. eigenvalues --    2.77659   2.77713   2.77996   2.79415   2.79421
 Alpha virt. eigenvalues --    2.79913   2.80567   2.80672   2.80780   2.80913
 Alpha virt. eigenvalues --    2.81565   2.82209   2.82473   2.82592   2.83483
 Alpha virt. eigenvalues --    2.85104   2.85247   2.86325   2.86506   2.87118
 Alpha virt. eigenvalues --    2.87496   2.87914   2.88075   2.89001   2.89077
 Alpha virt. eigenvalues --    2.89265   2.90000   2.90482   2.90627   2.91132
 Alpha virt. eigenvalues --    2.91626   2.91944   2.92392   2.92588   2.93117
 Alpha virt. eigenvalues --    2.93534   2.94046   2.94333   2.94916   2.95286
 Alpha virt. eigenvalues --    2.95669   2.97878   2.98064   2.99784   2.99974
 Alpha virt. eigenvalues --    3.00639   3.02572   3.02982   3.04880   3.05559
 Alpha virt. eigenvalues --    3.08580   3.09088   3.09754   3.11339   3.11621
 Alpha virt. eigenvalues --    3.11635   3.14464   3.16246   3.16818   3.17962
 Alpha virt. eigenvalues --    3.19773   3.20264   3.21624   3.21882   3.24307
 Alpha virt. eigenvalues --    3.26376   3.27272   3.29244   3.31913   3.32517
 Alpha virt. eigenvalues --    3.34001   3.34968   3.35635   3.38761   3.39163
 Alpha virt. eigenvalues --    3.44440   3.45346   3.46039   3.48683   3.49095
 Alpha virt. eigenvalues --    3.49707   3.54715   3.56152   3.68745   4.01113
 Alpha virt. eigenvalues --    4.01711   4.01951   4.02204   4.02846   4.03022
 Alpha virt. eigenvalues --    4.03329   4.04886   4.04957   4.06723   4.06816
 Alpha virt. eigenvalues --    4.07659   4.08195   4.08340   4.08952   4.09816
 Alpha virt. eigenvalues --    4.10342   4.10452   4.11123   4.12107   4.13635
 Alpha virt. eigenvalues --    4.13924   4.15866   4.15975   4.16571   4.17495
 Alpha virt. eigenvalues --    4.18418   4.19161   4.19905   4.20073   4.21211
 Alpha virt. eigenvalues --    4.22369   4.22570   4.23758   4.24225   4.25272
 Alpha virt. eigenvalues --    4.26089   4.26912   4.26955   4.27445   4.27865
 Alpha virt. eigenvalues --    4.28101   4.28222   4.30010   4.30048   4.31027
 Alpha virt. eigenvalues --    4.31590   4.32445   4.33773   4.35386   4.36827
 Alpha virt. eigenvalues --    4.38367   4.38750   4.39275   4.40852   4.41441
 Alpha virt. eigenvalues --    4.41831   4.42949   4.44331   4.45476   4.46837
 Alpha virt. eigenvalues --    4.47490   4.48776   4.50598   4.51572   4.52300
 Alpha virt. eigenvalues --    4.53625   4.57702   4.57884   4.58981   4.59551
 Alpha virt. eigenvalues --    4.61432   4.62241   4.63720   4.64822   4.66397
 Alpha virt. eigenvalues --    4.69822   4.72827   4.78216   4.78952   4.80331
 Alpha virt. eigenvalues --    4.82573   4.86099   4.86433   4.89978   4.91320
 Alpha virt. eigenvalues --    4.92407   4.99699   5.05651   5.05980   5.09624
 Alpha virt. eigenvalues --    5.15846   5.16178   5.28766
          Condensed to atoms (all electrons):
 Mulliken charges:
               1
     1  C    0.007193
     2  C   -0.370098
     3  C    0.007193
     4  C   -0.370098
     5  C    0.010767
     6  C    0.076259
     7  C    0.010767
     8  C    0.076259
     9  C    0.037749
    10  C    0.007113
    11  C    0.007113
    12  C    0.037749
    13  C    0.005788
    14  C    0.005788
    15  C    0.014473
    16  C    0.014473
    17  C    0.040704
    18  C    0.040704
    19  C    0.050930
    20  C    0.050930
    21  C    0.006460
    22  C    0.006460
    23  C    0.089467
    24  C    0.089467
    25  C    0.085261
    26  C    0.085261
    27  C   -0.375859
    28  C   -0.375859
    29  C    0.086980
    30  C    0.086980
    31  C    0.090518
    32  C    0.090518
    33  C    0.006132
    34  C    0.006132
    35  C    0.034990
    36  C    0.034990
    37  C    0.070860
    38  C    0.070860
    39  C    0.119621
    40  C    0.115020
    41  C    0.115020
    42  C    0.119621
    43  C    0.083259
    44  C    0.112780
    45  C    0.112780
    46  C    0.083259
    47  C    0.067933
    48  C    0.067933
    49  C   -0.044485
    50  C   -0.044485
    51  C   -0.004346
    52  C   -0.004346
    53  C   -0.020788
    54  C   -0.020788
    55  C   -0.019796
    56  C   -0.019796
    57  C    0.004748
    58  C    0.004748
    59  C    0.086326
    60  C    0.086326
    61  C   -0.374407
    62  C   -0.374407
    63  C    0.125537
    64  C    0.125537
    65  C    0.129538
    66  C    0.129538
    67  C    0.123988
    68  C    0.123988
    69  C   -0.372065
    70  C   -0.372065
    71  C    0.090541
    72  C    0.090541
    73  C    0.020872
    74  C    0.020872
    75  C   -0.008707
    76  C   -0.008707
    77  C   -0.041482
    78  C   -0.041482
    79  C   -0.351271
    80  C   -0.351271
    81  C    0.035312
    82  C    0.142854
    83  C    0.050302
    84  C    0.050302
    85  Cl   0.020349
    86  Cl   0.018244
    87  Cl   0.018244
    88  Cl   0.020349
    89  Cl   0.017186
    90  Cl   0.017186
    91  Cl  -0.018041
    92  Cl   0.004372
    93  Cl   0.004372
    94  Cl  -0.018041
 Sum of Mulliken charges =  -0.00000
 Mulliken charges with hydrogens summed into heavy atoms:
               1
     1  C    0.007193
     2  C   -0.370098
     3  C    0.007193
     4  C   -0.370098
     5  C    0.010767
     6  C    0.076259
     7  C    0.010767
     8  C    0.076259
     9  C    0.037749
    10  C    0.007113
    11  C    0.007113
    12  C    0.037749
    13  C    0.005788
    14  C    0.005788
    15  C    0.014473
    16  C    0.014473
    17  C    0.040704
    18  C    0.040704
    19  C    0.050930
    20  C    0.050930
    21  C    0.006460
    22  C    0.006460
    23  C    0.089467
    24  C    0.089467
    25  C    0.085261
    26  C    0.085261
    27  C   -0.375859
    28  C   -0.375859
    29  C    0.086980
    30  C    0.086980
    31  C    0.090518
    32  C    0.090518
    33  C    0.006132
    34  C    0.006132
    35  C    0.034990
    36  C    0.034990
    37  C    0.070860
    38  C    0.070860
    39  C    0.119621
    40  C    0.115020
    41  C    0.115020
    42  C    0.119621
    43  C    0.083259
    44  C    0.112780
    45  C    0.112780
    46  C    0.083259
    47  C    0.067933
    48  C    0.067933
    49  C   -0.044485
    50  C   -0.044485
    51  C   -0.004346
    52  C   -0.004346
    53  C   -0.020788
    54  C   -0.020788
    55  C   -0.019796
    56  C   -0.019796
    57  C    0.004748
    58  C    0.004748
    59  C    0.086326
    60  C    0.086326
    61  C   -0.374407
    62  C   -0.374407
    63  C    0.125537
    64  C    0.125537
    65  C    0.129538
    66  C    0.129538
    67  C    0.123988
    68  C    0.123988
    69  C   -0.372065
    70  C   -0.372065
    71  C    0.090541
    72  C    0.090541
    73  C    0.020872
    74  C    0.020872
    75  C   -0.008707
    76  C   -0.008707
    77  C   -0.041482
    78  C   -0.041482
    79  C   -0.351271
    80  C   -0.351271
    81  C    0.035312
    82  C    0.142854
    83  C    0.050302
    84  C    0.050302
    85  Cl   0.020349
    86  Cl   0.018244
    87  Cl   0.018244
    88  Cl   0.020349
    89  Cl   0.017186
    90  Cl   0.017186
    91  Cl  -0.018041
    92  Cl   0.004372
    93  Cl   0.004372
    94  Cl  -0.018041
 Electronic spatial extent (au):  <R**2>=          56701.3189
 Charge=             -0.0000 electrons
 Dipole moment (field-independent basis, Debye):
    X=              0.3992    Y=              0.0000    Z=              1.8024  Tot=              1.8461
 Quadrupole moment (field-independent basis, Debye-Ang):
   XX=           -652.9886   YY=           -586.2586   ZZ=           -580.6681
   XY=              0.0000   XZ=              2.1053   YZ=             -0.0000
 Traceless Quadrupole moment (field-independent basis, Debye-Ang):
   XX=            -46.3501   YY=             20.3798   ZZ=             25.9703
   XY=              0.0000   XZ=              2.1053   YZ=             -0.0000
 Octapole moment (field-independent basis, Debye-Ang**2):
  XXX=           -119.7414  YYY=             -0.0000  ZZZ=            -17.2727  XYY=            -26.7495
  XXY=              0.0001  XXZ=             33.6512  XZZ=             12.5470  YZZ=              0.0000
  YYZ=            -10.6446  XYZ=             -0.0000
 Hexadecapole moment (field-independent basis, Debye-Ang**3):
 XXXX=         -36037.0385 YYYY=         -22888.1040 ZZZZ=         -22117.2638 XXXY=              0.0004
 XXXZ=            291.7829 YYYX=             -0.0001 YYYZ=             -0.0001 ZZZX=            -64.9595
 ZZZY=             -0.0000 XXYY=         -10064.6017 XXZZ=          -9756.9653 YYZZ=          -7514.2690
 XXYZ=             -0.0002 YYXZ=            -51.7662 ZZXY=              0.0001
 N-N= 2.229034909005D+04 E-N=-6.291497684249D+04  KE= 7.759004954955D+03
 No NMR shielding tensors so no spin-rotation constants.
 Leave Link  601 at Thu Jun 30 06:32:02 2022, MaxMem=  1342177280 cpu:              25.4 elap:               1.3
 (Enter /home/mkliu/g16/l9999.exe)
 1\1\GINC-NODE03\FOpt\RB3LYP\6-31G(d,p)\C84Cl10\MKLIU\30-Jun-2022\0\\#P
  opt b3lyp/6-31G(d, p) empiricaldispersion=GD3\\force\\0,1\C,8.2760675
 763,18.9004868183,10.5482935974\C,12.5099222229,19.9891595921,8.903365
 3957\C,8.2729642058,26.8496266425,10.5496885833\C,12.5076673118,25.764
 8373411,8.9043789812\C,7.95477579,18.9494016883,9.1573398245\C,11.8961
 030488,19.5483393398,10.2143381208\C,7.9517105173,26.8009491105,9.1587
 176981\C,11.893504377,26.204718097,10.2155062311\C,8.9618594769,19.110
 9259865,8.1625421954\C,12.1591828264,20.2001634199,11.3815577348\C,12.
 1570931817,25.5526899989,11.3824970252\C,8.9589198854,26.6405603391,8.
 1638635701\C,10.3021473176,19.0560232246,8.6167532007\C,10.2991645139,
 26.6963501934,8.6180939922\C,10.6258081322,18.9388595728,9.9990468926\
 C,10.6227339199,26.8132813655,10.0004287593\C,9.6144899648,18.94970934
 76,11.0077807827\C,9.6114246876,26.8012879179,11.0091586495\C,9.892572
 6649,19.6290584909,12.2580961655\C,9.8900379159,26.1217173019,12.25923
 55543\C,8.8028498265,20.2447207835,12.9370846362\C,8.8007962168,25.504
 9660574,12.9380077514\C,7.4656575051,20.1764066695,12.42855523\C,7.463
 5508917,25.5724145377,12.4295021624\C,7.2031835524,19.5078953284,11.27
 94304215\C,7.2005548605,26.2411240363,11.2806120452\C,6.0883285925,19.
 9321863157,10.348128753\C,6.0860314265,25.8162895676,10.3491613459\C,6
 .6634037121,19.5345231777,9.0070153518\C,6.6607956888,26.2148722711,9.
 0081876885\C,6.3597702939,20.2015378288,7.8692359538\C,6.3576829961,25
 .5480201385,7.8701742018\C,7.3251248934,20.3169677807,6.8169306492\C,7
 .3231273012,25.4337133087,6.8178285989\C,8.6666146719,19.8590676496,6.
 9672554242\C,8.6642591569,25.8926079596,6.9683142659\C,9.7359346487,20
 .5849363188,6.2951897122\C,9.7341454937,25.1678103693,6.2959939451\C,1
 1.0853629695,20.5475779724,6.8436025589\C,12.7614657243,22.1678861053,
 7.7650002417\C,12.7609118489,23.5867076591,7.7652492269\C,11.083544304
 8,25.20602988,6.8444200509\C,11.3428712572,19.7693899868,7.9385063249\
 C,12.9337619252,21.4498755009,8.9285669461\C,12.9326474948,24.30444412
 94,8.9290678825\C,11.3404450544,25.9840343438,7.9395969136\C,13.157351
 3379,22.1481039278,10.1638765886\C,13.1567821749,23.6059569494,10.1641
 324307\C,12.8757887364,21.4680812226,11.3892510469\C,12.8746888544,24.
 2853294795,11.3897454305\C,12.4174387172,22.1789566696,12.5201273722\C
 ,12.4168941842,23.5736995044,12.520372121\C,11.1680514192,20.226216667
 6,12.4438294115\C,11.1659825708,25.5254900627,12.4447593788\C,11.32715
 91358,21.4484731119,13.1501862149\C,11.3260446743,24.3031103771,13.150
 6871726\C,8.962181838,21.4773105282,13.6378182997\C,8.9610906825,24.27
 22552411,13.6383087903\C,7.7219188294,22.1979439442,13.5736123887\C,7.
 7213907075,23.550676223,13.573849809\C,6.6703513167,21.4003779556,12.8
 327163742\C,6.6692006821,24.3476808781,12.8332335986\C,6.1808583777,22
 .1673081203,11.5842957909\C,6.1803065623,23.5808069471,11.5845438401\C
 ,5.8890438062,21.4634488651,10.3962187127\C,5.8879423322,24.2848550873
 ,10.3967138434\C,5.5816780789,22.1682032423,9.2079966971\C,5.581126793
 1,23.5802780261,9.2082445084\C,5.4191924919,21.3938261425,7.8784096924
 \C,5.4180364425,24.3549946252,7.878929347\C,5.9450154109,22.1963214479
 ,6.7071299584\C,5.9444856415,23.5533212725,6.7073681049\C,7.0155356997
 ,21.4796183597,6.0603719187\C,7.0144459061,24.2710869742,6.0608617923\
 C,8.0429338595,22.1519204494,5.4000275825\C,8.0423685886,23.5998190994
 ,5.400281666\C,9.3842346683,21.6904255366,5.4954725674\C,9.3833086676,
 24.0623276599,5.4958887745\C,12.1079391624,21.6259121334,6.5056402306\
 C,12.1069623532,24.1286132996,6.5060791953\C,10.2451568238,22.87672048
 46,5.4523675721\C,11.4924062549,22.8771195119,5.9531731652\C,10.215445
 0968,22.1447750998,13.7004418073\C,10.2148747274,23.6057474835,13.7006
 981914\Cl,4.5068944809,19.0748054815,10.7264989207\Cl,3.6563802783,20.
 9203371627,7.6471163549\Cl,3.654854999,24.8271881067,7.6478019247\Cl,4
 .5039283355,26.6723024129,10.7278321817\Cl,5.2321605464,20.9773480761,
 13.9015426152\Cl,5.2306801502,24.7692125143,13.9022079865\Cl,13.384592
 3856,20.9284088549,5.3244507311\Cl,13.9477771725,18.9028595561,8.47464
 08237\Cl,13.9446738589,26.8524101015,8.4760359635\Cl,13.3830700827,24.
 8275273286,5.3251352351\\Version=ES64L-G16RevA.03\State=1-A\HF=-7803.0
 289019\RMSD=8.626e-09\RMSF=2.695e-05\Dipole=0.4291009,0.0000651,0.5859
 814\Quadrupole=-24.6022505,15.1518877,9.4503628,-0.0191777,20.8642554,
 0.0091391\PG=C01 [X(C84Cl10)]\\@


 ...THOSE SCIENCES ARE VAIN AND FULL OF ERRORS WHICH 
 ARE NOT BORN FROM EXPERIMENT, THE MOTHER OF CERTAINTY...

                          -- LEONARDO DA VINCI, 1452-1519
 Job cpu time:       1 days 10 hours  1 minutes 41.1 seconds.
 Elapsed time:       0 days  1 hours 25 minutes 11.5 seconds.
 File lengths (MBytes):  RWF=   1291 Int=      0 D2E=      0 Chk=    162 Scr=      1
 Normal termination of Gaussian 16 at Thu Jun 30 06:32:04 2022.
