 Entering Gaussian System, Link 0=g16
 Input=12_addons_C84_14_Cl22_rank_8.gjf
 Output=12_addons_C84_14_Cl22_rank_8.log
 Initial command:
 /home/mkliu/g16/l1.exe "/data/scratch/Gau-161199.inp" -scrdir="/data/scratch/"
 Entering Link 1 = /home/mkliu/g16/l1.exe PID=    161200.
  
 Copyright (c) 1988,1990,1992,1993,1995,1998,2003,2009,2016,
            Gaussian, Inc.  All Rights Reserved.
  
 This is part of the Gaussian(R) 16 program.  It is based on
 the Gaussian(R) 09 system (copyright 2009, Gaussian, Inc.),
 the Gaussian(R) 03 system (copyright 2003, Gaussian, Inc.),
 the Gaussian(R) 98 system (copyright 1998, Gaussian, Inc.),
 the Gaussian(R) 94 system (copyright 1995, Gaussian, Inc.),
 the Gaussian 92(TM) system (copyright 1992, Gaussian, Inc.),
 the Gaussian 90(TM) system (copyright 1990, Gaussian, Inc.),
 the Gaussian 88(TM) system (copyright 1988, Gaussian, Inc.),
 the Gaussian 86(TM) system (copyright 1986, Carnegie Mellon
 University), and the Gaussian 82(TM) system (copyright 1983,
 Carnegie Mellon University). Gaussian is a federally registered
 trademark of Gaussian, Inc.
  
 This software contains proprietary and confidential information,
 including trade secrets, belonging to Gaussian, Inc.
  
 This software is provided under written license and may be
 used, copied, transmitted, or stored only in accord with that
 written license.
  
 The following legend is applicable only to US Government
 contracts under FAR:
  
                    RESTRICTED RIGHTS LEGEND
  
 Use, reproduction and disclosure by the US Government is
 subject to restrictions as set forth in subparagraphs (a)
 and (c) of the Commercial Computer Software - Restricted
 Rights clause in FAR 52.227-19.
  
 Gaussian, Inc.
 340 Quinnipiac St., Bldg. 40, Wallingford CT 06492
  
  
 ---------------------------------------------------------------
 Warning -- This program may not be used in any manner that
 competes with the business of Gaussian, Inc. or will provide
 assistance to any competitor of Gaussian, Inc.  The licensee
 of this program is prohibited from giving any competitor of
 Gaussian, Inc. access to this program.  By using this program,
 the user acknowledges that Gaussian, Inc. is engaged in the
 business of creating and licensing software in the field of
 computational chemistry and represents and warrants to the
 licensee that it is not a competitor of Gaussian, Inc. and that
 it will not use this program in any manner prohibited above.
 ---------------------------------------------------------------
  

 Cite this work as:
 Gaussian 16, Revision A.03,
 M. J. Frisch, G. W. Trucks, H. B. Schlegel, G. E. Scuseria, 
 M. A. Robb, J. R. Cheeseman, G. Scalmani, V. Barone, 
 G. A. Petersson, H. Nakatsuji, X. Li, M. Caricato, A. V. Marenich, 
 J. Bloino, B. G. Janesko, R. Gomperts, B. Mennucci, H. P. Hratchian, 
 J. V. Ortiz, A. F. Izmaylov, J. L. Sonnenberg, D. Williams-Young, 
 F. Ding, F. Lipparini, F. Egidi, J. Goings, B. Peng, A. Petrone, 
 T. Henderson, D. Ranasinghe, V. G. Zakrzewski, J. Gao, N. Rega, 
 G. Zheng, W. Liang, M. Hada, M. Ehara, K. Toyota, R. Fukuda, 
 J. Hasegawa, M. Ishida, T. Nakajima, Y. Honda, O. Kitao, H. Nakai, 
 T. Vreven, K. Throssell, J. A. Montgomery, Jr., J. E. Peralta, 
 F. Ogliaro, M. J. Bearpark, J. J. Heyd, E. N. Brothers, K. N. Kudin, 
 V. N. Staroverov, T. A. Keith, R. Kobayashi, J. Normand, 
 K. Raghavachari, A. P. Rendell, J. C. Burant, S. S. Iyengar, 
 J. Tomasi, M. Cossi, J. M. Millam, M. Klene, C. Adamo, R. Cammi, 
 J. W. Ochterski, R. L. Martin, K. Morokuma, O. Farkas, 
 J. B. Foresman, and D. J. Fox, Gaussian, Inc., Wallingford CT, 2016.
 
 ******************************************
 Gaussian 16:  ES64L-G16RevA.03 25-Dec-2016
                26-Jun-2022 
 ******************************************
 %mem=10GB
 %chk=12_addons_C84_14_Cl22_rank_8.chk
 %nprocshared=24
 Will use up to   24 processors via shared memory.
 ------------------------------------------------
 #P opt b3lyp/6-31G(d, p) empiricaldispersion=GD3
 ------------------------------------------------
 1/18=20,19=15,26=3,38=1/1,3;
 2/9=110,12=2,17=6,18=5,40=1/2;
 3/5=1,6=6,7=101,11=2,25=1,30=1,71=1,74=-5,124=31/1,2,3;
 4//1;
 5/5=2,38=5/2;
 6/7=2,8=2,9=2,10=2,28=1/1;
 7//1,2,3,16;
 1/18=20,19=15,26=3/3(2);
 2/9=110/2;
 99//99;
 2/9=110/2;
 3/5=1,6=6,7=101,11=2,25=1,30=1,71=1,74=-5,124=31/1,2,3;
 4/5=5,16=3,69=1/1;
 5/5=2,38=5/2;
 7//1,2,3,16;
 1/18=20,19=15,26=3/3(-5);
 2/9=110/2;
 6/7=2,8=2,9=2,10=2,19=2,28=1/1;
 99/9=1/99;
 Leave Link    1 at Sun Jun 26 21:54:29 2022, MaxMem=  1342177280 cpu:               0.7 elap:               0.1
 (Enter /home/mkliu/g16/l101.exe)
 -----
 force
 -----
 Symbolic Z-matrix:
 Charge =  0 Multiplicity = 1
 C                     8.29889   18.92122   10.51127 
 C                     12.49997   20.00598   8.87444 
 C                     8.29523   26.84811   10.51837 
 C                     12.28314   25.58644   8.9383 
 C                     7.98045   18.98122   9.14566 
 C                     11.88207   19.58089   10.17212 
 C                     7.98148   26.78555   9.14699 
 C                     11.85416   26.16904   10.17669 
 C                     8.97482   19.1501   8.14107 
 C                     12.10398   20.2476   11.34219 
 C                     12.09507   25.51537   11.35948 
 C                     8.97732   26.63751   8.13938 
 C                     10.29947   19.09012   8.58633 
 C                     10.29796   26.72162   8.59236 
 C                     10.62277   18.98007   9.96852 
 C                     10.61091   26.8314   9.97778 
 C                     9.62955   18.99879   10.97329 
 C                     9.62441   26.79063   10.98344 
 C                     9.91445   19.64435   12.21757 
 C                     9.91311   26.12649   12.22791 
 C                     8.78912   20.07477   13.11681 
 C                     8.78431   25.6843   13.11826 
 C                     7.46365   20.17178   12.40859 
 C                     7.45925   25.5862   12.41014 
 C                     7.23291   19.55324   11.25018 
 C                     7.23137   26.20519   11.25153 
 C                     6.12285   19.97032   10.32566 
 C                     6.12544   25.78564   10.3242 
 C                     6.68904   19.56935   8.99877 
 C                     6.69666   26.18685   8.99999 
 C                     6.38516   20.22914   7.86388 
 C                     6.39602   25.52513   7.86448 
 C                     7.3443    20.33609   6.80824 
 C                     7.35708   25.42251   6.81227 
 C                     8.67798   19.89273   6.95618 
 C                     8.68043   25.88485   6.94886 
 C                     9.73557   20.61066   6.28358 
 C                     9.73704   25.16214   6.27021 
 C                     11.07165   20.57499   6.83038 
 C                     12.76974   22.15344   7.74374 
 C                     12.7279   23.57674   7.74399 
 C                     11.06419   25.16684   6.8281 
 C                     11.3384   19.80042   7.92074 
 C                     12.91783   21.45374   8.90501 
 C                     12.89833   24.31483   8.92683 
 C                     11.33965   25.96538   7.95195 
 C                     13.11154   22.16683   10.14604 
 C                     13.11615   23.59886   10.1539 
 C                     12.80029   21.51518   11.3572 
 C                     12.78309   24.25501   11.36352 
 C                     12.39739   22.19779   12.51772 
 C                     12.38968   23.56667   12.52394 
 C                     11.14153   20.23384   12.39158 
 C                     11.13922   25.54179   12.41732 
 C                     11.43722   21.37765   13.33768 
 C                     11.43278   24.38448   13.35099 
 C                     8.97954   21.50198   13.54893 
 C                     8.97635   24.25693   13.54954 
 C                     7.77619   22.19549   13.43818 
 C                     7.77448   23.56169   13.43797 
 C                     6.69635   21.40814   12.77399 
 C                     6.69394   24.34822   12.77424 
 C                     6.2365    22.17592   11.53638 
 C                     6.23611   23.58039   11.53642 
 C                     5.95017   21.48309   10.35593 
 C                     5.95146   24.27337   10.35576 
 C                     5.64513   22.17831   9.17565 
 C                     5.64677   23.578    9.17559 
 C                     5.44737   21.40558   7.87163 
 C                     5.4549    24.35152   7.87194 
 C                     5.96405   22.19955   6.70586 
 C                     5.96789   23.55592   6.70697 
 C                     7.02209   21.4879   6.05621 
 C                     7.0333    24.26107   6.0613 
 C                     8.03948   22.15578   5.38234 
 C                     8.04044   23.58905   5.39036 
 C                     9.37655   21.69489   5.46228 
 C                     9.38469   24.04708   5.48704 
 C                     12.09829   21.62806   6.49045 
 C                     11.88746   24.02145   6.68681 
 C                     10.22042   22.87795   5.40562 
 C                     11.45896   22.87822   5.96649 
 C                     10.18992   22.1763   13.60986 
 C                     10.1872   23.58364   13.61306 
 Cl                    4.55477   19.18967   10.72503 
 Cl                    3.71157   20.96019   7.72822 
 Cl                    3.72021   24.80407   7.7257 
 Cl                    4.55565   26.56724   10.71808 
 Cl                    5.27024   21.09346   13.82785 
 Cl                    5.26626   24.65941   13.82751 
 Cl                    13.31305   20.94832   5.33039 
 Cl                    13.91441   18.96674   8.42122 
 Cl                    12.14585   20.79591   14.89137 
 Cl                    8.68625   18.96926   14.55556 
 Cl                    12.14806   24.94246   14.91062 
 Cl                    8.67806   26.78817   14.55771 
 
 ITRead=  0  0  0  0  0  0  0  0  0  0  0  0  0  0  0  0  0  0  0  0
 ITRead=  0  0  0  0  0  0  0  0  0  0  0  0  0  0  0  0  0  0  0  0
 ITRead=  0  0  0  0  0  0  0  0  0  0  0  0  0  0  0  0  0  0  0  0
 ITRead=  0  0  0  0  0  0  0  0  0  0  0  0  0  0  0  0  0  0  0  0
 ITRead=  0  0  0  0  0  0  0  0  0  0  0  0  0  0  0  0
 MicOpt= -1 -1 -1 -1 -1 -1 -1 -1 -1 -1 -1 -1 -1 -1 -1 -1 -1 -1 -1 -1
 MicOpt= -1 -1 -1 -1 -1 -1 -1 -1 -1 -1 -1 -1 -1 -1 -1 -1 -1 -1 -1 -1
 MicOpt= -1 -1 -1 -1 -1 -1 -1 -1 -1 -1 -1 -1 -1 -1 -1 -1 -1 -1 -1 -1
 MicOpt= -1 -1 -1 -1 -1 -1 -1 -1 -1 -1 -1 -1 -1 -1 -1 -1 -1 -1 -1 -1
 MicOpt= -1 -1 -1 -1 -1 -1 -1 -1 -1 -1 -1 -1 -1 -1 -1 -1
 NAtoms=     96 NQM=       96 NQMF=       0 NMMI=      0 NMMIF=      0
                NMic=       0 NMicF=      0.
                    Isotopes and Nuclear Properties:
 (Nuclear quadrupole moments (NQMom) in fm**2, nuclear magnetic moments (NMagM)
  in nuclear magnetons)

  Atom         1           2           3           4           5           6           7           8           9          10
 IAtWgt=          12          12          12          12          12          12          12          12          12          12
 AtmWgt=  12.0000000  12.0000000  12.0000000  12.0000000  12.0000000  12.0000000  12.0000000  12.0000000  12.0000000  12.0000000
 NucSpn=           0           0           0           0           0           0           0           0           0           0
 AtZEff=  -0.0000000  -0.0000000  -0.0000000  -0.0000000  -0.0000000  -0.0000000  -0.0000000  -0.0000000  -0.0000000  -0.0000000
 NQMom=    0.0000000   0.0000000   0.0000000   0.0000000   0.0000000   0.0000000   0.0000000   0.0000000   0.0000000   0.0000000
 NMagM=    0.0000000   0.0000000   0.0000000   0.0000000   0.0000000   0.0000000   0.0000000   0.0000000   0.0000000   0.0000000
 AtZNuc=   6.0000000   6.0000000   6.0000000   6.0000000   6.0000000   6.0000000   6.0000000   6.0000000   6.0000000   6.0000000

  Atom        11          12          13          14          15          16          17          18          19          20
 IAtWgt=          12          12          12          12          12          12          12          12          12          12
 AtmWgt=  12.0000000  12.0000000  12.0000000  12.0000000  12.0000000  12.0000000  12.0000000  12.0000000  12.0000000  12.0000000
 NucSpn=           0           0           0           0           0           0           0           0           0           0
 AtZEff=  -0.0000000  -0.0000000  -0.0000000  -0.0000000  -0.0000000  -0.0000000  -0.0000000  -0.0000000  -0.0000000  -0.0000000
 NQMom=    0.0000000   0.0000000   0.0000000   0.0000000   0.0000000   0.0000000   0.0000000   0.0000000   0.0000000   0.0000000
 NMagM=    0.0000000   0.0000000   0.0000000   0.0000000   0.0000000   0.0000000   0.0000000   0.0000000   0.0000000   0.0000000
 AtZNuc=   6.0000000   6.0000000   6.0000000   6.0000000   6.0000000   6.0000000   6.0000000   6.0000000   6.0000000   6.0000000

  Atom        21          22          23          24          25          26          27          28          29          30
 IAtWgt=          12          12          12          12          12          12          12          12          12          12
 AtmWgt=  12.0000000  12.0000000  12.0000000  12.0000000  12.0000000  12.0000000  12.0000000  12.0000000  12.0000000  12.0000000
 NucSpn=           0           0           0           0           0           0           0           0           0           0
 AtZEff=  -0.0000000  -0.0000000  -0.0000000  -0.0000000  -0.0000000  -0.0000000  -0.0000000  -0.0000000  -0.0000000  -0.0000000
 NQMom=    0.0000000   0.0000000   0.0000000   0.0000000   0.0000000   0.0000000   0.0000000   0.0000000   0.0000000   0.0000000
 NMagM=    0.0000000   0.0000000   0.0000000   0.0000000   0.0000000   0.0000000   0.0000000   0.0000000   0.0000000   0.0000000
 AtZNuc=   6.0000000   6.0000000   6.0000000   6.0000000   6.0000000   6.0000000   6.0000000   6.0000000   6.0000000   6.0000000

  Atom        31          32          33          34          35          36          37          38          39          40
 IAtWgt=          12          12          12          12          12          12          12          12          12          12
 AtmWgt=  12.0000000  12.0000000  12.0000000  12.0000000  12.0000000  12.0000000  12.0000000  12.0000000  12.0000000  12.0000000
 NucSpn=           0           0           0           0           0           0           0           0           0           0
 AtZEff=  -0.0000000  -0.0000000  -0.0000000  -0.0000000  -0.0000000  -0.0000000  -0.0000000  -0.0000000  -0.0000000  -0.0000000
 NQMom=    0.0000000   0.0000000   0.0000000   0.0000000   0.0000000   0.0000000   0.0000000   0.0000000   0.0000000   0.0000000
 NMagM=    0.0000000   0.0000000   0.0000000   0.0000000   0.0000000   0.0000000   0.0000000   0.0000000   0.0000000   0.0000000
 AtZNuc=   6.0000000   6.0000000   6.0000000   6.0000000   6.0000000   6.0000000   6.0000000   6.0000000   6.0000000   6.0000000

  Atom        41          42          43          44          45          46          47          48          49          50
 IAtWgt=          12          12          12          12          12          12          12          12          12          12
 AtmWgt=  12.0000000  12.0000000  12.0000000  12.0000000  12.0000000  12.0000000  12.0000000  12.0000000  12.0000000  12.0000000
 NucSpn=           0           0           0           0           0           0           0           0           0           0
 AtZEff=  -0.0000000  -0.0000000  -0.0000000  -0.0000000  -0.0000000  -0.0000000  -0.0000000  -0.0000000  -0.0000000  -0.0000000
 NQMom=    0.0000000   0.0000000   0.0000000   0.0000000   0.0000000   0.0000000   0.0000000   0.0000000   0.0000000   0.0000000
 NMagM=    0.0000000   0.0000000   0.0000000   0.0000000   0.0000000   0.0000000   0.0000000   0.0000000   0.0000000   0.0000000
 AtZNuc=   6.0000000   6.0000000   6.0000000   6.0000000   6.0000000   6.0000000   6.0000000   6.0000000   6.0000000   6.0000000

  Atom        51          52          53          54          55          56          57          58          59          60
 IAtWgt=          12          12          12          12          12          12          12          12          12          12
 AtmWgt=  12.0000000  12.0000000  12.0000000  12.0000000  12.0000000  12.0000000  12.0000000  12.0000000  12.0000000  12.0000000
 NucSpn=           0           0           0           0           0           0           0           0           0           0
 AtZEff=  -0.0000000  -0.0000000  -0.0000000  -0.0000000  -0.0000000  -0.0000000  -0.0000000  -0.0000000  -0.0000000  -0.0000000
 NQMom=    0.0000000   0.0000000   0.0000000   0.0000000   0.0000000   0.0000000   0.0000000   0.0000000   0.0000000   0.0000000
 NMagM=    0.0000000   0.0000000   0.0000000   0.0000000   0.0000000   0.0000000   0.0000000   0.0000000   0.0000000   0.0000000
 AtZNuc=   6.0000000   6.0000000   6.0000000   6.0000000   6.0000000   6.0000000   6.0000000   6.0000000   6.0000000   6.0000000

  Atom        61          62          63          64          65          66          67          68          69          70
 IAtWgt=          12          12          12          12          12          12          12          12          12          12
 AtmWgt=  12.0000000  12.0000000  12.0000000  12.0000000  12.0000000  12.0000000  12.0000000  12.0000000  12.0000000  12.0000000
 NucSpn=           0           0           0           0           0           0           0           0           0           0
 AtZEff=  -0.0000000  -0.0000000  -0.0000000  -0.0000000  -0.0000000  -0.0000000  -0.0000000  -0.0000000  -0.0000000  -0.0000000
 NQMom=    0.0000000   0.0000000   0.0000000   0.0000000   0.0000000   0.0000000   0.0000000   0.0000000   0.0000000   0.0000000
 NMagM=    0.0000000   0.0000000   0.0000000   0.0000000   0.0000000   0.0000000   0.0000000   0.0000000   0.0000000   0.0000000
 AtZNuc=   6.0000000   6.0000000   6.0000000   6.0000000   6.0000000   6.0000000   6.0000000   6.0000000   6.0000000   6.0000000

  Atom        71          72          73          74          75          76          77          78          79          80
 IAtWgt=          12          12          12          12          12          12          12          12          12          12
 AtmWgt=  12.0000000  12.0000000  12.0000000  12.0000000  12.0000000  12.0000000  12.0000000  12.0000000  12.0000000  12.0000000
 NucSpn=           0           0           0           0           0           0           0           0           0           0
 AtZEff=  -0.0000000  -0.0000000  -0.0000000  -0.0000000  -0.0000000  -0.0000000  -0.0000000  -0.0000000  -0.0000000  -0.0000000
 NQMom=    0.0000000   0.0000000   0.0000000   0.0000000   0.0000000   0.0000000   0.0000000   0.0000000   0.0000000   0.0000000
 NMagM=    0.0000000   0.0000000   0.0000000   0.0000000   0.0000000   0.0000000   0.0000000   0.0000000   0.0000000   0.0000000
 AtZNuc=   6.0000000   6.0000000   6.0000000   6.0000000   6.0000000   6.0000000   6.0000000   6.0000000   6.0000000   6.0000000

  Atom        81          82          83          84          85          86          87          88          89          90
 IAtWgt=          12          12          12          12          35          35          35          35          35          35
 AtmWgt=  12.0000000  12.0000000  12.0000000  12.0000000  34.9688527  34.9688527  34.9688527  34.9688527  34.9688527  34.9688527
 NucSpn=           0           0           0           0           3           3           3           3           3           3
 AtZEff=  -0.0000000  -0.0000000  -0.0000000  -0.0000000  -0.0000000  -0.0000000  -0.0000000  -0.0000000  -0.0000000  -0.0000000
 NQMom=    0.0000000   0.0000000   0.0000000   0.0000000  -8.1650000  -8.1650000  -8.1650000  -8.1650000  -8.1650000  -8.1650000
 NMagM=    0.0000000   0.0000000   0.0000000   0.0000000   0.8218740   0.8218740   0.8218740   0.8218740   0.8218740   0.8218740
 AtZNuc=   6.0000000   6.0000000   6.0000000   6.0000000  17.0000000  17.0000000  17.0000000  17.0000000  17.0000000  17.0000000

  Atom        91          92          93          94          95          96
 IAtWgt=          35          35          35          35          35          35
 AtmWgt=  34.9688527  34.9688527  34.9688527  34.9688527  34.9688527  34.9688527
 NucSpn=           3           3           3           3           3           3
 AtZEff=  -0.0000000  -0.0000000  -0.0000000  -0.0000000  -0.0000000  -0.0000000
 NQMom=   -8.1650000  -8.1650000  -8.1650000  -8.1650000  -8.1650000  -8.1650000
 NMagM=    0.8218740   0.8218740   0.8218740   0.8218740   0.8218740   0.8218740
 AtZNuc=  17.0000000  17.0000000  17.0000000  17.0000000  17.0000000  17.0000000
 Leave Link  101 at Sun Jun 26 21:54:29 2022, MaxMem=  1342177280 cpu:               6.7 elap:               0.3
 (Enter /home/mkliu/g16/l103.exe)

 GradGradGradGradGradGradGradGradGradGradGradGradGradGradGradGradGradGrad
 Berny optimization.
 Initialization pass.
                           ----------------------------
                           !    Initial Parameters    !
                           ! (Angstroms and Degrees)  !
 --------------------------                            --------------------------
 ! Name  Definition              Value          Derivative Info.                !
 --------------------------------------------------------------------------------
 ! R1    R(1,5)                  1.4035         estimate D2E/DX2                !
 ! R2    R(1,17)                 1.4107         estimate D2E/DX2                !
 ! R3    R(1,25)                 1.4428         estimate D2E/DX2                !
 ! R4    R(2,6)                  1.4988         estimate D2E/DX2                !
 ! R5    R(2,43)                 1.5169         estimate D2E/DX2                !
 ! R6    R(2,44)                 1.5072         estimate D2E/DX2                !
 ! R7    R(2,92)                 1.8128         estimate D2E/DX2                !
 ! R8    R(3,7)                  1.4082         estimate D2E/DX2                !
 ! R9    R(3,18)                 1.4094         estimate D2E/DX2                !
 ! R10   R(3,26)                 1.4431         estimate D2E/DX2                !
 ! R11   R(4,8)                  1.4342         estimate D2E/DX2                !
 ! R12   R(4,45)                 1.4127         estimate D2E/DX2                !
 ! R13   R(4,46)                 1.4166         estimate D2E/DX2                !
 ! R14   R(5,9)                  1.4236         estimate D2E/DX2                !
 ! R15   R(5,29)                 1.4266         estimate D2E/DX2                !
 ! R16   R(6,10)                 1.3648         estimate D2E/DX2                !
 ! R17   R(6,15)                 1.4101         estimate D2E/DX2                !
 ! R18   R(7,12)                 1.4244         estimate D2E/DX2                !
 ! R19   R(7,30)                 1.4251         estimate D2E/DX2                !
 ! R20   R(8,11)                 1.3727         estimate D2E/DX2                !
 ! R21   R(8,16)                 1.4227         estimate D2E/DX2                !
 ! R22   R(9,13)                 1.3988         estimate D2E/DX2                !
 ! R23   R(9,35)                 1.4295         estimate D2E/DX2                !
 ! R24   R(10,49)                1.4463         estimate D2E/DX2                !
 ! R25   R(10,53)                1.424          estimate D2E/DX2                !
 ! R26   R(11,50)                1.4359         estimate D2E/DX2                !
 ! R27   R(11,54)                1.426          estimate D2E/DX2                !
 ! R28   R(12,14)                1.3987         estimate D2E/DX2                !
 ! R29   R(12,36)                1.4394         estimate D2E/DX2                !
 ! R30   R(13,15)                1.4238         estimate D2E/DX2                !
 ! R31   R(13,43)                1.4237         estimate D2E/DX2                !
 ! R32   R(14,16)                1.4246         estimate D2E/DX2                !
 ! R33   R(14,46)                1.4378         estimate D2E/DX2                !
 ! R34   R(15,17)                1.4129         estimate D2E/DX2                !
 ! R35   R(16,18)                1.4093         estimate D2E/DX2                !
 ! R36   R(17,19)                1.4304         estimate D2E/DX2                !
 ! R37   R(18,20)                1.4398         estimate D2E/DX2                !
 ! R38   R(19,21)                1.5034         estimate D2E/DX2                !
 ! R39   R(19,53)                1.3724         estimate D2E/DX2                !
 ! R40   R(20,22)                1.5041         estimate D2E/DX2                !
 ! R41   R(20,54)                1.3715         estimate D2E/DX2                !
 ! R42   R(21,23)                1.5059         estimate D2E/DX2                !
 ! R43   R(21,57)                1.5033         estimate D2E/DX2                !
 ! R44   R(21,94)                1.8173         estimate D2E/DX2                !
 ! R45   R(22,24)                1.5056         estimate D2E/DX2                !
 ! R46   R(22,58)                1.5034         estimate D2E/DX2                !
 ! R47   R(22,96)                1.8171         estimate D2E/DX2                !
 ! R48   R(23,25)                1.3333         estimate D2E/DX2                !
 ! R49   R(23,61)                1.5003         estimate D2E/DX2                !
 ! R50   R(24,26)                1.3332         estimate D2E/DX2                !
 ! R51   R(24,62)                1.5003         estimate D2E/DX2                !
 ! R52   R(25,27)                1.5036         estimate D2E/DX2                !
 ! R53   R(26,28)                1.503          estimate D2E/DX2                !
 ! R54   R(27,29)                1.4973         estimate D2E/DX2                !
 ! R55   R(27,65)                1.5229         estimate D2E/DX2                !
 ! R56   R(27,85)                1.7966         estimate D2E/DX2                !
 ! R57   R(28,30)                1.4969         estimate D2E/DX2                !
 ! R58   R(28,66)                1.5226         estimate D2E/DX2                !
 ! R59   R(28,88)                1.7973         estimate D2E/DX2                !
 ! R60   R(29,31)                1.3475         estimate D2E/DX2                !
 ! R61   R(30,32)                1.3482         estimate D2E/DX2                !
 ! R62   R(31,33)                1.4303         estimate D2E/DX2                !
 ! R63   R(31,69)                1.5045         estimate D2E/DX2                !
 ! R64   R(32,34)                1.4287         estimate D2E/DX2                !
 ! R65   R(32,70)                1.5044         estimate D2E/DX2                !
 ! R66   R(33,35)                1.4132         estimate D2E/DX2                !
 ! R67   R(33,73)                1.4128         estimate D2E/DX2                !
 ! R68   R(34,36)                1.4084         estimate D2E/DX2                !
 ! R69   R(34,74)                1.4205         estimate D2E/DX2                !
 ! R70   R(35,37)                1.4444         estimate D2E/DX2                !
 ! R71   R(36,38)                1.4489         estimate D2E/DX2                !
 ! R72   R(37,39)                1.4441         estimate D2E/DX2                !
 ! R73   R(37,77)                1.4068         estimate D2E/DX2                !
 ! R74   R(38,42)                1.4396         estimate D2E/DX2                !
 ! R75   R(38,78)                1.4074         estimate D2E/DX2                !
 ! R76   R(39,43)                1.3638         estimate D2E/DX2                !
 ! R77   R(39,79)                1.5095         estimate D2E/DX2                !
 ! R78   R(40,41)                1.4239         estimate D2E/DX2                !
 ! R79   R(40,44)                1.3638         estimate D2E/DX2                !
 ! R80   R(40,79)                1.5158         estimate D2E/DX2                !
 ! R81   R(41,45)                1.4046         estimate D2E/DX2                !
 ! R82   R(41,80)                1.4219         estimate D2E/DX2                !
 ! R83   R(42,46)                1.4059         estimate D2E/DX2                !
 ! R84   R(42,80)                1.4176         estimate D2E/DX2                !
 ! R85   R(44,47)                1.4444         estimate D2E/DX2                !
 ! R86   R(45,48)                1.4373         estimate D2E/DX2                !
 ! R87   R(47,48)                1.4321         estimate D2E/DX2                !
 ! R88   R(47,49)                1.4101         estimate D2E/DX2                !
 ! R89   R(48,50)                1.4159         estimate D2E/DX2                !
 ! R90   R(49,51)                1.4054         estimate D2E/DX2                !
 ! R91   R(50,52)                1.4054         estimate D2E/DX2                !
 ! R92   R(51,52)                1.3689         estimate D2E/DX2                !
 ! R93   R(51,55)                1.5056         estimate D2E/DX2                !
 ! R94   R(52,56)                1.5061         estimate D2E/DX2                !
 ! R95   R(53,55)                1.5135         estimate D2E/DX2                !
 ! R96   R(54,56)                1.5157         estimate D2E/DX2                !
 ! R97   R(55,83)                1.5059         estimate D2E/DX2                !
 ! R98   R(55,93)                1.804          estimate D2E/DX2                !
 ! R99   R(56,84)                1.5038         estimate D2E/DX2                !
 ! R100  R(56,95)                1.8043         estimate D2E/DX2                !
 ! R101  R(57,59)                1.3933         estimate D2E/DX2                !
 ! R102  R(57,83)                1.3869         estimate D2E/DX2                !
 ! R103  R(58,60)                1.3929         estimate D2E/DX2                !
 ! R104  R(58,84)                1.3869         estimate D2E/DX2                !
 ! R105  R(59,60)                1.3662         estimate D2E/DX2                !
 ! R106  R(59,61)                1.4923         estimate D2E/DX2                !
 ! R107  R(60,62)                1.4922         estimate D2E/DX2                !
 ! R108  R(61,63)                1.5273         estimate D2E/DX2                !
 ! R109  R(61,89)                1.801          estimate D2E/DX2                !
 ! R110  R(62,64)                1.5269         estimate D2E/DX2                !
 ! R111  R(62,90)                1.8012         estimate D2E/DX2                !
 ! R112  R(63,64)                1.4045         estimate D2E/DX2                !
 ! R113  R(63,65)                1.3984         estimate D2E/DX2                !
 ! R114  R(64,66)                1.3983         estimate D2E/DX2                !
 ! R115  R(65,67)                1.4034         estimate D2E/DX2                !
 ! R116  R(66,68)                1.4033         estimate D2E/DX2                !
 ! R117  R(67,68)                1.3997         estimate D2E/DX2                !
 ! R118  R(67,69)                1.5286         estimate D2E/DX2                !
 ! R119  R(68,70)                1.528          estimate D2E/DX2                !
 ! R120  R(69,71)                1.5021         estimate D2E/DX2                !
 ! R121  R(69,86)                1.7978         estimate D2E/DX2                !
 ! R122  R(70,72)                1.5011         estimate D2E/DX2                !
 ! R123  R(70,87)                1.7987         estimate D2E/DX2                !
 ! R124  R(71,72)                1.3564         estimate D2E/DX2                !
 ! R125  R(71,73)                1.4311         estimate D2E/DX2                !
 ! R126  R(72,74)                1.4315         estimate D2E/DX2                !
 ! R127  R(73,75)                1.3911         estimate D2E/DX2                !
 ! R128  R(74,76)                1.3842         estimate D2E/DX2                !
 ! R129  R(75,76)                1.4333         estimate D2E/DX2                !
 ! R130  R(75,77)                1.4165         estimate D2E/DX2                !
 ! R131  R(76,78)                1.4234         estimate D2E/DX2                !
 ! R132  R(77,81)                1.4543         estimate D2E/DX2                !
 ! R133  R(78,81)                1.4394         estimate D2E/DX2                !
 ! R134  R(79,82)                1.4987         estimate D2E/DX2                !
 ! R135  R(79,91)                1.812          estimate D2E/DX2                !
 ! R136  R(80,82)                1.4175         estimate D2E/DX2                !
 ! R137  R(81,82)                1.3596         estimate D2E/DX2                !
 ! R138  R(83,84)                1.4074         estimate D2E/DX2                !
 ! A1    A(5,1,17)             122.0273         estimate D2E/DX2                !
 ! A2    A(5,1,25)             108.1755         estimate D2E/DX2                !
 ! A3    A(17,1,25)            120.3361         estimate D2E/DX2                !
 ! A4    A(6,2,43)             100.9657         estimate D2E/DX2                !
 ! A5    A(6,2,44)             111.6647         estimate D2E/DX2                !
 ! A6    A(6,2,92)             112.0575         estimate D2E/DX2                !
 ! A7    A(43,2,44)            110.807          estimate D2E/DX2                !
 ! A8    A(43,2,92)            111.2608         estimate D2E/DX2                !
 ! A9    A(44,2,92)            109.8428         estimate D2E/DX2                !
 ! A10   A(7,3,18)             121.9828         estimate D2E/DX2                !
 ! A11   A(7,3,26)             108.1019         estimate D2E/DX2                !
 ! A12   A(18,3,26)            120.6259         estimate D2E/DX2                !
 ! A13   A(8,4,45)             120.193          estimate D2E/DX2                !
 ! A14   A(8,4,46)             107.0585         estimate D2E/DX2                !
 ! A15   A(45,4,46)            121.6809         estimate D2E/DX2                !
 ! A16   A(1,5,9)              122.2228         estimate D2E/DX2                !
 ! A17   A(1,5,29)             108.8567         estimate D2E/DX2                !
 ! A18   A(9,5,29)             120.7134         estimate D2E/DX2                !
 ! A19   A(2,6,10)             122.4571         estimate D2E/DX2                !
 ! A20   A(2,6,15)             111.3467         estimate D2E/DX2                !
 ! A21   A(10,6,15)            118.4981         estimate D2E/DX2                !
 ! A22   A(3,7,12)             122.5306         estimate D2E/DX2                !
 ! A23   A(3,7,30)             108.6628         estimate D2E/DX2                !
 ! A24   A(12,7,30)            120.91           estimate D2E/DX2                !
 ! A25   A(4,8,11)             119.872          estimate D2E/DX2                !
 ! A26   A(4,8,16)             109.2551         estimate D2E/DX2                !
 ! A27   A(11,8,16)            119.7059         estimate D2E/DX2                !
 ! A28   A(5,9,13)             115.58           estimate D2E/DX2                !
 ! A29   A(5,9,35)             120.0997         estimate D2E/DX2                !
 ! A30   A(13,9,35)            118.8667         estimate D2E/DX2                !
 ! A31   A(6,10,49)            121.0171         estimate D2E/DX2                !
 ! A32   A(6,10,53)            121.1421         estimate D2E/DX2                !
 ! A33   A(49,10,53)           109.0392         estimate D2E/DX2                !
 ! A34   A(8,11,50)            120.2973         estimate D2E/DX2                !
 ! A35   A(8,11,54)            120.847          estimate D2E/DX2                !
 ! A36   A(50,11,54)           109.5941         estimate D2E/DX2                !
 ! A37   A(7,12,14)            115.1362         estimate D2E/DX2                !
 ! A38   A(7,12,36)            119.6841         estimate D2E/DX2                !
 ! A39   A(14,12,36)           119.6064         estimate D2E/DX2                !
 ! A40   A(9,13,15)            121.8293         estimate D2E/DX2                !
 ! A41   A(9,13,43)            121.3897         estimate D2E/DX2                !
 ! A42   A(15,13,43)           109.0695         estimate D2E/DX2                !
 ! A43   A(12,14,16)           121.8042         estimate D2E/DX2                !
 ! A44   A(12,14,46)           120.5447         estimate D2E/DX2                !
 ! A45   A(16,14,46)           108.3336         estimate D2E/DX2                !
 ! A46   A(6,15,13)            108.0617         estimate D2E/DX2                !
 ! A47   A(6,15,17)            121.2964         estimate D2E/DX2                !
 ! A48   A(13,15,17)           121.9861         estimate D2E/DX2                !
 ! A49   A(8,16,14)            106.9823         estimate D2E/DX2                !
 ! A50   A(8,16,18)            119.8986         estimate D2E/DX2                !
 ! A51   A(14,16,18)           122.545          estimate D2E/DX2                !
 ! A52   A(1,17,15)            115.431          estimate D2E/DX2                !
 ! A53   A(1,17,19)            119.8392         estimate D2E/DX2                !
 ! A54   A(15,17,19)           118.9831         estimate D2E/DX2                !
 ! A55   A(3,18,16)            115.0564         estimate D2E/DX2                !
 ! A56   A(3,18,20)            119.5457         estimate D2E/DX2                !
 ! A57   A(16,18,20)           119.324          estimate D2E/DX2                !
 ! A58   A(17,19,21)           120.0276         estimate D2E/DX2                !
 ! A59   A(17,19,53)           118.8304         estimate D2E/DX2                !
 ! A60   A(21,19,53)           118.063          estimate D2E/DX2                !
 ! A61   A(18,20,22)           119.7851         estimate D2E/DX2                !
 ! A62   A(18,20,54)           119.686          estimate D2E/DX2                !
 ! A63   A(22,20,54)           117.6335         estimate D2E/DX2                !
 ! A64   A(19,21,23)           113.3262         estimate D2E/DX2                !
 ! A65   A(19,21,57)           110.4212         estimate D2E/DX2                !
 ! A66   A(19,21,94)           109.983          estimate D2E/DX2                !
 ! A67   A(23,21,57)           100.6913         estimate D2E/DX2                !
 ! A68   A(23,21,94)           111.2032         estimate D2E/DX2                !
 ! A69   A(57,21,94)           110.9237         estimate D2E/DX2                !
 ! A70   A(20,22,24)           113.6544         estimate D2E/DX2                !
 ! A71   A(20,22,58)           110.6746         estimate D2E/DX2                !
 ! A72   A(20,22,96)           109.5243         estimate D2E/DX2                !
 ! A73   A(24,22,58)           100.6888         estimate D2E/DX2                !
 ! A74   A(24,22,96)           111.1427         estimate D2E/DX2                !
 ! A75   A(58,22,96)           110.9155         estimate D2E/DX2                !
 ! A76   A(21,23,25)           122.0747         estimate D2E/DX2                !
 ! A77   A(21,23,61)           112.8728         estimate D2E/DX2                !
 ! A78   A(25,23,61)           120.3576         estimate D2E/DX2                !
 ! A79   A(22,24,26)           121.9318         estimate D2E/DX2                !
 ! A80   A(22,24,62)           112.8648         estimate D2E/DX2                !
 ! A81   A(26,24,62)           120.4523         estimate D2E/DX2                !
 ! A82   A(1,25,23)            121.3521         estimate D2E/DX2                !
 ! A83   A(1,25,27)            110.6128         estimate D2E/DX2                !
 ! A84   A(23,25,27)           122.2273         estimate D2E/DX2                !
 ! A85   A(3,26,24)            121.4888         estimate D2E/DX2                !
 ! A86   A(3,26,28)            110.6919         estimate D2E/DX2                !
 ! A87   A(24,26,28)           122.1642         estimate D2E/DX2                !
 ! A88   A(25,27,29)           101.0365         estimate D2E/DX2                !
 ! A89   A(25,27,65)           110.3051         estimate D2E/DX2                !
 ! A90   A(25,27,85)           112.7768         estimate D2E/DX2                !
 ! A91   A(29,27,65)           109.0565         estimate D2E/DX2                !
 ! A92   A(29,27,85)           114.2469         estimate D2E/DX2                !
 ! A93   A(65,27,85)           109.1621         estimate D2E/DX2                !
 ! A94   A(26,28,30)           100.964          estimate D2E/DX2                !
 ! A95   A(26,28,66)           110.398          estimate D2E/DX2                !
 ! A96   A(26,28,88)           112.7105         estimate D2E/DX2                !
 ! A97   A(30,28,66)           109.1564         estimate D2E/DX2                !
 ! A98   A(30,28,88)           114.2422         estimate D2E/DX2                !
 ! A99   A(66,28,88)           109.1224         estimate D2E/DX2                !
 ! A100  A(5,29,27)            111.1891         estimate D2E/DX2                !
 ! A101  A(5,29,31)            119.5207         estimate D2E/DX2                !
 ! A102  A(27,29,31)           122.0036         estimate D2E/DX2                !
 ! A103  A(7,30,28)            111.4313         estimate D2E/DX2                !
 ! A104  A(7,30,32)            119.6127         estimate D2E/DX2                !
 ! A105  A(28,30,32)           121.8987         estimate D2E/DX2                !
 ! A106  A(29,31,33)           120.4642         estimate D2E/DX2                !
 ! A107  A(29,31,69)           121.2731         estimate D2E/DX2                !
 ! A108  A(33,31,69)           111.3047         estimate D2E/DX2                !
 ! A109  A(30,32,34)           120.3662         estimate D2E/DX2                !
 ! A110  A(30,32,70)           121.2137         estimate D2E/DX2                !
 ! A111  A(34,32,70)           111.6188         estimate D2E/DX2                !
 ! A112  A(31,33,35)           122.1495         estimate D2E/DX2                !
 ! A113  A(31,33,73)           107.5106         estimate D2E/DX2                !
 ! A114  A(35,33,73)           121.7843         estimate D2E/DX2                !
 ! A115  A(32,34,36)           122.482          estimate D2E/DX2                !
 ! A116  A(32,34,74)           107.1423         estimate D2E/DX2                !
 ! A117  A(36,34,74)           122.266          estimate D2E/DX2                !
 ! A118  A(9,35,33)            116.4688         estimate D2E/DX2                !
 ! A119  A(9,35,37)            119.4812         estimate D2E/DX2                !
 ! A120  A(33,35,37)           119.0979         estimate D2E/DX2                !
 ! A121  A(12,36,34)           116.4647         estimate D2E/DX2                !
 ! A122  A(12,36,38)           119.8542         estimate D2E/DX2                !
 ! A123  A(34,36,38)           118.4269         estimate D2E/DX2                !
 ! A124  A(35,37,39)           119.2639         estimate D2E/DX2                !
 ! A125  A(35,37,77)           117.9102         estimate D2E/DX2                !
 ! A126  A(39,37,77)           118.4394         estimate D2E/DX2                !
 ! A127  A(36,38,42)           119.2835         estimate D2E/DX2                !
 ! A128  A(36,38,78)           118.2456         estimate D2E/DX2                !
 ! A129  A(42,38,78)           116.6801         estimate D2E/DX2                !
 ! A130  A(37,39,43)           119.8494         estimate D2E/DX2                !
 ! A131  A(37,39,79)           121.7868         estimate D2E/DX2                !
 ! A132  A(43,39,79)           116.3104         estimate D2E/DX2                !
 ! A133  A(41,40,44)           121.055          estimate D2E/DX2                !
 ! A134  A(41,40,79)           109.4868         estimate D2E/DX2                !
 ! A135  A(44,40,79)           125.05           estimate D2E/DX2                !
 ! A136  A(40,41,45)           121.4556         estimate D2E/DX2                !
 ! A137  A(40,41,80)           109.2606         estimate D2E/DX2                !
 ! A138  A(45,41,80)           122.2407         estimate D2E/DX2                !
 ! A139  A(38,42,46)           119.4884         estimate D2E/DX2                !
 ! A140  A(38,42,80)           119.6102         estimate D2E/DX2                !
 ! A141  A(46,42,80)           115.138          estimate D2E/DX2                !
 ! A142  A(2,43,13)            109.419          estimate D2E/DX2                !
 ! A143  A(2,43,39)            125.1318         estimate D2E/DX2                !
 ! A144  A(13,43,39)           120.9567         estimate D2E/DX2                !
 ! A145  A(2,44,40)            116.4517         estimate D2E/DX2                !
 ! A146  A(2,44,47)            121.9283         estimate D2E/DX2                !
 ! A147  A(40,44,47)           119.5297         estimate D2E/DX2                !
 ! A148  A(4,45,41)            115.2787         estimate D2E/DX2                !
 ! A149  A(4,45,48)            120.496          estimate D2E/DX2                !
 ! A150  A(41,45,48)           118.3961         estimate D2E/DX2                !
 ! A151  A(4,46,14)            108.2473         estimate D2E/DX2                !
 ! A152  A(4,46,42)            122.3553         estimate D2E/DX2                !
 ! A153  A(14,46,42)           120.8542         estimate D2E/DX2                !
 ! A154  A(44,47,48)           119.9235         estimate D2E/DX2                !
 ! A155  A(44,47,49)           118.7007         estimate D2E/DX2                !
 ! A156  A(48,47,49)           117.2655         estimate D2E/DX2                !
 ! A157  A(45,48,47)           119.5358         estimate D2E/DX2                !
 ! A158  A(45,48,50)           117.573          estimate D2E/DX2                !
 ! A159  A(47,48,50)           117.8626         estimate D2E/DX2                !
 ! A160  A(10,49,47)           120.1568         estimate D2E/DX2                !
 ! A161  A(10,49,51)           107.2317         estimate D2E/DX2                !
 ! A162  A(47,49,51)           123.2351         estimate D2E/DX2                !
 ! A163  A(11,50,48)           121.1362         estimate D2E/DX2                !
 ! A164  A(11,50,52)           107.3431         estimate D2E/DX2                !
 ! A165  A(48,50,52)           122.9758         estimate D2E/DX2                !
 ! A166  A(49,51,52)           119.4105         estimate D2E/DX2                !
 ! A167  A(49,51,55)           111.5902         estimate D2E/DX2                !
 ! A168  A(52,51,55)           122.5912         estimate D2E/DX2                !
 ! A169  A(50,52,51)           118.976          estimate D2E/DX2                !
 ! A170  A(50,52,56)           111.4263         estimate D2E/DX2                !
 ! A171  A(51,52,56)           123.3009         estimate D2E/DX2                !
 ! A172  A(10,53,19)           120.999          estimate D2E/DX2                !
 ! A173  A(10,53,55)           108.7422         estimate D2E/DX2                !
 ! A174  A(19,53,55)           125.3471         estimate D2E/DX2                !
 ! A175  A(11,54,20)           120.3112         estimate D2E/DX2                !
 ! A176  A(11,54,56)           108.2407         estimate D2E/DX2                !
 ! A177  A(20,54,56)           125.7132         estimate D2E/DX2                !
 ! A178  A(51,55,53)           101.2923         estimate D2E/DX2                !
 ! A179  A(51,55,83)           109.7406         estimate D2E/DX2                !
 ! A180  A(51,55,93)           113.2148         estimate D2E/DX2                !
 ! A181  A(53,55,83)           110.6075         estimate D2E/DX2                !
 ! A182  A(53,55,93)           111.8012         estimate D2E/DX2                !
 ! A183  A(83,55,93)           109.9201         estimate D2E/DX2                !
 ! A184  A(52,56,54)           101.501          estimate D2E/DX2                !
 ! A185  A(52,56,84)           109.4369         estimate D2E/DX2                !
 ! A186  A(52,56,95)           112.999          estimate D2E/DX2                !
 ! A187  A(54,56,84)           110.7046         estimate D2E/DX2                !
 ! A188  A(54,56,95)           111.909          estimate D2E/DX2                !
 ! A189  A(84,56,95)           110.0233         estimate D2E/DX2                !
 ! A190  A(21,57,59)           109.8954         estimate D2E/DX2                !
 ! A191  A(21,57,83)           125.7875         estimate D2E/DX2                !
 ! A192  A(59,57,83)           121.0135         estimate D2E/DX2                !
 ! A193  A(22,58,60)           109.9185         estimate D2E/DX2                !
 ! A194  A(22,58,84)           125.8425         estimate D2E/DX2                !
 ! A195  A(60,58,84)           120.9753         estimate D2E/DX2                !
 ! A196  A(57,59,60)           119.9233         estimate D2E/DX2                !
 ! A197  A(57,59,61)           113.4349         estimate D2E/DX2                !
 ! A198  A(60,59,61)           121.7769         estimate D2E/DX2                !
 ! A199  A(58,60,59)           119.8692         estimate D2E/DX2                !
 ! A200  A(58,60,62)           113.4116         estimate D2E/DX2                !
 ! A201  A(59,60,62)           121.8747         estimate D2E/DX2                !
 ! A202  A(23,61,59)            99.9689         estimate D2E/DX2                !
 ! A203  A(23,61,63)           111.7711         estimate D2E/DX2                !
 ! A204  A(23,61,89)           113.7979         estimate D2E/DX2                !
 ! A205  A(59,61,63)           108.2575         estimate D2E/DX2                !
 ! A206  A(59,61,89)           113.8741         estimate D2E/DX2                !
 ! A207  A(63,61,89)           108.8804         estimate D2E/DX2                !
 ! A208  A(24,62,60)            99.9914         estimate D2E/DX2                !
 ! A209  A(24,62,64)           111.7873         estimate D2E/DX2                !
 ! A210  A(24,62,90)           113.8077         estimate D2E/DX2                !
 ! A211  A(60,62,64)           108.2189         estimate D2E/DX2                !
 ! A212  A(60,62,90)           113.8856         estimate D2E/DX2                !
 ! A213  A(64,62,90)           108.8605         estimate D2E/DX2                !
 ! A214  A(61,63,64)           120.1834         estimate D2E/DX2                !
 ! A215  A(61,63,65)           119.7775         estimate D2E/DX2                !
 ! A216  A(64,63,65)           119.6969         estimate D2E/DX2                !
 ! A217  A(62,64,63)           120.186          estimate D2E/DX2                !
 ! A218  A(62,64,66)           119.7575         estimate D2E/DX2                !
 ! A219  A(63,64,66)           119.7113         estimate D2E/DX2                !
 ! A220  A(27,65,63)           119.0597         estimate D2E/DX2                !
 ! A221  A(27,65,67)           120.0015         estimate D2E/DX2                !
 ! A222  A(63,65,67)           120.5996         estimate D2E/DX2                !
 ! A223  A(28,66,64)           119.1094         estimate D2E/DX2                !
 ! A224  A(28,66,68)           119.9706         estimate D2E/DX2                !
 ! A225  A(64,66,68)           120.58           estimate D2E/DX2                !
 ! A226  A(65,67,68)           119.6812         estimate D2E/DX2                !
 ! A227  A(65,67,69)           119.6805         estimate D2E/DX2                !
 ! A228  A(68,67,69)           120.3721         estimate D2E/DX2                !
 ! A229  A(66,68,67)           119.7189         estimate D2E/DX2                !
 ! A230  A(66,68,70)           119.601          estimate D2E/DX2                !
 ! A231  A(67,68,70)           120.407          estimate D2E/DX2                !
 ! A232  A(31,69,67)           108.6046         estimate D2E/DX2                !
 ! A233  A(31,69,71)           101.2394         estimate D2E/DX2                !
 ! A234  A(31,69,86)           114.0606         estimate D2E/DX2                !
 ! A235  A(67,69,71)           110.5095         estimate D2E/DX2                !
 ! A236  A(67,69,86)           108.554          estimate D2E/DX2                !
 ! A237  A(71,69,86)           113.6504         estimate D2E/DX2                !
 ! A238  A(32,70,68)           108.6999         estimate D2E/DX2                !
 ! A239  A(32,70,72)           101.294          estimate D2E/DX2                !
 ! A240  A(32,70,87)           113.9941         estimate D2E/DX2                !
 ! A241  A(68,70,72)           110.5431         estimate D2E/DX2                !
 ! A242  A(68,70,87)           108.5328         estimate D2E/DX2                !
 ! A243  A(72,70,87)           113.5678         estimate D2E/DX2                !
 ! A244  A(69,71,72)           121.9312         estimate D2E/DX2                !
 ! A245  A(69,71,73)           110.1067         estimate D2E/DX2                !
 ! A246  A(72,71,73)           119.7074         estimate D2E/DX2                !
 ! A247  A(70,72,71)           121.9841         estimate D2E/DX2                !
 ! A248  A(70,72,74)           110.0783         estimate D2E/DX2                !
 ! A249  A(71,72,74)           119.6251         estimate D2E/DX2                !
 ! A250  A(33,73,71)           109.4143         estimate D2E/DX2                !
 ! A251  A(33,73,75)           118.8458         estimate D2E/DX2                !
 ! A252  A(71,73,75)           121.4575         estimate D2E/DX2                !
 ! A253  A(34,74,72)           109.5092         estimate D2E/DX2                !
 ! A254  A(34,74,76)           119.1667         estimate D2E/DX2                !
 ! A255  A(72,74,76)           121.3982         estimate D2E/DX2                !
 ! A256  A(73,75,76)           118.5459         estimate D2E/DX2                !
 ! A257  A(73,75,77)           120.4493         estimate D2E/DX2                !
 ! A258  A(76,75,77)           108.9301         estimate D2E/DX2                !
 ! A259  A(74,76,75)           119.1893         estimate D2E/DX2                !
 ! A260  A(74,76,78)           119.8661         estimate D2E/DX2                !
 ! A261  A(75,76,78)           108.8313         estimate D2E/DX2                !
 ! A262  A(37,77,75)           121.6417         estimate D2E/DX2                !
 ! A263  A(37,77,81)           120.1084         estimate D2E/DX2                !
 ! A264  A(75,77,81)           106.3096         estimate D2E/DX2                !
 ! A265  A(38,78,76)           121.948          estimate D2E/DX2                !
 ! A266  A(38,78,81)           121.9797         estimate D2E/DX2                !
 ! A267  A(76,78,81)           106.4456         estimate D2E/DX2                !
 ! A268  A(39,79,40)           110.9092         estimate D2E/DX2                !
 ! A269  A(39,79,82)           111.7488         estimate D2E/DX2                !
 ! A270  A(39,79,91)           109.7808         estimate D2E/DX2                !
 ! A271  A(40,79,82)           100.8883         estimate D2E/DX2                !
 ! A272  A(40,79,91)           111.2474         estimate D2E/DX2                !
 ! A273  A(82,79,91)           112.0287         estimate D2E/DX2                !
 ! A274  A(41,80,42)           121.4572         estimate D2E/DX2                !
 ! A275  A(41,80,82)           107.7124         estimate D2E/DX2                !
 ! A276  A(42,80,82)           121.7835         estimate D2E/DX2                !
 ! A277  A(77,81,78)           108.7622         estimate D2E/DX2                !
 ! A278  A(77,81,82)           120.8427         estimate D2E/DX2                !
 ! A279  A(78,81,82)           120.3575         estimate D2E/DX2                !
 ! A280  A(79,82,80)           111.4776         estimate D2E/DX2                !
 ! A281  A(79,82,81)           122.184          estimate D2E/DX2                !
 ! A282  A(80,82,81)           119.0221         estimate D2E/DX2                !
 ! A283  A(55,83,57)           117.1982         estimate D2E/DX2                !
 ! A284  A(55,83,84)           122.1651         estimate D2E/DX2                !
 ! A285  A(57,83,84)           118.9877         estimate D2E/DX2                !
 ! A286  A(56,84,58)           117.1698         estimate D2E/DX2                !
 ! A287  A(56,84,83)           122.0414         estimate D2E/DX2                !
 ! A288  A(58,84,83)           119.1462         estimate D2E/DX2                !
 ! D1    D(17,1,5,9)            -1.2498         estimate D2E/DX2                !
 ! D2    D(17,1,5,29)         -149.815          estimate D2E/DX2                !
 ! D3    D(25,1,5,9)           145.0964         estimate D2E/DX2                !
 ! D4    D(25,1,5,29)           -3.4688         estimate D2E/DX2                !
 ! D5    D(5,1,17,15)           -7.2163         estimate D2E/DX2                !
 ! D6    D(5,1,17,19)          145.8202         estimate D2E/DX2                !
 ! D7    D(25,1,17,15)        -149.6229         estimate D2E/DX2                !
 ! D8    D(25,1,17,19)           3.4135         estimate D2E/DX2                !
 ! D9    D(5,1,25,23)         -149.9727         estimate D2E/DX2                !
 ! D10   D(5,1,25,27)            3.7072         estimate D2E/DX2                !
 ! D11   D(17,1,25,23)          -2.9537         estimate D2E/DX2                !
 ! D12   D(17,1,25,27)         150.7262         estimate D2E/DX2                !
 ! D13   D(43,2,6,10)         -139.2541         estimate D2E/DX2                !
 ! D14   D(43,2,6,15)            9.5807         estimate D2E/DX2                !
 ! D15   D(44,2,6,10)          -21.4598         estimate D2E/DX2                !
 ! D16   D(44,2,6,15)          127.375          estimate D2E/DX2                !
 ! D17   D(92,2,6,10)          102.2538         estimate D2E/DX2                !
 ! D18   D(92,2,6,15)         -108.9114         estimate D2E/DX2                !
 ! D19   D(6,2,43,13)          -10.5123         estimate D2E/DX2                !
 ! D20   D(6,2,43,39)          145.6879         estimate D2E/DX2                !
 ! D21   D(44,2,43,13)        -128.9306         estimate D2E/DX2                !
 ! D22   D(44,2,43,39)          27.2696         estimate D2E/DX2                !
 ! D23   D(92,2,43,13)         108.5558         estimate D2E/DX2                !
 ! D24   D(92,2,43,39)         -95.244          estimate D2E/DX2                !
 ! D25   D(6,2,44,40)         -144.0399         estimate D2E/DX2                !
 ! D26   D(6,2,44,47)           19.4287         estimate D2E/DX2                !
 ! D27   D(43,2,44,40)         -32.3298         estimate D2E/DX2                !
 ! D28   D(43,2,44,47)         131.1389         estimate D2E/DX2                !
 ! D29   D(92,2,44,40)          91.0049         estimate D2E/DX2                !
 ! D30   D(92,2,44,47)        -105.5264         estimate D2E/DX2                !
 ! D31   D(18,3,7,12)            1.1003         estimate D2E/DX2                !
 ! D32   D(18,3,7,30)          150.2523         estimate D2E/DX2                !
 ! D33   D(26,3,7,12)         -145.6193         estimate D2E/DX2                !
 ! D34   D(26,3,7,30)            3.5327         estimate D2E/DX2                !
 ! D35   D(7,3,18,16)            7.3943         estimate D2E/DX2                !
 ! D36   D(7,3,18,20)         -145.0335         estimate D2E/DX2                !
 ! D37   D(26,3,18,16)         150.0845         estimate D2E/DX2                !
 ! D38   D(26,3,18,20)          -2.3433         estimate D2E/DX2                !
 ! D39   D(7,3,26,24)          149.9342         estimate D2E/DX2                !
 ! D40   D(7,3,26,28)           -4.0513         estimate D2E/DX2                !
 ! D41   D(18,3,26,24)           2.6785         estimate D2E/DX2                !
 ! D42   D(18,3,26,28)        -151.307          estimate D2E/DX2                !
 ! D43   D(45,4,8,11)            2.8669         estimate D2E/DX2                !
 ! D44   D(45,4,8,16)         -140.8376         estimate D2E/DX2                !
 ! D45   D(46,4,8,11)          147.3674         estimate D2E/DX2                !
 ! D46   D(46,4,8,16)            3.663          estimate D2E/DX2                !
 ! D47   D(8,4,45,41)          151.9127         estimate D2E/DX2                !
 ! D48   D(8,4,45,48)           -0.7712         estimate D2E/DX2                !
 ! D49   D(46,4,45,41)          12.6324         estimate D2E/DX2                !
 ! D50   D(46,4,45,48)        -140.0516         estimate D2E/DX2                !
 ! D51   D(8,4,46,14)           -2.8477         estimate D2E/DX2                !
 ! D52   D(8,4,46,42)         -150.8566         estimate D2E/DX2                !
 ! D53   D(45,4,46,14)         141.0091         estimate D2E/DX2                !
 ! D54   D(45,4,46,42)          -6.9998         estimate D2E/DX2                !
 ! D55   D(1,5,9,13)             7.4301         estimate D2E/DX2                !
 ! D56   D(1,5,9,35)          -146.2256         estimate D2E/DX2                !
 ! D57   D(29,5,9,13)          152.3962         estimate D2E/DX2                !
 ! D58   D(29,5,9,35)           -1.2594         estimate D2E/DX2                !
 ! D59   D(1,5,29,27)            2.0134         estimate D2E/DX2                !
 ! D60   D(1,5,29,31)          152.7887         estimate D2E/DX2                !
 ! D61   D(9,5,29,27)         -147.1103         estimate D2E/DX2                !
 ! D62   D(9,5,29,31)            3.665          estimate D2E/DX2                !
 ! D63   D(2,6,10,49)            8.8162         estimate D2E/DX2                !
 ! D64   D(2,6,10,53)          152.7216         estimate D2E/DX2                !
 ! D65   D(15,6,10,49)        -137.9224         estimate D2E/DX2                !
 ! D66   D(15,6,10,53)           5.9829         estimate D2E/DX2                !
 ! D67   D(2,6,15,13)           -5.3175         estimate D2E/DX2                !
 ! D68   D(2,6,15,17)         -153.5616         estimate D2E/DX2                !
 ! D69   D(10,6,15,13)         144.8891         estimate D2E/DX2                !
 ! D70   D(10,6,15,17)          -3.355          estimate D2E/DX2                !
 ! D71   D(3,7,12,14)           -7.4342         estimate D2E/DX2                !
 ! D72   D(3,7,12,36)          146.1525         estimate D2E/DX2                !
 ! D73   D(30,7,12,14)        -152.9472         estimate D2E/DX2                !
 ! D74   D(30,7,12,36)           0.6395         estimate D2E/DX2                !
 ! D75   D(3,7,30,28)           -1.7819         estimate D2E/DX2                !
 ! D76   D(3,7,30,32)         -152.9522         estimate D2E/DX2                !
 ! D77   D(12,7,30,28)         147.9613         estimate D2E/DX2                !
 ! D78   D(12,7,30,32)          -3.2089         estimate D2E/DX2                !
 ! D79   D(4,8,11,50)            0.4366         estimate D2E/DX2                !
 ! D80   D(4,8,11,54)         -142.8231         estimate D2E/DX2                !
 ! D81   D(16,8,11,50)         140.3915         estimate D2E/DX2                !
 ! D82   D(16,8,11,54)          -2.8682         estimate D2E/DX2                !
 ! D83   D(4,8,16,14)           -3.0239         estimate D2E/DX2                !
 ! D84   D(4,8,16,18)          142.5082         estimate D2E/DX2                !
 ! D85   D(11,8,16,14)        -146.7982         estimate D2E/DX2                !
 ! D86   D(11,8,16,18)          -1.2661         estimate D2E/DX2                !
 ! D87   D(5,9,13,15)           -5.061          estimate D2E/DX2                !
 ! D88   D(5,9,13,43)         -151.0793         estimate D2E/DX2                !
 ! D89   D(35,9,13,15)         148.9373         estimate D2E/DX2                !
 ! D90   D(35,9,13,43)           2.919          estimate D2E/DX2                !
 ! D91   D(5,9,35,33)           -4.898          estimate D2E/DX2                !
 ! D92   D(5,9,35,37)          149.9976         estimate D2E/DX2                !
 ! D93   D(13,9,35,33)        -157.7004         estimate D2E/DX2                !
 ! D94   D(13,9,35,37)          -2.8048         estimate D2E/DX2                !
 ! D95   D(6,10,49,47)           8.1333         estimate D2E/DX2                !
 ! D96   D(6,10,49,51)         155.6831         estimate D2E/DX2                !
 ! D97   D(53,10,49,47)       -139.6312         estimate D2E/DX2                !
 ! D98   D(53,10,49,51)          7.9186         estimate D2E/DX2                !
 ! D99   D(6,10,53,19)          -5.5217         estimate D2E/DX2                !
 ! D100  D(6,10,53,55)        -161.9531         estimate D2E/DX2                !
 ! D101  D(49,10,53,19)        142.1952         estimate D2E/DX2                !
 ! D102  D(49,10,53,55)        -14.2362         estimate D2E/DX2                !
 ! D103  D(8,11,50,48)          -5.9681         estimate D2E/DX2                !
 ! D104  D(8,11,50,52)        -154.7092         estimate D2E/DX2                !
 ! D105  D(54,11,50,48)        140.9979         estimate D2E/DX2                !
 ! D106  D(54,11,50,52)         -7.7432         estimate D2E/DX2                !
 ! D107  D(8,11,54,20)           5.573          estimate D2E/DX2                !
 ! D108  D(8,11,54,56)         160.3436         estimate D2E/DX2                !
 ! D109  D(50,11,54,20)       -141.181          estimate D2E/DX2                !
 ! D110  D(50,11,54,56)         13.5896         estimate D2E/DX2                !
 ! D111  D(7,12,14,16)           5.1716         estimate D2E/DX2                !
 ! D112  D(7,12,14,46)         147.8923         estimate D2E/DX2                !
 ! D113  D(36,12,14,16)       -148.4371         estimate D2E/DX2                !
 ! D114  D(36,12,14,46)         -5.7164         estimate D2E/DX2                !
 ! D115  D(7,12,36,34)           4.9118         estimate D2E/DX2                !
 ! D116  D(7,12,36,38)        -149.0959         estimate D2E/DX2                !
 ! D117  D(14,12,36,34)        157.3186         estimate D2E/DX2                !
 ! D118  D(14,12,36,38)          3.3109         estimate D2E/DX2                !
 ! D119  D(9,13,15,6)         -151.5102         estimate D2E/DX2                !
 ! D120  D(9,13,15,17)          -3.5306         estimate D2E/DX2                !
 ! D121  D(43,13,15,6)          -1.8302         estimate D2E/DX2                !
 ! D122  D(43,13,15,17)        146.1494         estimate D2E/DX2                !
 ! D123  D(9,13,43,2)          157.9732         estimate D2E/DX2                !
 ! D124  D(9,13,43,39)           0.6075         estimate D2E/DX2                !
 ! D125  D(15,13,43,2)           8.1355         estimate D2E/DX2                !
 ! D126  D(15,13,43,39)       -149.2302         estimate D2E/DX2                !
 ! D127  D(12,14,16,8)         147.8917         estimate D2E/DX2                !
 ! D128  D(12,14,16,18)          3.4842         estimate D2E/DX2                !
 ! D129  D(46,14,16,8)           1.2275         estimate D2E/DX2                !
 ! D130  D(46,14,16,18)       -143.18           estimate D2E/DX2                !
 ! D131  D(12,14,46,4)        -146.1337         estimate D2E/DX2                !
 ! D132  D(12,14,46,42)          2.4458         estimate D2E/DX2                !
 ! D133  D(16,14,46,4)           1.0271         estimate D2E/DX2                !
 ! D134  D(16,14,46,42)        149.6066         estimate D2E/DX2                !
 ! D135  D(6,15,17,1)          153.4057         estimate D2E/DX2                !
 ! D136  D(6,15,17,19)           0.125          estimate D2E/DX2                !
 ! D137  D(13,15,17,1)           9.558          estimate D2E/DX2                !
 ! D138  D(13,15,17,19)       -143.7227         estimate D2E/DX2                !
 ! D139  D(8,16,18,3)         -149.7209         estimate D2E/DX2                !
 ! D140  D(8,16,18,20)           2.7722         estimate D2E/DX2                !
 ! D141  D(14,16,18,3)          -9.6691         estimate D2E/DX2                !
 ! D142  D(14,16,18,20)        142.824          estimate D2E/DX2                !
 ! D143  D(1,17,19,21)           8.166          estimate D2E/DX2                !
 ! D144  D(1,17,19,53)        -151.6194         estimate D2E/DX2                !
 ! D145  D(15,17,19,21)        160.2541         estimate D2E/DX2                !
 ! D146  D(15,17,19,53)          0.4687         estimate D2E/DX2                !
 ! D147  D(3,18,20,22)          -9.1638         estimate D2E/DX2                !
 ! D148  D(3,18,20,54)         151.13           estimate D2E/DX2                !
 ! D149  D(16,18,20,22)       -160.4177         estimate D2E/DX2                !
 ! D150  D(16,18,20,54)         -0.1239         estimate D2E/DX2                !
 ! D151  D(17,19,21,23)        -18.6087         estimate D2E/DX2                !
 ! D152  D(17,19,21,57)       -130.7026         estimate D2E/DX2                !
 ! D153  D(17,19,21,94)        106.5543         estimate D2E/DX2                !
 ! D154  D(53,19,21,23)        141.3292         estimate D2E/DX2                !
 ! D155  D(53,19,21,57)         29.2352         estimate D2E/DX2                !
 ! D156  D(53,19,21,94)        -93.5079         estimate D2E/DX2                !
 ! D157  D(17,19,53,10)          2.1173         estimate D2E/DX2                !
 ! D158  D(17,19,53,55)        154.4577         estimate D2E/DX2                !
 ! D159  D(21,19,53,10)       -158.0656         estimate D2E/DX2                !
 ! D160  D(21,19,53,55)         -5.7252         estimate D2E/DX2                !
 ! D161  D(18,20,22,24)         18.8761         estimate D2E/DX2                !
 ! D162  D(18,20,22,58)        131.3161         estimate D2E/DX2                !
 ! D163  D(18,20,22,96)       -106.0919         estimate D2E/DX2                !
 ! D164  D(54,20,22,24)       -141.8152         estimate D2E/DX2                !
 ! D165  D(54,20,22,58)        -29.3752         estimate D2E/DX2                !
 ! D166  D(54,20,22,96)         93.2168         estimate D2E/DX2                !
 ! D167  D(18,20,54,11)         -3.9758         estimate D2E/DX2                !
 ! D168  D(18,20,54,56)       -154.0694         estimate D2E/DX2                !
 ! D169  D(22,20,54,11)        156.7354         estimate D2E/DX2                !
 ! D170  D(22,20,54,56)          6.6417         estimate D2E/DX2                !
 ! D171  D(19,21,23,25)         19.5561         estimate D2E/DX2                !
 ! D172  D(19,21,23,61)       -136.1865         estimate D2E/DX2                !
 ! D173  D(57,21,23,25)        137.4671         estimate D2E/DX2                !
 ! D174  D(57,21,23,61)        -18.2755         estimate D2E/DX2                !
 ! D175  D(94,21,23,25)       -104.948          estimate D2E/DX2                !
 ! D176  D(94,21,23,61)         99.3094         estimate D2E/DX2                !
 ! D177  D(19,21,57,59)        134.9611         estimate D2E/DX2                !
 ! D178  D(19,21,57,83)        -24.4902         estimate D2E/DX2                !
 ! D179  D(23,21,57,59)         14.9429         estimate D2E/DX2                !
 ! D180  D(23,21,57,83)       -144.5085         estimate D2E/DX2                !
 ! D181  D(94,21,57,59)       -102.8472         estimate D2E/DX2                !
 ! D182  D(94,21,57,83)         97.7015         estimate D2E/DX2                !
 ! D183  D(20,22,24,26)        -19.0406         estimate D2E/DX2                !
 ! D184  D(20,22,24,62)        136.5924         estimate D2E/DX2                !
 ! D185  D(58,22,24,26)       -137.3951         estimate D2E/DX2                !
 ! D186  D(58,22,24,62)         18.2379         estimate D2E/DX2                !
 ! D187  D(96,22,24,26)        105.0558         estimate D2E/DX2                !
 ! D188  D(96,22,24,62)        -99.3112         estimate D2E/DX2                !
 ! D189  D(20,22,58,60)       -135.4216         estimate D2E/DX2                !
 ! D190  D(20,22,58,84)         24.1399         estimate D2E/DX2                !
 ! D191  D(24,22,58,60)        -14.9152         estimate D2E/DX2                !
 ! D192  D(24,22,58,84)        144.6462         estimate D2E/DX2                !
 ! D193  D(96,22,58,60)        102.8007         estimate D2E/DX2                !
 ! D194  D(96,22,58,84)        -97.6379         estimate D2E/DX2                !
 ! D195  D(21,23,25,1)          -9.3869         estimate D2E/DX2                !
 ! D196  D(21,23,25,27)       -160.0082         estimate D2E/DX2                !
 ! D197  D(61,23,25,1)         144.5933         estimate D2E/DX2                !
 ! D198  D(61,23,25,27)         -6.0279         estimate D2E/DX2                !
 ! D199  D(21,23,61,59)         14.2657         estimate D2E/DX2                !
 ! D200  D(21,23,61,63)        128.6415         estimate D2E/DX2                !
 ! D201  D(21,23,61,89)       -107.5126         estimate D2E/DX2                !
 ! D202  D(25,23,61,59)       -141.9408         estimate D2E/DX2                !
 ! D203  D(25,23,61,63)        -27.565          estimate D2E/DX2                !
 ! D204  D(25,23,61,89)         96.2809         estimate D2E/DX2                !
 ! D205  D(22,24,26,3)           8.8252         estimate D2E/DX2                !
 ! D206  D(22,24,26,28)        159.8328         estimate D2E/DX2                !
 ! D207  D(62,24,26,3)        -145.0073         estimate D2E/DX2                !
 ! D208  D(62,24,26,28)          6.0002         estimate D2E/DX2                !
 ! D209  D(22,24,62,60)        -14.2442         estimate D2E/DX2                !
 ! D210  D(22,24,62,64)       -128.5937         estimate D2E/DX2                !
 ! D211  D(22,24,62,90)        107.5667         estimate D2E/DX2                !
 ! D212  D(26,24,62,60)        141.7908         estimate D2E/DX2                !
 ! D213  D(26,24,62,64)         27.4412         estimate D2E/DX2                !
 ! D214  D(26,24,62,90)        -96.3984         estimate D2E/DX2                !
 ! D215  D(1,25,27,29)          -2.348          estimate D2E/DX2                !
 ! D216  D(1,25,27,65)        -117.6166         estimate D2E/DX2                !
 ! D217  D(1,25,27,85)         120.0426         estimate D2E/DX2                !
 ! D218  D(23,25,27,29)        151.0619         estimate D2E/DX2                !
 ! D219  D(23,25,27,65)         35.7933         estimate D2E/DX2                !
 ! D220  D(23,25,27,85)        -86.5475         estimate D2E/DX2                !
 ! D221  D(3,26,28,30)           2.7997         estimate D2E/DX2                !
 ! D222  D(3,26,28,66)         118.1817         estimate D2E/DX2                !
 ! D223  D(3,26,28,88)        -119.5076         estimate D2E/DX2                !
 ! D224  D(24,26,28,30)       -150.9802         estimate D2E/DX2                !
 ! D225  D(24,26,28,66)        -35.5983         estimate D2E/DX2                !
 ! D226  D(24,26,28,88)         86.7124         estimate D2E/DX2                !
 ! D227  D(25,27,29,5)           0.2224         estimate D2E/DX2                !
 ! D228  D(25,27,29,31)       -149.7117         estimate D2E/DX2                !
 ! D229  D(65,27,29,5)         116.4175         estimate D2E/DX2                !
 ! D230  D(65,27,29,31)        -33.5166         estimate D2E/DX2                !
 ! D231  D(85,27,29,5)        -121.1398         estimate D2E/DX2                !
 ! D232  D(85,27,29,31)         88.9261         estimate D2E/DX2                !
 ! D233  D(25,27,65,63)        -31.1862         estimate D2E/DX2                !
 ! D234  D(25,27,65,67)        142.1678         estimate D2E/DX2                !
 ! D235  D(29,27,65,63)       -141.2927         estimate D2E/DX2                !
 ! D236  D(29,27,65,67)         32.0613         estimate D2E/DX2                !
 ! D237  D(85,27,65,63)         93.2567         estimate D2E/DX2                !
 ! D238  D(85,27,65,67)        -93.3893         estimate D2E/DX2                !
 ! D239  D(26,28,30,7)          -0.6276         estimate D2E/DX2                !
 ! D240  D(26,28,30,32)        149.782          estimate D2E/DX2                !
 ! D241  D(66,28,30,7)        -116.9312         estimate D2E/DX2                !
 ! D242  D(66,28,30,32)         33.4784         estimate D2E/DX2                !
 ! D243  D(88,28,30,7)         120.6056         estimate D2E/DX2                !
 ! D244  D(88,28,30,32)        -88.9848         estimate D2E/DX2                !
 ! D245  D(26,28,66,64)         30.9973         estimate D2E/DX2                !
 ! D246  D(26,28,66,68)       -142.3478         estimate D2E/DX2                !
 ! D247  D(30,28,66,64)        141.1174         estimate D2E/DX2                !
 ! D248  D(30,28,66,68)        -32.2277         estimate D2E/DX2                !
 ! D249  D(88,28,66,64)        -93.3973         estimate D2E/DX2                !
 ! D250  D(88,28,66,68)         93.2577         estimate D2E/DX2                !
 ! D251  D(5,29,31,33)           0.3224         estimate D2E/DX2                !
 ! D252  D(5,29,31,69)        -147.9366         estimate D2E/DX2                !
 ! D253  D(27,29,31,33)        147.8553         estimate D2E/DX2                !
 ! D254  D(27,29,31,69)         -0.4037         estimate D2E/DX2                !
 ! D255  D(7,30,32,34)          -0.0036         estimate D2E/DX2                !
 ! D256  D(7,30,32,70)         148.6804         estimate D2E/DX2                !
 ! D257  D(28,30,32,34)       -148.0852         estimate D2E/DX2                !
 ! D258  D(28,30,32,70)          0.5988         estimate D2E/DX2                !
 ! D259  D(29,31,33,35)         -6.9533         estimate D2E/DX2                !
 ! D260  D(29,31,33,73)       -155.2346         estimate D2E/DX2                !
 ! D261  D(69,31,33,35)        144.1898         estimate D2E/DX2                !
 ! D262  D(69,31,33,73)         -4.0916         estimate D2E/DX2                !
 ! D263  D(29,31,69,67)         34.7253         estimate D2E/DX2                !
 ! D264  D(29,31,69,71)        151.0722         estimate D2E/DX2                !
 ! D265  D(29,31,69,86)        -86.4723         estimate D2E/DX2                !
 ! D266  D(33,31,69,67)       -116.1498         estimate D2E/DX2                !
 ! D267  D(33,31,69,71)          0.197          estimate D2E/DX2                !
 ! D268  D(33,31,69,86)        122.6525         estimate D2E/DX2                !
 ! D269  D(30,32,34,36)          6.0306         estimate D2E/DX2                !
 ! D270  D(30,32,34,74)        155.1952         estimate D2E/DX2                !
 ! D271  D(70,32,34,36)       -145.4045         estimate D2E/DX2                !
 ! D272  D(70,32,34,74)          3.7601         estimate D2E/DX2                !
 ! D273  D(30,32,70,68)        -34.9151         estimate D2E/DX2                !
 ! D274  D(30,32,70,72)       -151.3629         estimate D2E/DX2                !
 ! D275  D(30,32,70,87)         86.2805         estimate D2E/DX2                !
 ! D276  D(34,32,70,68)        116.2435         estimate D2E/DX2                !
 ! D277  D(34,32,70,72)         -0.2043         estimate D2E/DX2                !
 ! D278  D(34,32,70,87)       -122.561          estimate D2E/DX2                !
 ! D279  D(31,33,35,9)           9.0316         estimate D2E/DX2                !
 ! D280  D(31,33,35,37)       -145.9645         estimate D2E/DX2                !
 ! D281  D(73,33,35,9)         152.8859         estimate D2E/DX2                !
 ! D282  D(73,33,35,37)         -2.1102         estimate D2E/DX2                !
 ! D283  D(31,33,73,71)          6.4925         estimate D2E/DX2                !
 ! D284  D(31,33,73,75)        152.1652         estimate D2E/DX2                !
 ! D285  D(35,33,73,71)       -141.9294         estimate D2E/DX2                !
 ! D286  D(35,33,73,75)          3.7434         estimate D2E/DX2                !
 ! D287  D(32,34,36,12)         -8.3028         estimate D2E/DX2                !
 ! D288  D(32,34,36,38)        146.0896         estimate D2E/DX2                !
[...]
 Alpha virt. eigenvalues --    1.37996   1.38506   1.39422   1.39861   1.40114
 Alpha virt. eigenvalues --    1.40460   1.40873   1.41533   1.42217   1.42720
 Alpha virt. eigenvalues --    1.43565   1.43880   1.44255   1.44637   1.44794
 Alpha virt. eigenvalues --    1.45403   1.45753   1.46215   1.46631   1.46838
 Alpha virt. eigenvalues --    1.47564   1.47946   1.49067   1.49892   1.50882
 Alpha virt. eigenvalues --    1.51222   1.51701   1.52561   1.52821   1.53220
 Alpha virt. eigenvalues --    1.53512   1.53811   1.54356   1.55281   1.55637
 Alpha virt. eigenvalues --    1.56202   1.56497   1.56842   1.57396   1.57965
 Alpha virt. eigenvalues --    1.58407   1.58881   1.59729   1.60051   1.60709
 Alpha virt. eigenvalues --    1.60744   1.60973   1.61305   1.62246   1.62668
 Alpha virt. eigenvalues --    1.63092   1.63155   1.63586   1.63602   1.63907
 Alpha virt. eigenvalues --    1.64102   1.64540   1.64778   1.64935   1.65187
 Alpha virt. eigenvalues --    1.65583   1.65650   1.65935   1.66273   1.66338
 Alpha virt. eigenvalues --    1.66655   1.66780   1.66871   1.67232   1.67691
 Alpha virt. eigenvalues --    1.67794   1.68021   1.68186   1.68360   1.68594
 Alpha virt. eigenvalues --    1.68977   1.69173   1.69322   1.69842   1.69938
 Alpha virt. eigenvalues --    1.70093   1.70263   1.70405   1.70572   1.70719
 Alpha virt. eigenvalues --    1.71209   1.71305   1.71530   1.71672   1.71804
 Alpha virt. eigenvalues --    1.72325   1.72471   1.72687   1.73060   1.73295
 Alpha virt. eigenvalues --    1.73454   1.74082   1.74205   1.74400   1.74525
 Alpha virt. eigenvalues --    1.74643   1.75019   1.75251   1.75398   1.75546
 Alpha virt. eigenvalues --    1.76075   1.76188   1.76292   1.76341   1.76898
 Alpha virt. eigenvalues --    1.76962   1.77309   1.77539   1.77882   1.78166
 Alpha virt. eigenvalues --    1.78556   1.78702   1.78730   1.79094   1.79265
 Alpha virt. eigenvalues --    1.79542   1.79862   1.79892   1.80091   1.80557
 Alpha virt. eigenvalues --    1.80793   1.81023   1.81514   1.81639   1.82174
 Alpha virt. eigenvalues --    1.82591   1.82822   1.83001   1.83117   1.83540
 Alpha virt. eigenvalues --    1.83712   1.84085   1.84253   1.84681   1.84731
 Alpha virt. eigenvalues --    1.84920   1.85212   1.85403   1.85998   1.86905
 Alpha virt. eigenvalues --    1.87261   1.87499   1.87724   1.88067   1.88403
 Alpha virt. eigenvalues --    1.88738   1.88875   1.89114   1.89659   1.90102
 Alpha virt. eigenvalues --    1.90336   1.90929   1.91264   1.91504   1.91888
 Alpha virt. eigenvalues --    1.92245   1.92530   1.93019   1.93420   1.93567
 Alpha virt. eigenvalues --    1.93842   1.94436   1.94582   1.94847   1.95357
 Alpha virt. eigenvalues --    1.95566   1.95835   1.96304   1.96489   1.96894
 Alpha virt. eigenvalues --    1.97351   1.97524   1.97620   1.98039   1.98536
 Alpha virt. eigenvalues --    1.98946   1.99055   1.99359   1.99836   2.00047
 Alpha virt. eigenvalues --    2.00228   2.00523   2.00784   2.01096   2.01299
 Alpha virt. eigenvalues --    2.01582   2.01764   2.02101   2.02390   2.02815
 Alpha virt. eigenvalues --    2.03214   2.03629   2.03943   2.04247   2.04675
 Alpha virt. eigenvalues --    2.04771   2.05398   2.05877   2.06060   2.06288
 Alpha virt. eigenvalues --    2.06857   2.07198   2.07385   2.07745   2.08126
 Alpha virt. eigenvalues --    2.08448   2.08698   2.09469   2.09739   2.09914
 Alpha virt. eigenvalues --    2.10629   2.10989   2.11131   2.12037   2.12159
 Alpha virt. eigenvalues --    2.12749   2.12886   2.13191   2.13996   2.14619
 Alpha virt. eigenvalues --    2.14988   2.15482   2.15712   2.16221   2.17037
 Alpha virt. eigenvalues --    2.17106   2.17542   2.17593   2.18076   2.18381
 Alpha virt. eigenvalues --    2.18576   2.18973   2.19062   2.19629   2.19736
 Alpha virt. eigenvalues --    2.20124   2.20674   2.21339   2.21708   2.22038
 Alpha virt. eigenvalues --    2.22554   2.22991   2.23635   2.24185   2.24520
 Alpha virt. eigenvalues --    2.24816   2.25151   2.25208   2.25521   2.25858
 Alpha virt. eigenvalues --    2.26333   2.26794   2.26999   2.27182   2.27563
 Alpha virt. eigenvalues --    2.27872   2.28371   2.28763   2.29153   2.29620
 Alpha virt. eigenvalues --    2.30397   2.30785   2.31120   2.31466   2.31732
 Alpha virt. eigenvalues --    2.32289   2.33268   2.33563   2.34014   2.34580
 Alpha virt. eigenvalues --    2.35045   2.35809   2.36332   2.36935   2.37456
 Alpha virt. eigenvalues --    2.37793   2.37822   2.38837   2.39238   2.39625
 Alpha virt. eigenvalues --    2.40158   2.40967   2.41190   2.41844   2.42004
 Alpha virt. eigenvalues --    2.42694   2.42895   2.43226   2.43680   2.44086
 Alpha virt. eigenvalues --    2.44893   2.45469   2.46497   2.46853   2.47021
 Alpha virt. eigenvalues --    2.47640   2.47841   2.49045   2.49473   2.49819
 Alpha virt. eigenvalues --    2.50226   2.50659   2.50998   2.51279   2.51723
 Alpha virt. eigenvalues --    2.52279   2.52721   2.53043   2.53477   2.54084
 Alpha virt. eigenvalues --    2.54673   2.55021   2.55371   2.55412   2.55892
 Alpha virt. eigenvalues --    2.56308   2.56505   2.56651   2.56926   2.57156
 Alpha virt. eigenvalues --    2.57559   2.57929   2.58014   2.58440   2.58800
 Alpha virt. eigenvalues --    2.59587   2.59732   2.60126   2.60397   2.60643
 Alpha virt. eigenvalues --    2.60876   2.61034   2.61511   2.61762   2.62239
 Alpha virt. eigenvalues --    2.62876   2.63022   2.63262   2.63491   2.63904
 Alpha virt. eigenvalues --    2.64063   2.64758   2.64819   2.65114   2.65760
 Alpha virt. eigenvalues --    2.65790   2.66527   2.66567   2.66995   2.67266
 Alpha virt. eigenvalues --    2.67782   2.68468   2.68743   2.68923   2.69488
 Alpha virt. eigenvalues --    2.69953   2.70343   2.70866   2.70933   2.71055
 Alpha virt. eigenvalues --    2.71282   2.71655   2.72108   2.72304   2.73109
 Alpha virt. eigenvalues --    2.73648   2.73701   2.74078   2.74816   2.75197
 Alpha virt. eigenvalues --    2.75597   2.75723   2.76074   2.76317   2.76693
 Alpha virt. eigenvalues --    2.76969   2.77336   2.78163   2.78448   2.78940
 Alpha virt. eigenvalues --    2.79511   2.79768   2.80030   2.80375   2.81214
 Alpha virt. eigenvalues --    2.81645   2.82155   2.82357   2.82989   2.83701
 Alpha virt. eigenvalues --    2.83823   2.84773   2.85357   2.86179   2.86251
 Alpha virt. eigenvalues --    2.86598   2.87366   2.87724   2.87818   2.88164
 Alpha virt. eigenvalues --    2.88916   2.89099   2.90013   2.90417   2.90698
 Alpha virt. eigenvalues --    2.91199   2.91864   2.92319   2.93060   2.93562
 Alpha virt. eigenvalues --    2.93765   2.94403   2.94728   2.95231   2.96112
 Alpha virt. eigenvalues --    2.97359   2.98692   2.98912   2.99983   3.00456
 Alpha virt. eigenvalues --    3.01850   3.03476   3.03756   3.05101   3.06480
 Alpha virt. eigenvalues --    3.07786   3.09168   3.10059   3.10306   3.11093
 Alpha virt. eigenvalues --    3.11916   3.14704   3.16265   3.17060   3.18103
 Alpha virt. eigenvalues --    3.19654   3.20518   3.22627   3.22890   3.25231
 Alpha virt. eigenvalues --    3.27640   3.27850   3.29024   3.30721   3.32736
 Alpha virt. eigenvalues --    3.33450   3.34683   3.38651   3.39626   3.40530
 Alpha virt. eigenvalues --    3.44217   3.45945   3.47630   3.48333   3.49510
 Alpha virt. eigenvalues --    3.52009   3.55839   3.56371   4.00399   4.01248
 Alpha virt. eigenvalues --    4.01469   4.02452   4.03227   4.03718   4.04180
 Alpha virt. eigenvalues --    4.05086   4.05699   4.06119   4.07336   4.07454
 Alpha virt. eigenvalues --    4.08314   4.08808   4.09690   4.09840   4.10621
 Alpha virt. eigenvalues --    4.11466   4.11831   4.12708   4.13926   4.14667
 Alpha virt. eigenvalues --    4.15220   4.16259   4.17215   4.17857   4.19330
 Alpha virt. eigenvalues --    4.19905   4.20200   4.20249   4.20704   4.21752
 Alpha virt. eigenvalues --    4.22922   4.23320   4.24594   4.25090   4.25783
 Alpha virt. eigenvalues --    4.26386   4.26737   4.27508   4.27794   4.28037
 Alpha virt. eigenvalues --    4.28385   4.28712   4.29004   4.30351   4.31560
 Alpha virt. eigenvalues --    4.32126   4.32586   4.34739   4.35830   4.36319
 Alpha virt. eigenvalues --    4.37188   4.38383   4.39581   4.40035   4.41008
 Alpha virt. eigenvalues --    4.41479   4.41772   4.43824   4.44528   4.44904
 Alpha virt. eigenvalues --    4.46950   4.48105   4.49437   4.50429   4.51509
 Alpha virt. eigenvalues --    4.51905   4.55105   4.56766   4.57303   4.57996
 Alpha virt. eigenvalues --    4.59245   4.59996   4.61880   4.63392   4.65745
 Alpha virt. eigenvalues --    4.67711   4.68701   4.71137   4.76546   4.78043
 Alpha virt. eigenvalues --    4.79803   4.80988   4.82832   4.86918   4.88485
 Alpha virt. eigenvalues --    4.91763   4.92094   4.98903   5.03203   5.04116
 Alpha virt. eigenvalues --    5.07192   5.13952   5.16350   5.22535
          Condensed to atoms (all electrons):
 Mulliken charges:
               1
     1  C   -0.014002
     2  C   -0.367541
     3  C   -0.015397
     4  C   -0.020343
     5  C    0.014276
     6  C    0.067503
     7  C    0.011927
     8  C   -0.026670
     9  C    0.041344
    10  C    0.042912
    11  C    0.037891
    12  C    0.050414
    13  C    0.002498
    14  C   -0.029829
    15  C    0.013431
    16  C   -0.022952
    17  C    0.067924
    18  C    0.078101
    19  C    0.128769
    20  C    0.125584
    21  C   -0.361636
    22  C   -0.360416
    23  C    0.157139
    24  C    0.156378
    25  C    0.109650
    26  C    0.110822
    27  C   -0.380209
    28  C   -0.380613
    29  C    0.090163
    30  C    0.091015
    31  C    0.088760
    32  C    0.084299
    33  C    0.004598
    34  C    0.003094
    35  C    0.035046
    36  C    0.037291
    37  C    0.074362
    38  C    0.047749
    39  C    0.120614
    40  C    0.081775
    41  C    0.002002
    42  C    0.047405
    43  C    0.081741
    44  C    0.119371
    45  C    0.051873
    46  C   -0.024607
    47  C    0.066947
    48  C    0.033947
    49  C   -0.013670
    50  C    0.010571
    51  C    0.092879
    52  C    0.092226
    53  C    0.075532
    54  C    0.079065
    55  C   -0.386360
    56  C   -0.386777
    57  C    0.109513
    58  C    0.109592
    59  C    0.122707
    60  C    0.122993
    61  C   -0.366145
    62  C   -0.366152
    63  C    0.127721
    64  C    0.127646
    65  C    0.127332
    66  C    0.127455
    67  C    0.124047
    68  C    0.125944
    69  C   -0.373180
    70  C   -0.374041
    71  C    0.091645
    72  C    0.089707
    73  C    0.022682
    74  C    0.024640
    75  C   -0.009313
    76  C   -0.013449
    77  C   -0.043087
    78  C   -0.019691
    79  C   -0.365999
    80  C    0.013001
    81  C    0.004438
    82  C    0.075788
    83  C    0.144851
    84  C    0.143658
    85  Cl   0.025221
    86  Cl   0.019773
    87  Cl   0.016940
    88  Cl   0.023655
    89  Cl   0.024971
    90  Cl   0.023569
    91  Cl  -0.003618
    92  Cl  -0.003602
    93  Cl   0.018197
    94  Cl  -0.003372
    95  Cl   0.016566
    96  Cl  -0.000467
 Sum of Mulliken charges =  -0.00000
 Mulliken charges with hydrogens summed into heavy atoms:
               1
     1  C   -0.014002
     2  C   -0.367541
     3  C   -0.015397
     4  C   -0.020343
     5  C    0.014276
     6  C    0.067503
     7  C    0.011927
     8  C   -0.026670
     9  C    0.041344
    10  C    0.042912
    11  C    0.037891
    12  C    0.050414
    13  C    0.002498
    14  C   -0.029829
    15  C    0.013431
    16  C   -0.022952
    17  C    0.067924
    18  C    0.078101
    19  C    0.128769
    20  C    0.125584
    21  C   -0.361636
    22  C   -0.360416
    23  C    0.157139
    24  C    0.156378
    25  C    0.109650
    26  C    0.110822
    27  C   -0.380209
    28  C   -0.380613
    29  C    0.090163
    30  C    0.091015
    31  C    0.088760
    32  C    0.084299
    33  C    0.004598
    34  C    0.003094
    35  C    0.035046
    36  C    0.037291
    37  C    0.074362
    38  C    0.047749
    39  C    0.120614
    40  C    0.081775
    41  C    0.002002
    42  C    0.047405
    43  C    0.081741
    44  C    0.119371
    45  C    0.051873
    46  C   -0.024607
    47  C    0.066947
    48  C    0.033947
    49  C   -0.013670
    50  C    0.010571
    51  C    0.092879
    52  C    0.092226
    53  C    0.075532
    54  C    0.079065
    55  C   -0.386360
    56  C   -0.386777
    57  C    0.109513
    58  C    0.109592
    59  C    0.122707
    60  C    0.122993
    61  C   -0.366145
    62  C   -0.366152
    63  C    0.127721
    64  C    0.127646
    65  C    0.127332
    66  C    0.127455
    67  C    0.124047
    68  C    0.125944
    69  C   -0.373180
    70  C   -0.374041
    71  C    0.091645
    72  C    0.089707
    73  C    0.022682
    74  C    0.024640
    75  C   -0.009313
    76  C   -0.013449
    77  C   -0.043087
    78  C   -0.019691
    79  C   -0.365999
    80  C    0.013001
    81  C    0.004438
    82  C    0.075788
    83  C    0.144851
    84  C    0.143658
    85  Cl   0.025221
    86  Cl   0.019773
    87  Cl   0.016940
    88  Cl   0.023655
    89  Cl   0.024971
    90  Cl   0.023569
    91  Cl  -0.003618
    92  Cl  -0.003602
    93  Cl   0.018197
    94  Cl  -0.003372
    95  Cl   0.016566
    96  Cl  -0.000467
 Electronic spatial extent (au):  <R**2>=          61194.4557
 Charge=             -0.0000 electrons
 Dipole moment (field-independent basis, Debye):
    X=              5.0015    Y=             -3.0411    Z=             -3.2931  Tot=              6.7163
 Quadrupole moment (field-independent basis, Debye-Ang):
   XX=           -654.4498   YY=           -633.0629   ZZ=           -614.8195
   XY=              0.2493   XZ=              0.6666   YZ=             -0.4034
 Traceless Quadrupole moment (field-independent basis, Debye-Ang):
   XX=            -20.3390   YY=              1.0478   ZZ=             19.2912
   XY=              0.2493   XZ=              0.6666   YZ=             -0.4034
 Octapole moment (field-independent basis, Debye-Ang**2):
  XXX=           -132.2395  YYY=            -37.5593  ZZZ=             -0.7238  XYY=             24.6005
  XXY=             51.6474  XXZ=              9.8766  XZZ=             27.0902  YZZ=            -20.8590
  YYZ=              1.3486  XYZ=            -24.2640
 Hexadecapole moment (field-independent basis, Debye-Ang**3):
 XXXX=         -32788.4988 YYYY=         -30902.6245 ZZZZ=         -23682.7014 XXXY=            226.8882
 XXXZ=           -218.4188 YYYX=            -90.5048 YYYZ=             38.1592 ZZZX=             87.1882
 ZZZY=            -50.9271 XXYY=         -10555.7248 XXZZ=          -9290.1545 YYZZ=          -9151.5209
 XXYZ=            -45.6605 YYXZ=            -23.7315 ZZXY=             28.5034
 N-N= 2.415652576088D+04 E-N=-6.883234899875D+04  KE= 8.676604758171D+03
 No NMR shielding tensors so no spin-rotation constants.
 Leave Link  601 at Sun Jun 26 23:22:56 2022, MaxMem=  1342177280 cpu:              26.1 elap:               1.3
 (Enter /home/mkliu/g16/l9999.exe)
 1\1\GINC-NODE02\FOpt\RB3LYP\6-31G(d,p)\C84Cl12\MKLIU\26-Jun-2022\0\\#P
  opt b3lyp/6-31G(d, p) empiricaldispersion=GD3\\force\\0,1\C,8.2939488
 373,18.8995968563,10.5134196832\C,12.5205753028,19.9890295854,8.868666
 9908\C,8.292371765,26.8714880771,10.5233193668\C,12.3099811767,25.6138
 828825,8.9303641123\C,7.9715960399,18.9580855446,9.1442659773\C,11.897
 2841669,19.5586519101,10.1746851711\C,7.9744177263,26.8082788025,9.147
 7554102\C,11.8778025184,26.2022182387,10.1772638356\C,8.9776250307,19.
 1193822275,8.1311254598\C,12.1219177885,20.2270070167,11.3451612122\C,
 12.1094257399,25.5389616063,11.359287903\C,8.9848021128,26.6639620642,
 8.1349228641\C,10.3096621815,19.0564960833,8.5729025561\C,10.313385204
 9,26.7570228372,8.5837597832\C,10.6348987025,18.9537064546,9.965283386
 9\C,10.6291757923,26.8705580974,9.976829148\C,9.6330467489,18.96987866
 17,10.9727595345\C,9.6296423182,26.8246345669,10.9830838642\C,9.919509
 4259,19.6253340652,12.2275728567\C,9.9165301566,26.1492242783,12.23955
 50646\C,8.7844275235,20.0614212271,13.1330052491\C,8.777363695,25.7010
 472273,13.1379651712\C,7.4507931946,20.1554558287,12.423150622\C,7.443
 5854398,25.6050644349,12.4280799285\C,7.2249685726,19.5393811656,11.26
 13998606\C,7.224467567,26.2192309045,11.2648867962\C,6.1025833731,19.9
 516094859,10.3295125543\C,6.1072516998,25.8049485805,10.3286075881\C,6
 .6724124174,19.5498511249,8.990629013\C,6.682278289,26.2064457278,8.99
 26543646\C,6.3669823463,20.2069305475,7.8551805028\C,6.3796883161,25.5
 478343983,7.855806421\C,7.3328708209,20.3216458342,6.7914892568\C,7.34
 91307691,25.4368282366,6.7974618522\C,8.6752540052,19.8681911335,6.936
 2750449\C,8.6805309919,25.904261688,6.9340806914\C,9.7418576021,20.589
 5032437,6.2509679777\C,9.7478441925,25.1735794254,6.2460644329\C,11.09
 01209943,20.5495375463,6.8052382982\C,12.8059204818,22.1511026303,7.73
 09035054\C,12.7615348382,23.5824054996,7.7282424243\C,11.0855910661,25
 .181708002,6.8132315137\C,11.3520324868,19.7718914434,7.9003886618\C,1
 2.9552765944,21.4436469117,8.8928092148\C,12.9268242272,24.3303546486,
 8.914393226\C,11.3639029888,25.9928874971,7.9382494096\C,13.1484298893
 ,22.1631160276,10.1466950222\C,13.1473879515,23.6081374331,10.15344691
 04\C,12.8217274997,21.5067543522,11.3617815755\C,12.803406931,24.26923
 94163,11.3694728296\C,12.4210568445,22.1976122579,12.5221003007\C,12.4
 119246186,23.572369417,12.5279878723\C,11.1531922512,20.215553912,12.3
 977228923\C,11.1486200663,25.5635020576,12.4238096764\C,11.4464028737,
 21.3761071858,13.3478765522\C,11.4405061675,24.3903071267,13.361552989
 1\C,8.9673381311,21.4966967219,13.5815043985\C,8.9632430615,24.2647431
 381,13.5818506643\C,7.7633893283,22.1922791116,13.469586147\C,7.761431
 6304,23.5665929179,13.4690790349\C,6.6783384229,21.3959304676,12.79990
 52272\C,6.6747227176,24.3616081718,12.8010556409\C,6.1677654659,22.170
 2868642,11.564407284\C,6.1673166481,23.5871283921,11.5644990973\C,5.88
 0885133,21.4727565705,10.3750412533\C,5.8828907813,24.2844859381,10.37
 47752705\C,5.575237055,22.1740209326,9.1856634113\C,5.5775378252,23.58
 33732213,9.1854563154\C,5.4239199731,21.3971323136,7.858524425\C,5.433
 1355091,24.3605641731,7.8585169746\C,5.9551083774,22.1987607842,6.6891
 721524\C,5.9592120339,23.5560953253,6.6902795068\C,7.0191351698,21.477
 4659257,6.036061263\C,7.0330354335,24.2681585292,6.0431295911\C,8.0404
 142491,22.1477904005,5.3559982364\C,8.0414873196,23.5940638592,5.36514
 92672\C,9.3826956924,21.6852096645,5.4281031283\C,9.3915173091,24.0532
 274317,5.4548925553\C,12.1168282726,21.6214081954,6.4695411561\C,11.90
 8872025,24.0245900962,6.66779426\C,10.2364042593,22.8764959957,5.37367
 22114\C,11.4723588068,22.8809896667,5.9432558475\C,10.1894672088,22.17
 46846469,13.6404582108\C,10.1863796904,23.5884754964,13.6431207493\Cl,
 4.5442079548,19.0641534266,10.7314623162\Cl,3.6650189292,20.9160201677
 ,7.6174926792\Cl,3.6742657984,24.8475089264,7.6151443727\Cl,4.54713317
 36,26.693676757,10.725894764\Cl,5.2694084779,21.0317365893,13.93261538
 46\Cl,5.2625716312,24.7155275695,13.9339768019\Cl,13.3601419424,20.967
 7343846,5.2549998858\Cl,13.9552931115,18.8888869607,8.4402176227\Cl,12
 .202327389,20.7796629578,14.9207552656\Cl,8.6781441205,18.9194361799,1
 4.602866668\Cl,12.2016059057,24.9634254451,14.9412314089\Cl,8.66837245
 61,26.8386174701,14.609422097\\Version=ES64L-G16RevA.03\State=1-A\HF=-
 8723.4315798\RMSD=5.902e-09\RMSF=2.144e-05\Dipole=1.4918686,0.5147586,
 -2.1193343\Quadrupole=-9.2762344,11.1987361,-1.9225017,8.1131436,5.206
 9002,-4.1648482\PG=C01 [X(C84Cl12)]\\@


 HONESTY IN A LAWYER IS LIKE A HEN'S HIND LEGS.
  -- MAGNUS OLESON, LAKE WOBEGON PATRIARCH, C.1875
 Job cpu time:       1 days 11 hours 11 minutes  9.3 seconds.
 Elapsed time:       0 days  1 hours 28 minutes  5.6 seconds.
 File lengths (MBytes):  RWF=   1359 Int=      0 D2E=      0 Chk=    170 Scr=      1
 Normal termination of Gaussian 16 at Sun Jun 26 23:22:58 2022.
