 Entering Gaussian System, Link 0=g16
 Input=12_addons_C84_14_Cl22_rank_2.gjf
 Output=12_addons_C84_14_Cl22_rank_2.log
 Initial command:
 /home/mkliu/g16/l1.exe "/data/scratch/Gau-174463.inp" -scrdir="/data/scratch/"
 Entering Link 1 = /home/mkliu/g16/l1.exe PID=    174464.
  
 Copyright (c) 1988,1990,1992,1993,1995,1998,2003,2009,2016,
            Gaussian, Inc.  All Rights Reserved.
  
 This is part of the Gaussian(R) 16 program.  It is based on
 the Gaussian(R) 09 system (copyright 2009, Gaussian, Inc.),
 the Gaussian(R) 03 system (copyright 2003, Gaussian, Inc.),
 the Gaussian(R) 98 system (copyright 1998, Gaussian, Inc.),
 the Gaussian(R) 94 system (copyright 1995, Gaussian, Inc.),
 the Gaussian 92(TM) system (copyright 1992, Gaussian, Inc.),
 the Gaussian 90(TM) system (copyright 1990, Gaussian, Inc.),
 the Gaussian 88(TM) system (copyright 1988, Gaussian, Inc.),
 the Gaussian 86(TM) system (copyright 1986, Carnegie Mellon
 University), and the Gaussian 82(TM) system (copyright 1983,
 Carnegie Mellon University). Gaussian is a federally registered
 trademark of Gaussian, Inc.
  
 This software contains proprietary and confidential information,
 including trade secrets, belonging to Gaussian, Inc.
  
 This software is provided under written license and may be
 used, copied, transmitted, or stored only in accord with that
 written license.
  
 The following legend is applicable only to US Government
 contracts under FAR:
  
                    RESTRICTED RIGHTS LEGEND
  
 Use, reproduction and disclosure by the US Government is
 subject to restrictions as set forth in subparagraphs (a)
 and (c) of the Commercial Computer Software - Restricted
 Rights clause in FAR 52.227-19.
  
 Gaussian, Inc.
 340 Quinnipiac St., Bldg. 40, Wallingford CT 06492
  
  
 ---------------------------------------------------------------
 Warning -- This program may not be used in any manner that
 competes with the business of Gaussian, Inc. or will provide
 assistance to any competitor of Gaussian, Inc.  The licensee
 of this program is prohibited from giving any competitor of
 Gaussian, Inc. access to this program.  By using this program,
 the user acknowledges that Gaussian, Inc. is engaged in the
 business of creating and licensing software in the field of
 computational chemistry and represents and warrants to the
 licensee that it is not a competitor of Gaussian, Inc. and that
 it will not use this program in any manner prohibited above.
 ---------------------------------------------------------------
  

 Cite this work as:
 Gaussian 16, Revision A.03,
 M. J. Frisch, G. W. Trucks, H. B. Schlegel, G. E. Scuseria, 
 M. A. Robb, J. R. Cheeseman, G. Scalmani, V. Barone, 
 G. A. Petersson, H. Nakatsuji, X. Li, M. Caricato, A. V. Marenich, 
 J. Bloino, B. G. Janesko, R. Gomperts, B. Mennucci, H. P. Hratchian, 
 J. V. Ortiz, A. F. Izmaylov, J. L. Sonnenberg, D. Williams-Young, 
 F. Ding, F. Lipparini, F. Egidi, J. Goings, B. Peng, A. Petrone, 
 T. Henderson, D. Ranasinghe, V. G. Zakrzewski, J. Gao, N. Rega, 
 G. Zheng, W. Liang, M. Hada, M. Ehara, K. Toyota, R. Fukuda, 
 J. Hasegawa, M. Ishida, T. Nakajima, Y. Honda, O. Kitao, H. Nakai, 
 T. Vreven, K. Throssell, J. A. Montgomery, Jr., J. E. Peralta, 
 F. Ogliaro, M. J. Bearpark, J. J. Heyd, E. N. Brothers, K. N. Kudin, 
 V. N. Staroverov, T. A. Keith, R. Kobayashi, J. Normand, 
 K. Raghavachari, A. P. Rendell, J. C. Burant, S. S. Iyengar, 
 J. Tomasi, M. Cossi, J. M. Millam, M. Klene, C. Adamo, R. Cammi, 
 J. W. Ochterski, R. L. Martin, K. Morokuma, O. Farkas, 
 J. B. Foresman, and D. J. Fox, Gaussian, Inc., Wallingford CT, 2016.
 
 ******************************************
 Gaussian 16:  ES64L-G16RevA.03 25-Dec-2016
                27-Jun-2022 
 ******************************************
 %mem=10GB
 %chk=12_addons_C84_14_Cl22_rank_2.chk
 %nprocshared=24
 Will use up to   24 processors via shared memory.
 ------------------------------------------------
 #P opt b3lyp/6-31G(d, p) empiricaldispersion=GD3
 ------------------------------------------------
 1/18=20,19=15,26=3,38=1/1,3;
 2/9=110,12=2,17=6,18=5,40=1/2;
 3/5=1,6=6,7=101,11=2,25=1,30=1,71=1,74=-5,124=31/1,2,3;
 4//1;
 5/5=2,38=5/2;
 6/7=2,8=2,9=2,10=2,28=1/1;
 7//1,2,3,16;
 1/18=20,19=15,26=3/3(2);
 2/9=110/2;
 99//99;
 2/9=110/2;
 3/5=1,6=6,7=101,11=2,25=1,30=1,71=1,74=-5,124=31/1,2,3;
 4/5=5,16=3,69=1/1;
 5/5=2,38=5/2;
 7//1,2,3,16;
 1/18=20,19=15,26=3/3(-5);
 2/9=110/2;
 6/7=2,8=2,9=2,10=2,19=2,28=1/1;
 99/9=1/99;
 Leave Link    1 at Mon Jun 27 14:42:13 2022, MaxMem=  1342177280 cpu:               0.6 elap:               0.1
 (Enter /home/mkliu/g16/l101.exe)
 -----
 force
 -----
 Symbolic Z-matrix:
 Charge =  0 Multiplicity = 1
 C                     8.22788   18.65508   10.58579 
 C                     12.47426   20.01257   8.93027 
 C                     8.28014   26.82704   10.52957 
 C                     12.49665   25.74848   8.91091 
 C                     7.96449   18.97146   9.14102 
 C                     11.88258   19.57874   10.23414 
 C                     7.9643    26.78046   9.14832 
 C                     11.89311   26.18202   10.21363 
 C                     8.95424   19.14693   8.16511 
 C                     12.15747   20.22079   11.39925 
 C                     12.15521   25.54654   11.38351 
 C                     8.96443   26.60164   8.16306 
 C                     10.30268   19.08856   8.61745 
 C                     10.29341   26.65494   8.62288 
 C                     10.60817   18.98323   10.03139 
 C                     10.6164   26.77369   9.99672 
 C                     9.63015   18.97535   11.00673 
 C                     9.61173   26.7663   10.99129 
 C                     9.88879   19.66956   12.2209 
 C                     9.88272   26.08867   12.2212 
 C                     8.80936   20.2649   12.91614 
 C                     8.79942   25.48617   12.90472 
 C                     7.47754   20.20564   12.36943 
 C                     7.46733   25.55736   12.4017 
 C                     7.2013    19.51761   11.26009 
 C                     7.20963   26.22525   11.25335 
 C                     6.11744   19.96601   10.32838 
 C                     6.10211   25.80536   10.33034 
 C                     6.718     19.58424   9.01477 
 C                     6.67644   26.201    9.00339 
 C                     6.39707   20.2514   7.86688 
 C                     6.37241   25.53689   7.8663 
 C                     7.33685   20.34756   6.82735 
 C                     7.33432   25.42588   6.82175 
 C                     8.66627   19.88614   6.97435 
 C                     8.67033   25.86113   6.97648 
 C                     9.72115   20.59897   6.29451 
 C                     9.72657   25.13445   6.30983 
 C                     11.04565   20.58441   6.85081 
 C                     12.66691   22.1838   7.81804 
 C                     12.70929   23.58139   7.80317 
 C                     11.05787   25.16712   6.86709 
 C                     11.31267   19.78022   7.98257 
 C                     12.84048   21.47267   8.99483 
 C                     12.86918   24.28877   8.97468 
 C                     11.32815   25.94145   7.95829 
 C                     13.0682   22.17883   10.18494 
 C                     13.07229   23.58485   10.17833 
 C                     13.08498   21.40498   11.49368 
 C                     13.08102   24.3627   11.48375 
 C                     12.4144   22.20727   12.57267 
 C                     12.41215   23.56382   12.56698 
 C                     11.15074   20.2828   12.39667 
 C                     11.14762   25.48541   12.39237 
 C                     11.30283   21.50059   13.11567 
 C                     11.30077   24.27077   13.10828 
 C                     8.95213   21.4833   13.59683 
 C                     8.95023   24.2678   13.60539 
 C                     7.71734   22.20093   13.52652 
 C                     7.7162    23.55159   13.5329 
 C                     6.68374   21.41676   12.77461 
 C                     6.67497   24.34361   12.79482 
 C                     6.23888   22.18536   11.53782 
 C                     6.23724   23.58653   11.542 
 C                     5.95215   21.48455   10.36101 
 C                     5.94865   24.28593   10.36342 
 C                     5.64701   22.18535   9.1828 
 C                     5.64556   23.58718   9.18355 
 C                     5.44561   21.41544   7.87896 
 C                     5.43631   24.3597   7.87893 
 C                     5.94864   22.21038   6.70799 
 C                     5.94898   23.5692   6.70921 
 C                     7.01093   21.51038   6.05991 
 C                     7.00847   24.27412   6.06178 
 C                     8.01825   22.17536   5.39434 
 C                     8.02378   23.60469   5.38942 
 C                     9.37175   21.71345   5.49795 
 C                     9.36941   24.05629   5.47967 
 C                     11.86355   21.72273   6.69976 
 C                     12.07858   24.10872   6.5345 
 C                     10.20084   22.8694   5.41997 
 C                     11.44822   22.85677   5.99805 
 C                     10.19605   22.16673   13.67248 
 C                     10.19181   23.59645   13.67032 
 Cl                    4.52224   19.19749   10.66117 
 Cl                    3.71337   20.95322   7.7427 
 Cl                    3.69788   24.79638   7.74616 
 Cl                    4.51962   26.56549   10.70826 
 Cl                    5.23117   21.01208   13.75483 
 Cl                    5.21628   24.71278   13.77871 
 Cl                    14.78319   20.95381   11.88437 
 Cl                    14.77816   24.82295   11.88023 
 Cl                    13.92643   19.0482   8.4512 
 Cl                    13.92332   26.73679   8.4272 
 Cl                    7.9029    16.87848   10.90761 
 Cl                    13.32176   24.78199   5.4061 
 
 ITRead=  0  0  0  0  0  0  0  0  0  0  0  0  0  0  0  0  0  0  0  0
 ITRead=  0  0  0  0  0  0  0  0  0  0  0  0  0  0  0  0  0  0  0  0
 ITRead=  0  0  0  0  0  0  0  0  0  0  0  0  0  0  0  0  0  0  0  0
 ITRead=  0  0  0  0  0  0  0  0  0  0  0  0  0  0  0  0  0  0  0  0
 ITRead=  0  0  0  0  0  0  0  0  0  0  0  0  0  0  0  0
 MicOpt= -1 -1 -1 -1 -1 -1 -1 -1 -1 -1 -1 -1 -1 -1 -1 -1 -1 -1 -1 -1
 MicOpt= -1 -1 -1 -1 -1 -1 -1 -1 -1 -1 -1 -1 -1 -1 -1 -1 -1 -1 -1 -1
 MicOpt= -1 -1 -1 -1 -1 -1 -1 -1 -1 -1 -1 -1 -1 -1 -1 -1 -1 -1 -1 -1
 MicOpt= -1 -1 -1 -1 -1 -1 -1 -1 -1 -1 -1 -1 -1 -1 -1 -1 -1 -1 -1 -1
 MicOpt= -1 -1 -1 -1 -1 -1 -1 -1 -1 -1 -1 -1 -1 -1 -1 -1
 NAtoms=     96 NQM=       96 NQMF=       0 NMMI=      0 NMMIF=      0
                NMic=       0 NMicF=      0.
                    Isotopes and Nuclear Properties:
 (Nuclear quadrupole moments (NQMom) in fm**2, nuclear magnetic moments (NMagM)
  in nuclear magnetons)

  Atom         1           2           3           4           5           6           7           8           9          10
 IAtWgt=          12          12          12          12          12          12          12          12          12          12
 AtmWgt=  12.0000000  12.0000000  12.0000000  12.0000000  12.0000000  12.0000000  12.0000000  12.0000000  12.0000000  12.0000000
 NucSpn=           0           0           0           0           0           0           0           0           0           0
 AtZEff=  -0.0000000  -0.0000000  -0.0000000  -0.0000000  -0.0000000  -0.0000000  -0.0000000  -0.0000000  -0.0000000  -0.0000000
 NQMom=    0.0000000   0.0000000   0.0000000   0.0000000   0.0000000   0.0000000   0.0000000   0.0000000   0.0000000   0.0000000
 NMagM=    0.0000000   0.0000000   0.0000000   0.0000000   0.0000000   0.0000000   0.0000000   0.0000000   0.0000000   0.0000000
 AtZNuc=   6.0000000   6.0000000   6.0000000   6.0000000   6.0000000   6.0000000   6.0000000   6.0000000   6.0000000   6.0000000

  Atom        11          12          13          14          15          16          17          18          19          20
 IAtWgt=          12          12          12          12          12          12          12          12          12          12
 AtmWgt=  12.0000000  12.0000000  12.0000000  12.0000000  12.0000000  12.0000000  12.0000000  12.0000000  12.0000000  12.0000000
 NucSpn=           0           0           0           0           0           0           0           0           0           0
 AtZEff=  -0.0000000  -0.0000000  -0.0000000  -0.0000000  -0.0000000  -0.0000000  -0.0000000  -0.0000000  -0.0000000  -0.0000000
 NQMom=    0.0000000   0.0000000   0.0000000   0.0000000   0.0000000   0.0000000   0.0000000   0.0000000   0.0000000   0.0000000
 NMagM=    0.0000000   0.0000000   0.0000000   0.0000000   0.0000000   0.0000000   0.0000000   0.0000000   0.0000000   0.0000000
 AtZNuc=   6.0000000   6.0000000   6.0000000   6.0000000   6.0000000   6.0000000   6.0000000   6.0000000   6.0000000   6.0000000

  Atom        21          22          23          24          25          26          27          28          29          30
 IAtWgt=          12          12          12          12          12          12          12          12          12          12
 AtmWgt=  12.0000000  12.0000000  12.0000000  12.0000000  12.0000000  12.0000000  12.0000000  12.0000000  12.0000000  12.0000000
 NucSpn=           0           0           0           0           0           0           0           0           0           0
 AtZEff=  -0.0000000  -0.0000000  -0.0000000  -0.0000000  -0.0000000  -0.0000000  -0.0000000  -0.0000000  -0.0000000  -0.0000000
 NQMom=    0.0000000   0.0000000   0.0000000   0.0000000   0.0000000   0.0000000   0.0000000   0.0000000   0.0000000   0.0000000
 NMagM=    0.0000000   0.0000000   0.0000000   0.0000000   0.0000000   0.0000000   0.0000000   0.0000000   0.0000000   0.0000000
 AtZNuc=   6.0000000   6.0000000   6.0000000   6.0000000   6.0000000   6.0000000   6.0000000   6.0000000   6.0000000   6.0000000

  Atom        31          32          33          34          35          36          37          38          39          40
 IAtWgt=          12          12          12          12          12          12          12          12          12          12
 AtmWgt=  12.0000000  12.0000000  12.0000000  12.0000000  12.0000000  12.0000000  12.0000000  12.0000000  12.0000000  12.0000000
 NucSpn=           0           0           0           0           0           0           0           0           0           0
 AtZEff=  -0.0000000  -0.0000000  -0.0000000  -0.0000000  -0.0000000  -0.0000000  -0.0000000  -0.0000000  -0.0000000  -0.0000000
 NQMom=    0.0000000   0.0000000   0.0000000   0.0000000   0.0000000   0.0000000   0.0000000   0.0000000   0.0000000   0.0000000
 NMagM=    0.0000000   0.0000000   0.0000000   0.0000000   0.0000000   0.0000000   0.0000000   0.0000000   0.0000000   0.0000000
 AtZNuc=   6.0000000   6.0000000   6.0000000   6.0000000   6.0000000   6.0000000   6.0000000   6.0000000   6.0000000   6.0000000

  Atom        41          42          43          44          45          46          47          48          49          50
 IAtWgt=          12          12          12          12          12          12          12          12          12          12
 AtmWgt=  12.0000000  12.0000000  12.0000000  12.0000000  12.0000000  12.0000000  12.0000000  12.0000000  12.0000000  12.0000000
 NucSpn=           0           0           0           0           0           0           0           0           0           0
 AtZEff=  -0.0000000  -0.0000000  -0.0000000  -0.0000000  -0.0000000  -0.0000000  -0.0000000  -0.0000000  -0.0000000  -0.0000000
 NQMom=    0.0000000   0.0000000   0.0000000   0.0000000   0.0000000   0.0000000   0.0000000   0.0000000   0.0000000   0.0000000
 NMagM=    0.0000000   0.0000000   0.0000000   0.0000000   0.0000000   0.0000000   0.0000000   0.0000000   0.0000000   0.0000000
 AtZNuc=   6.0000000   6.0000000   6.0000000   6.0000000   6.0000000   6.0000000   6.0000000   6.0000000   6.0000000   6.0000000

  Atom        51          52          53          54          55          56          57          58          59          60
 IAtWgt=          12          12          12          12          12          12          12          12          12          12
 AtmWgt=  12.0000000  12.0000000  12.0000000  12.0000000  12.0000000  12.0000000  12.0000000  12.0000000  12.0000000  12.0000000
 NucSpn=           0           0           0           0           0           0           0           0           0           0
 AtZEff=  -0.0000000  -0.0000000  -0.0000000  -0.0000000  -0.0000000  -0.0000000  -0.0000000  -0.0000000  -0.0000000  -0.0000000
 NQMom=    0.0000000   0.0000000   0.0000000   0.0000000   0.0000000   0.0000000   0.0000000   0.0000000   0.0000000   0.0000000
 NMagM=    0.0000000   0.0000000   0.0000000   0.0000000   0.0000000   0.0000000   0.0000000   0.0000000   0.0000000   0.0000000
 AtZNuc=   6.0000000   6.0000000   6.0000000   6.0000000   6.0000000   6.0000000   6.0000000   6.0000000   6.0000000   6.0000000

  Atom        61          62          63          64          65          66          67          68          69          70
 IAtWgt=          12          12          12          12          12          12          12          12          12          12
 AtmWgt=  12.0000000  12.0000000  12.0000000  12.0000000  12.0000000  12.0000000  12.0000000  12.0000000  12.0000000  12.0000000
 NucSpn=           0           0           0           0           0           0           0           0           0           0
 AtZEff=  -0.0000000  -0.0000000  -0.0000000  -0.0000000  -0.0000000  -0.0000000  -0.0000000  -0.0000000  -0.0000000  -0.0000000
 NQMom=    0.0000000   0.0000000   0.0000000   0.0000000   0.0000000   0.0000000   0.0000000   0.0000000   0.0000000   0.0000000
 NMagM=    0.0000000   0.0000000   0.0000000   0.0000000   0.0000000   0.0000000   0.0000000   0.0000000   0.0000000   0.0000000
 AtZNuc=   6.0000000   6.0000000   6.0000000   6.0000000   6.0000000   6.0000000   6.0000000   6.0000000   6.0000000   6.0000000

  Atom        71          72          73          74          75          76          77          78          79          80
 IAtWgt=          12          12          12          12          12          12          12          12          12          12
 AtmWgt=  12.0000000  12.0000000  12.0000000  12.0000000  12.0000000  12.0000000  12.0000000  12.0000000  12.0000000  12.0000000
 NucSpn=           0           0           0           0           0           0           0           0           0           0
 AtZEff=  -0.0000000  -0.0000000  -0.0000000  -0.0000000  -0.0000000  -0.0000000  -0.0000000  -0.0000000  -0.0000000  -0.0000000
 NQMom=    0.0000000   0.0000000   0.0000000   0.0000000   0.0000000   0.0000000   0.0000000   0.0000000   0.0000000   0.0000000
 NMagM=    0.0000000   0.0000000   0.0000000   0.0000000   0.0000000   0.0000000   0.0000000   0.0000000   0.0000000   0.0000000
 AtZNuc=   6.0000000   6.0000000   6.0000000   6.0000000   6.0000000   6.0000000   6.0000000   6.0000000   6.0000000   6.0000000

  Atom        81          82          83          84          85          86          87          88          89          90
 IAtWgt=          12          12          12          12          35          35          35          35          35          35
 AtmWgt=  12.0000000  12.0000000  12.0000000  12.0000000  34.9688527  34.9688527  34.9688527  34.9688527  34.9688527  34.9688527
 NucSpn=           0           0           0           0           3           3           3           3           3           3
 AtZEff=  -0.0000000  -0.0000000  -0.0000000  -0.0000000  -0.0000000  -0.0000000  -0.0000000  -0.0000000  -0.0000000  -0.0000000
 NQMom=    0.0000000   0.0000000   0.0000000   0.0000000  -8.1650000  -8.1650000  -8.1650000  -8.1650000  -8.1650000  -8.1650000
 NMagM=    0.0000000   0.0000000   0.0000000   0.0000000   0.8218740   0.8218740   0.8218740   0.8218740   0.8218740   0.8218740
 AtZNuc=   6.0000000   6.0000000   6.0000000   6.0000000  17.0000000  17.0000000  17.0000000  17.0000000  17.0000000  17.0000000

  Atom        91          92          93          94          95          96
 IAtWgt=          35          35          35          35          35          35
 AtmWgt=  34.9688527  34.9688527  34.9688527  34.9688527  34.9688527  34.9688527
 NucSpn=           3           3           3           3           3           3
 AtZEff=  -0.0000000  -0.0000000  -0.0000000  -0.0000000  -0.0000000  -0.0000000
 NQMom=   -8.1650000  -8.1650000  -8.1650000  -8.1650000  -8.1650000  -8.1650000
 NMagM=    0.8218740   0.8218740   0.8218740   0.8218740   0.8218740   0.8218740
 AtZNuc=  17.0000000  17.0000000  17.0000000  17.0000000  17.0000000  17.0000000
 Leave Link  101 at Mon Jun 27 14:42:13 2022, MaxMem=  1342177280 cpu:               6.7 elap:               0.3
 (Enter /home/mkliu/g16/l103.exe)

 GradGradGradGradGradGradGradGradGradGradGradGradGradGradGradGradGradGrad
 Berny optimization.
 Initialization pass.
                           ----------------------------
                           !    Initial Parameters    !
                           ! (Angstroms and Degrees)  !
 --------------------------                            --------------------------
 ! Name  Definition              Value          Derivative Info.                !
 --------------------------------------------------------------------------------
 ! R1    R(1,5)                  1.5023         estimate D2E/DX2                !
 ! R2    R(1,17)                 1.4987         estimate D2E/DX2                !
 ! R3    R(1,25)                 1.5008         estimate D2E/DX2                !
 ! R4    R(1,95)                 1.8345         estimate D2E/DX2                !
 ! R5    R(2,6)                  1.4961         estimate D2E/DX2                !
 ! R6    R(2,43)                 1.517          estimate D2E/DX2                !
 ! R7    R(2,44)                 1.5067         estimate D2E/DX2                !
 ! R8    R(2,93)                 1.8078         estimate D2E/DX2                !
 ! R9    R(3,7)                  1.4177         estimate D2E/DX2                !
 ! R10   R(3,18)                 1.4107         estimate D2E/DX2                !
 ! R11   R(3,26)                 1.4255         estimate D2E/DX2                !
 ! R12   R(4,8)                  1.4998         estimate D2E/DX2                !
 ! R13   R(4,45)                 1.5078         estimate D2E/DX2                !
 ! R14   R(4,46)                 1.5199         estimate D2E/DX2                !
 ! R15   R(4,94)                 1.8017         estimate D2E/DX2                !
 ! R16   R(5,9)                  1.401          estimate D2E/DX2                !
 ! R17   R(5,29)                 1.3947         estimate D2E/DX2                !
 ! R18   R(6,10)                 1.3584         estimate D2E/DX2                !
 ! R19   R(6,15)                 1.4212         estimate D2E/DX2                !
 ! R20   R(7,12)                 1.4153         estimate D2E/DX2                !
 ! R21   R(7,30)                 1.4196         estimate D2E/DX2                !
 ! R22   R(8,11)                 1.3569         estimate D2E/DX2                !
 ! R23   R(8,16)                 1.4238         estimate D2E/DX2                !
 ! R24   R(9,13)                 1.4235         estimate D2E/DX2                !
 ! R25   R(9,35)                 1.4308         estimate D2E/DX2                !
 ! R26   R(10,49)                1.5072         estimate D2E/DX2                !
 ! R27   R(10,53)                1.4185         estimate D2E/DX2                !
 ! R28   R(11,50)                1.5062         estimate D2E/DX2                !
 ! R29   R(11,54)                1.4272         estimate D2E/DX2                !
 ! R30   R(12,14)                1.4073         estimate D2E/DX2                !
 ! R31   R(12,36)                1.4293         estimate D2E/DX2                !
 ! R32   R(13,15)                1.4504         estimate D2E/DX2                !
 ! R33   R(13,43)                1.379          estimate D2E/DX2                !
 ! R34   R(14,16)                1.4163         estimate D2E/DX2                !
 ! R35   R(14,46)                1.4218         estimate D2E/DX2                !
 ! R36   R(15,17)                1.3813         estimate D2E/DX2                !
 ! R37   R(16,18)                1.4137         estimate D2E/DX2                !
 ! R38   R(17,19)                1.4223         estimate D2E/DX2                !
 ! R39   R(18,20)                1.4301         estimate D2E/DX2                !
 ! R40   R(19,21)                1.4153         estimate D2E/DX2                !
 ! R41   R(19,53)                1.414          estimate D2E/DX2                !
 ! R42   R(20,22)                1.4155         estimate D2E/DX2                !
 ! R43   R(20,54)                1.4118         estimate D2E/DX2                !
 ! R44   R(21,23)                1.4409         estimate D2E/DX2                !
 ! R45   R(21,57)                1.4029         estimate D2E/DX2                !
 ! R46   R(22,24)                1.4257         estimate D2E/DX2                !
 ! R47   R(22,58)                1.4135         estimate D2E/DX2                !
 ! R48   R(23,25)                1.3343         estimate D2E/DX2                !
 ! R49   R(23,61)                1.5037         estimate D2E/DX2                !
 ! R50   R(24,26)                1.3532         estimate D2E/DX2                !
 ! R51   R(24,62)                1.5019         estimate D2E/DX2                !
 ! R52   R(25,27)                1.498          estimate D2E/DX2                !
 ! R53   R(26,28)                1.5016         estimate D2E/DX2                !
 ! R54   R(27,29)                1.494          estimate D2E/DX2                !
 ! R55   R(27,65)                1.5279         estimate D2E/DX2                !
 ! R56   R(27,85)                1.8017         estimate D2E/DX2                !
 ! R57   R(28,30)                1.4991         estimate D2E/DX2                !
 ! R58   R(28,66)                1.5275         estimate D2E/DX2                !
 ! R59   R(28,88)                1.7958         estimate D2E/DX2                !
 ! R60   R(29,31)                1.3659         estimate D2E/DX2                !
 ! R61   R(30,32)                1.3515         estimate D2E/DX2                !
 ! R62   R(31,33)                1.4046         estimate D2E/DX2                !
 ! R63   R(31,69)                1.5035         estimate D2E/DX2                !
 ! R64   R(32,34)                1.4243         estimate D2E/DX2                !
 ! R65   R(32,70)                1.5041         estimate D2E/DX2                !
 ! R66   R(33,35)                1.4149         estimate D2E/DX2                !
 ! R67   R(33,73)                1.4309         estimate D2E/DX2                !
 ! R68   R(34,36)                1.4136         estimate D2E/DX2                !
 ! R69   R(34,74)                1.4178         estimate D2E/DX2                !
 ! R70   R(35,37)                1.4433         estimate D2E/DX2                !
 ! R71   R(36,38)                1.445          estimate D2E/DX2                !
 ! R72   R(37,39)                1.4367         estimate D2E/DX2                !
 ! R73   R(37,77)                1.4137         estimate D2E/DX2                !
 ! R74   R(38,42)                1.4436         estimate D2E/DX2                !
 ! R75   R(38,78)                1.4068         estimate D2E/DX2                !
 ! R76   R(39,43)                1.4138         estimate D2E/DX2                !
 ! R77   R(39,79)                1.4098         estimate D2E/DX2                !
 ! R78   R(40,41)                1.3983         estimate D2E/DX2                !
 ! R79   R(40,44)                1.3859         estimate D2E/DX2                !
 ! R80   R(40,79)                1.4521         estimate D2E/DX2                !
 ! R81   R(41,45)                1.3778         estimate D2E/DX2                !
 ! R82   R(41,80)                1.5118         estimate D2E/DX2                !
 ! R83   R(42,46)                1.365          estimate D2E/DX2                !
 ! R84   R(42,80)                1.5075         estimate D2E/DX2                !
 ! R85   R(44,47)                1.4025         estimate D2E/DX2                !
 ! R86   R(45,48)                1.4091         estimate D2E/DX2                !
 ! R87   R(47,48)                1.406          estimate D2E/DX2                !
 ! R88   R(47,49)                1.5205         estimate D2E/DX2                !
 ! R89   R(48,50)                1.5196         estimate D2E/DX2                !
 ! R90   R(49,51)                1.5025         estimate D2E/DX2                !
 ! R91   R(49,91)                1.8            estimate D2E/DX2                !
 ! R92   R(50,52)                1.503          estimate D2E/DX2                !
 ! R93   R(50,92)                1.8026         estimate D2E/DX2                !
 ! R94   R(51,52)                1.3566         estimate D2E/DX2                !
 ! R95   R(51,55)                1.4247         estimate D2E/DX2                !
 ! R96   R(52,56)                1.4241         estimate D2E/DX2                !
 ! R97   R(53,55)                1.4224         estimate D2E/DX2                !
 ! R98   R(54,56)                1.4182         estimate D2E/DX2                !
 ! R99   R(55,83)                1.4067         estimate D2E/DX2                !
 ! R100  R(56,84)                1.4143         estimate D2E/DX2                !
 ! R101  R(57,59)                1.4299         estimate D2E/DX2                !
 ! R102  R(57,83)                1.4213         estimate D2E/DX2                !
 ! R103  R(58,60)                1.4287         estimate D2E/DX2                !
 ! R104  R(58,84)                1.413          estimate D2E/DX2                !
 ! R105  R(59,60)                1.3507         estimate D2E/DX2                !
 ! R106  R(59,61)                1.4995         estimate D2E/DX2                !
 ! R107  R(60,62)                1.5021         estimate D2E/DX2                !
 ! R108  R(61,63)                1.5226         estimate D2E/DX2                !
 ! R109  R(61,89)                1.7985         estimate D2E/DX2                !
 ! R110  R(62,64)                1.5279         estimate D2E/DX2                !
 ! R111  R(62,90)                1.7978         estimate D2E/DX2                !
 ! R112  R(63,64)                1.4012         estimate D2E/DX2                !
 ! R113  R(63,65)                1.3994         estimate D2E/DX2                !
 ! R114  R(64,66)                1.4005         estimate D2E/DX2                !
 ! R115  R(65,67)                1.4044         estimate D2E/DX2                !
 ! R116  R(66,68)                1.4044         estimate D2E/DX2                !
 ! R117  R(67,68)                1.4018         estimate D2E/DX2                !
 ! R118  R(67,69)                1.5275         estimate D2E/DX2                !
 ! R119  R(68,70)                1.5306         estimate D2E/DX2                !
 ! R120  R(69,71)                1.502          estimate D2E/DX2                !
 ! R121  R(69,86)                1.798          estimate D2E/DX2                !
 ! R122  R(70,72)                1.502          estimate D2E/DX2                !
 ! R123  R(70,87)                1.7973         estimate D2E/DX2                !
 ! R124  R(71,72)                1.3588         estimate D2E/DX2                !
 ! R125  R(71,73)                1.4277         estimate D2E/DX2                !
 ! R126  R(72,74)                1.4278         estimate D2E/DX2                !
 ! R127  R(73,75)                1.3784         estimate D2E/DX2                !
 ! R128  R(74,76)                1.3896         estimate D2E/DX2                !
 ! R129  R(75,76)                1.4293         estimate D2E/DX2                !
 ! R130  R(75,77)                1.4339         estimate D2E/DX2                !
 ! R131  R(76,78)                1.4222         estimate D2E/DX2                !
 ! R132  R(77,81)                1.4247         estimate D2E/DX2                !
 ! R133  R(78,81)                1.4504         estimate D2E/DX2                !
 ! R134  R(79,82)                1.3968         estimate D2E/DX2                !
 ! R135  R(80,82)                1.5008         estimate D2E/DX2                !
 ! R136  R(80,96)                1.8089         estimate D2E/DX2                !
 ! R137  R(81,82)                1.3749         estimate D2E/DX2                !
 ! R138  R(83,84)                1.4297         estimate D2E/DX2                !
 ! A1    A(5,1,17)             112.9025         estimate D2E/DX2                !
 ! A2    A(5,1,25)             101.0188         estimate D2E/DX2                !
 ! A3    A(5,1,95)             109.9743         estimate D2E/DX2                !
 ! A4    A(17,1,25)            113.0162         estimate D2E/DX2                !
 ! A5    A(17,1,95)            108.8699         estimate D2E/DX2                !
 ! A6    A(25,1,95)            110.8896         estimate D2E/DX2                !
 ! A7    A(6,2,43)             101.3735         estimate D2E/DX2                !
 ! A8    A(6,2,44)             109.8635         estimate D2E/DX2                !
 ! A9    A(6,2,93)             113.1993         estimate D2E/DX2                !
 ! A10   A(43,2,44)            111.1798         estimate D2E/DX2                !
 ! A11   A(43,2,93)            111.5808         estimate D2E/DX2                !
 ! A12   A(44,2,93)            109.4539         estimate D2E/DX2                !
 ! A13   A(7,3,18)             121.856          estimate D2E/DX2                !
 ! A14   A(7,3,26)             108.2711         estimate D2E/DX2                !
 ! A15   A(18,3,26)            121.6359         estimate D2E/DX2                !
 ! A16   A(8,4,45)             110.0314         estimate D2E/DX2                !
 ! A17   A(8,4,46)             101.4392         estimate D2E/DX2                !
 ! A18   A(8,4,94)             113.1591         estimate D2E/DX2                !
 ! A19   A(45,4,46)            109.8379         estimate D2E/DX2                !
 ! A20   A(45,4,94)            110.2889         estimate D2E/DX2                !
 ! A21   A(46,4,94)            111.7683         estimate D2E/DX2                !
 ! A22   A(1,5,9)              124.9198         estimate D2E/DX2                !
 ! A23   A(1,5,29)             109.6506         estimate D2E/DX2                !
 ! A24   A(9,5,29)             120.8844         estimate D2E/DX2                !
 ! A25   A(2,6,10)             122.0331         estimate D2E/DX2                !
 ! A26   A(2,6,15)             110.5972         estimate D2E/DX2                !
 ! A27   A(10,6,15)            120.1231         estimate D2E/DX2                !
 ! A28   A(3,7,12)             121.6678         estimate D2E/DX2                !
 ! A29   A(3,7,30)             108.3602         estimate D2E/DX2                !
 ! A30   A(12,7,30)            121.2272         estimate D2E/DX2                !
 ! A31   A(4,8,11)             122.3965         estimate D2E/DX2                !
 ! A32   A(4,8,16)             110.4046         estimate D2E/DX2                !
 ! A33   A(11,8,16)            119.9469         estimate D2E/DX2                !
 ! A34   A(5,9,13)             116.2783         estimate D2E/DX2                !
 ! A35   A(5,9,35)             120.1473         estimate D2E/DX2                !
 ! A36   A(13,9,35)            118.4433         estimate D2E/DX2                !
 ! A37   A(6,10,49)            123.3426         estimate D2E/DX2                !
 ! A38   A(6,10,53)            118.6942         estimate D2E/DX2                !
 ! A39   A(49,10,53)           110.999          estimate D2E/DX2                !
 ! A40   A(8,11,50)            122.9713         estimate D2E/DX2                !
 ! A41   A(8,11,54)            119.5481         estimate D2E/DX2                !
 ! A42   A(50,11,54)           110.6864         estimate D2E/DX2                !
 ! A43   A(7,12,14)            115.7916         estimate D2E/DX2                !
 ! A44   A(7,12,36)            119.8685         estimate D2E/DX2                !
 ! A45   A(14,12,36)           119.0253         estimate D2E/DX2                !
 ! A46   A(9,13,15)            120.816          estimate D2E/DX2                !
 ! A47   A(9,13,43)            121.7995         estimate D2E/DX2                !
 ! A48   A(15,13,43)           109.3285         estimate D2E/DX2                !
 ! A49   A(12,14,16)           122.3768         estimate D2E/DX2                !
 ! A50   A(12,14,46)           121.0342         estimate D2E/DX2                !
 ! A51   A(16,14,46)           109.2405         estimate D2E/DX2                !
 ! A52   A(6,15,13)            107.3082         estimate D2E/DX2                !
 ! A53   A(6,15,17)            122.451          estimate D2E/DX2                !
 ! A54   A(13,15,17)           122.6602         estimate D2E/DX2                !
 ! A55   A(8,16,14)            108.5083         estimate D2E/DX2                !
 ! A56   A(8,16,18)            121.8634         estimate D2E/DX2                !
 ! A57   A(14,16,18)           121.3278         estimate D2E/DX2                !
 ! A58   A(1,17,15)            117.7355         estimate D2E/DX2                !
 ! A59   A(1,17,19)            120.9443         estimate D2E/DX2                !
 ! A60   A(15,17,19)           118.1149         estimate D2E/DX2                !
 ! A61   A(3,18,16)            116.1244         estimate D2E/DX2                !
 ! A62   A(3,18,20)            118.7339         estimate D2E/DX2                !
 ! A63   A(16,18,20)           118.2189         estimate D2E/DX2                !
 ! A64   A(17,19,21)           119.0761         estimate D2E/DX2                !
 ! A65   A(17,19,53)           118.6899         estimate D2E/DX2                !
 ! A66   A(21,19,53)           115.9245         estimate D2E/DX2                !
 ! A67   A(18,20,22)           118.1597         estimate D2E/DX2                !
 ! A68   A(18,20,54)           118.4569         estimate D2E/DX2                !
 ! A69   A(22,20,54)           116.439          estimate D2E/DX2                !
 ! A70   A(19,21,23)           120.0851         estimate D2E/DX2                !
 ! A71   A(19,21,57)           121.7394         estimate D2E/DX2                !
 ! A72   A(23,21,57)           108.2932         estimate D2E/DX2                !
 ! A73   A(20,22,24)           121.5624         estimate D2E/DX2                !
 ! A74   A(20,22,58)           121.639          estimate D2E/DX2                !
 ! A75   A(24,22,58)           108.5186         estimate D2E/DX2                !
 ! A76   A(21,23,25)           121.8724         estimate D2E/DX2                !
 ! A77   A(21,23,61)           110.6449         estimate D2E/DX2                !
 ! A78   A(25,23,61)           122.0091         estimate D2E/DX2                !
 ! A79   A(22,24,26)           120.1323         estimate D2E/DX2                !
 ! A80   A(22,24,62)           111.1155         estimate D2E/DX2                !
 ! A81   A(26,24,62)           121.368          estimate D2E/DX2                !
 ! A82   A(1,25,23)            121.8889         estimate D2E/DX2                !
 ! A83   A(1,25,27)            112.7989         estimate D2E/DX2                !
 ! A84   A(23,25,27)           120.8352         estimate D2E/DX2                !
 ! A85   A(3,26,24)            119.75           estimate D2E/DX2                !
 ! A86   A(3,26,28)            111.0903         estimate D2E/DX2                !
 ! A87   A(24,26,28)           121.6054         estimate D2E/DX2                !
 ! A88   A(25,27,29)           100.3431         estimate D2E/DX2                !
 ! A89   A(25,27,65)           111.2541         estimate D2E/DX2                !
 ! A90   A(25,27,85)           113.4576         estimate D2E/DX2                !
 ! A91   A(29,27,65)           108.4356         estimate D2E/DX2                !
 ! A92   A(29,27,85)           114.1623         estimate D2E/DX2                !
 ! A93   A(65,27,85)           108.9187         estimate D2E/DX2                !
 ! A94   A(26,28,30)           100.8202         estimate D2E/DX2                !
 ! A95   A(26,28,66)           109.8114         estimate D2E/DX2                !
 ! A96   A(26,28,88)           113.7173         estimate D2E/DX2                !
 ! A97   A(30,28,66)           108.6743         estimate D2E/DX2                !
 ! A98   A(30,28,88)           114.3426         estimate D2E/DX2                !
 ! A99   A(66,28,88)           109.1449         estimate D2E/DX2                !
 ! A100  A(5,29,27)            113.0757         estimate D2E/DX2                !
 ! A101  A(5,29,31)            120.0434         estimate D2E/DX2                !
 ! A102  A(27,29,31)           121.3095         estimate D2E/DX2                !
 ! A103  A(7,30,28)            111.403          estimate D2E/DX2                !
 ! A104  A(7,30,32)            119.377          estimate D2E/DX2                !
 ! A105  A(28,30,32)           121.9306         estimate D2E/DX2                !
 ! A106  A(29,31,33)           119.879          estimate D2E/DX2                !
 ! A107  A(29,31,69)           121.3385         estimate D2E/DX2                !
 ! A108  A(33,31,69)           112.1079         estimate D2E/DX2                !
 ! A109  A(30,32,34)           120.2257         estimate D2E/DX2                !
 ! A110  A(30,32,70)           121.1681         estimate D2E/DX2                !
 ! A111  A(34,32,70)           111.4376         estimate D2E/DX2                !
 ! A112  A(31,33,35)           121.967          estimate D2E/DX2                !
 ! A113  A(31,33,73)           107.4677         estimate D2E/DX2                !
 ! A114  A(35,33,73)           122.3285         estimate D2E/DX2                !
 ! A115  A(32,34,36)           122.2769         estimate D2E/DX2                !
 ! A116  A(32,34,74)           107.529          estimate D2E/DX2                !
 ! A117  A(36,34,74)           121.7343         estimate D2E/DX2                !
 ! A118  A(9,35,33)            116.3626         estimate D2E/DX2                !
 ! A119  A(9,35,37)            120.0043         estimate D2E/DX2                !
 ! A120  A(33,35,37)           118.4727         estimate D2E/DX2                !
 ! A121  A(12,36,34)           116.4142         estimate D2E/DX2                !
 ! A122  A(12,36,38)           119.5475         estimate D2E/DX2                !
 ! A123  A(34,36,38)           119.0446         estimate D2E/DX2                !
 ! A124  A(35,37,39)           119.1059         estimate D2E/DX2                !
 ! A125  A(35,37,77)           118.3017         estimate D2E/DX2                !
 ! A126  A(39,37,77)           117.0017         estimate D2E/DX2                !
 ! A127  A(36,38,42)           118.9874         estimate D2E/DX2                !
 ! A128  A(36,38,78)           118.1682         estimate D2E/DX2                !
 ! A129  A(42,38,78)           118.6369         estimate D2E/DX2                !
 ! A130  A(37,39,43)           119.3311         estimate D2E/DX2                !
 ! A131  A(37,39,79)           119.0249         estimate D2E/DX2                !
 ! A132  A(43,39,79)           115.815          estimate D2E/DX2                !
 ! A133  A(41,40,44)           121.2048         estimate D2E/DX2                !
 ! A134  A(41,40,79)           109.0223         estimate D2E/DX2                !
 ! A135  A(44,40,79)           124.0759         estimate D2E/DX2                !
 ! A136  A(40,41,45)           120.5048         estimate D2E/DX2                !
 ! A137  A(40,41,80)           110.1768         estimate D2E/DX2                !
 ! A138  A(45,41,80)           125.6533         estimate D2E/DX2                !
 ! A139  A(38,42,46)           120.2656         estimate D2E/DX2                !
 ! A140  A(38,42,80)           121.5572         estimate D2E/DX2                !
 ! A141  A(46,42,80)           116.1397         estimate D2E/DX2                !
 ! A142  A(2,43,13)            110.489          estimate D2E/DX2                !
 ! A143  A(2,43,39)            123.8876         estimate D2E/DX2                !
 ! A144  A(13,43,39)           121.032          estimate D2E/DX2                !
 ! A145  A(2,44,40)            115.4949         estimate D2E/DX2                !
 ! A146  A(2,44,47)            124.3168         estimate D2E/DX2                !
 ! A147  A(40,44,47)           118.8505         estimate D2E/DX2                !
 ! A148  A(4,45,41)            115.6188         estimate D2E/DX2                !
 ! A149  A(4,45,48)            123.7346         estimate D2E/DX2                !
 ! A150  A(41,45,48)           119.1145         estimate D2E/DX2                !
 ! A151  A(4,46,14)            109.2848         estimate D2E/DX2                !
 ! A152  A(4,46,42)            125.5363         estimate D2E/DX2                !
 ! A153  A(14,46,42)           120.9462         estimate D2E/DX2                !
 ! A154  A(44,47,48)           119.9996         estimate D2E/DX2                !
 ! A155  A(44,47,49)           118.4203         estimate D2E/DX2                !
 ! A156  A(48,47,49)           120.8603         estimate D2E/DX2                !
 ! A157  A(45,48,47)           120.2081         estimate D2E/DX2                !
 ! A158  A(45,48,50)           118.6151         estimate D2E/DX2                !
 ! A159  A(47,48,50)           120.5201         estimate D2E/DX2                !
 ! A160  A(10,49,47)           109.8258         estimate D2E/DX2                !
 ! A161  A(10,49,51)           100.9458         estimate D2E/DX2                !
 ! A162  A(10,49,91)           113.4072         estimate D2E/DX2                !
 ! A163  A(47,49,51)           109.9638         estimate D2E/DX2                !
 ! A164  A(47,49,91)           108.9528         estimate D2E/DX2                !
 ! A165  A(51,49,91)           113.5175         estimate D2E/DX2                !
 ! A166  A(11,50,48)           109.9751         estimate D2E/DX2                !
 ! A167  A(11,50,52)           101.0805         estimate D2E/DX2                !
 ! A168  A(11,50,92)           113.1205         estimate D2E/DX2                !
 ! A169  A(48,50,52)           110.1511         estimate D2E/DX2                !
 ! A170  A(48,50,92)           108.9689         estimate D2E/DX2                !
 ! A171  A(52,50,92)           113.3401         estimate D2E/DX2                !
 ! A172  A(49,51,52)           122.1192         estimate D2E/DX2                !
 ! A173  A(49,51,55)           110.919          estimate D2E/DX2                !
 ! A174  A(52,51,55)           119.7566         estimate D2E/DX2                !
 ! A175  A(50,52,51)           122.2631         estimate D2E/DX2                !
 ! A176  A(50,52,56)           110.9406         estimate D2E/DX2                !
 ! A177  A(51,52,56)           119.7441         estimate D2E/DX2                !
 ! A178  A(10,53,19)           121.8039         estimate D2E/DX2                !
 ! A179  A(10,53,55)           108.4802         estimate D2E/DX2                !
 ! A180  A(19,53,55)           121.9766         estimate D2E/DX2                !
 ! A181  A(11,54,20)           121.9071         estimate D2E/DX2                !
 ! A182  A(11,54,56)           108.499          estimate D2E/DX2                !
 ! A183  A(20,54,56)           121.5949         estimate D2E/DX2                !
 ! A184  A(51,55,53)           108.3876         estimate D2E/DX2                !
 ! A185  A(51,55,83)           121.9942         estimate D2E/DX2                !
 ! A186  A(53,55,83)           121.4266         estimate D2E/DX2                !
 ! A187  A(52,56,54)           108.5158         estimate D2E/DX2                !
 ! A188  A(52,56,84)           121.7546         estimate D2E/DX2                !
 ! A189  A(54,56,84)           121.6187         estimate D2E/DX2                !
 ! A190  A(21,57,59)           108.912          estimate D2E/DX2                !
 ! A191  A(21,57,83)           122.1732         estimate D2E/DX2                !
 ! A192  A(59,57,83)           121.1355         estimate D2E/DX2                !
 ! A193  A(22,58,60)           108.3484         estimate D2E/DX2                !
 ! A194  A(22,58,84)           121.7399         estimate D2E/DX2                !
 ! A195  A(60,58,84)           121.5433         estimate D2E/DX2                !
 ! A196  A(57,59,60)           120.1563         estimate D2E/DX2                !
 ! A197  A(57,59,61)           110.9425         estimate D2E/DX2                !
 ! A198  A(60,59,61)           121.6494         estimate D2E/DX2                !
 ! A199  A(58,60,59)           120.0544         estimate D2E/DX2                !
 ! A200  A(58,60,62)           111.0609         estimate D2E/DX2                !
 ! A201  A(59,60,62)           121.705          estimate D2E/DX2                !
 ! A202  A(23,61,59)           101.095          estimate D2E/DX2                !
 ! A203  A(23,61,63)           109.9951         estimate D2E/DX2                !
 ! A204  A(23,61,89)           113.0786         estimate D2E/DX2                !
 ! A205  A(59,61,63)           110.1645         estimate D2E/DX2                !
 ! A206  A(59,61,89)           113.6456         estimate D2E/DX2                !
 ! A207  A(63,61,89)           108.6825         estimate D2E/DX2                !
 ! A208  A(24,62,60)           100.8961         estimate D2E/DX2                !
 ! A209  A(24,62,64)           109.6928         estimate D2E/DX2                !
 ! A210  A(24,62,90)           113.9149         estimate D2E/DX2                !
 ! A211  A(60,62,64)           109.8914         estimate D2E/DX2                !
 ! A212  A(60,62,90)           113.6908         estimate D2E/DX2                !
 ! A213  A(64,62,90)           108.545          estimate D2E/DX2                !
 ! A214  A(61,63,64)           120.1797         estimate D2E/DX2                !
 ! A215  A(61,63,65)           119.3519         estimate D2E/DX2                !
 ! A216  A(64,63,65)           120.2028         estimate D2E/DX2                !
 ! A217  A(62,64,63)           119.843          estimate D2E/DX2                !
 ! A218  A(62,64,66)           120.1073         estimate D2E/DX2                !
 ! A219  A(63,64,66)           119.8089         estimate D2E/DX2                !
 ! A220  A(27,65,63)           119.5732         estimate D2E/DX2                !
 ! A221  A(27,65,67)           120.102          estimate D2E/DX2                !
 ! A222  A(63,65,67)           120.0087         estimate D2E/DX2                !
 ! A223  A(28,66,64)           119.6209         estimate D2E/DX2                !
 ! A224  A(28,66,68)           119.8949         estimate D2E/DX2                !
 ! A225  A(64,66,68)           120.1993         estimate D2E/DX2                !
 ! A226  A(65,67,68)           119.9183         estimate D2E/DX2                !
 ! A227  A(65,67,69)           119.5526         estimate D2E/DX2                !
 ! A228  A(68,67,69)           120.2881         estimate D2E/DX2                !
 ! A229  A(66,68,67)           119.8537         estimate D2E/DX2                !
 ! A230  A(66,68,70)           119.6371         estimate D2E/DX2                !
 ! A231  A(67,68,70)           120.2923         estimate D2E/DX2                !
 ! A232  A(31,69,67)           108.2797         estimate D2E/DX2                !
 ! A233  A(31,69,71)           101.043          estimate D2E/DX2                !
 ! A234  A(31,69,86)           114.2079         estimate D2E/DX2                !
 ! A235  A(67,69,71)           110.7642         estimate D2E/DX2                !
 ! A236  A(67,69,86)           108.7406         estimate D2E/DX2                !
 ! A237  A(71,69,86)           113.5544         estimate D2E/DX2                !
 ! A238  A(32,70,68)           108.4881         estimate D2E/DX2                !
 ! A239  A(32,70,72)           101.1245         estimate D2E/DX2                !
 ! A240  A(32,70,87)           114.2803         estimate D2E/DX2                !
 ! A241  A(68,70,72)           110.5803         estimate D2E/DX2                !
 ! A242  A(68,70,87)           108.5315         estimate D2E/DX2                !
 ! A243  A(72,70,87)           113.6082         estimate D2E/DX2                !
 ! A244  A(69,71,72)           121.912          estimate D2E/DX2                !
 ! A245  A(69,71,73)           110.0944         estimate D2E/DX2                !
 ! A246  A(72,71,73)           119.374          estimate D2E/DX2                !
 ! A247  A(70,72,71)           121.7971         estimate D2E/DX2                !
 ! A248  A(70,72,74)           110.2779         estimate D2E/DX2                !
 ! A249  A(71,72,74)           119.5703         estimate D2E/DX2                !
 ! A250  A(33,73,71)           108.9329         estimate D2E/DX2                !
 ! A251  A(33,73,75)           118.9861         estimate D2E/DX2                !
 ! A252  A(71,73,75)           121.7621         estimate D2E/DX2                !
 ! A253  A(34,74,72)           109.1808         estimate D2E/DX2                !
 ! A254  A(34,74,76)           118.8657         estimate D2E/DX2                !
 ! A255  A(72,74,76)           121.5822         estimate D2E/DX2                !
 ! A256  A(73,75,76)           119.1392         estimate D2E/DX2                !
 ! A257  A(73,75,77)           119.9686         estimate D2E/DX2                !
 ! A258  A(76,75,77)           108.5858         estimate D2E/DX2                !
 ! A259  A(74,76,75)           118.5047         estimate D2E/DX2                !
 ! A260  A(74,76,78)           120.5043         estimate D2E/DX2                !
 ! A261  A(75,76,78)           108.7215         estimate D2E/DX2                !
 ! A262  A(37,77,75)           121.8671         estimate D2E/DX2                !
 ! A263  A(37,77,81)           121.7792         estimate D2E/DX2                !
 ! A264  A(75,77,81)           106.4982         estimate D2E/DX2                !
 ! A265  A(38,78,76)           121.3986         estimate D2E/DX2                !
 ! A266  A(38,78,81)           120.392          estimate D2E/DX2                !
 ! A267  A(76,78,81)           106.2552         estimate D2E/DX2                !
 ! A268  A(39,79,40)           119.6589         estimate D2E/DX2                !
 ! A269  A(39,79,82)           122.4709         estimate D2E/DX2                !
 ! A270  A(40,79,82)           107.0746         estimate D2E/DX2                !
 ! A271  A(41,80,42)           110.0124         estimate D2E/DX2                !
 ! A272  A(41,80,82)           100.6155         estimate D2E/DX2                !
 ! A273  A(41,80,96)           111.5064         estimate D2E/DX2                !
 ! A274  A(42,80,82)           112.3416         estimate D2E/DX2                !
 ! A275  A(42,80,96)           109.9766         estimate D2E/DX2                !
 ! A276  A(82,80,96)           112.0964         estimate D2E/DX2                !
 ! A277  A(77,81,78)           109.1553         estimate D2E/DX2                !
 ! A278  A(77,81,82)           119.8355         estimate D2E/DX2                !
 ! A279  A(78,81,82)           120.6845         estimate D2E/DX2                !
 ! A280  A(79,82,80)           111.8885         estimate D2E/DX2                !
 ! A281  A(79,82,81)           119.2402         estimate D2E/DX2                !
 ! A282  A(80,82,81)           121.5793         estimate D2E/DX2                !
 ! A283  A(55,83,57)           116.0931         estimate D2E/DX2                !
 ! A284  A(55,83,84)           118.3784         estimate D2E/DX2                !
 ! A285  A(57,83,84)           118.5656         estimate D2E/DX2                !
 ! A286  A(56,84,58)           116.371          estimate D2E/DX2                !
 ! A287  A(56,84,83)           118.3621         estimate D2E/DX2                !
 ! A288  A(58,84,83)           118.5425         estimate D2E/DX2                !
 ! D1    D(17,1,5,9)            18.831          estimate D2E/DX2                !
 ! D2    D(17,1,5,29)         -137.2357         estimate D2E/DX2                !
 ! D3    D(25,1,5,9)           139.8075         estimate D2E/DX2                !
 ! D4    D(25,1,5,29)          -16.2592         estimate D2E/DX2                !
 ! D5    D(95,1,5,9)          -102.9802         estimate D2E/DX2                !
 ! D6    D(95,1,5,29)          100.9532         estimate D2E/DX2                !
 ! D7    D(5,1,17,15)          -25.2768         estimate D2E/DX2                !
 ! D8    D(5,1,17,19)          134.1143         estimate D2E/DX2                !
 ! D9    D(25,1,17,15)        -139.1617         estimate D2E/DX2                !
 ! D10   D(25,1,17,19)          20.2294         estimate D2E/DX2                !
 ! D11   D(95,1,17,15)          97.1546         estimate D2E/DX2                !
 ! D12   D(95,1,17,19)        -103.4543         estimate D2E/DX2                !
 ! D13   D(5,1,25,23)         -138.721          estimate D2E/DX2                !
 ! D14   D(5,1,25,27)           17.6799         estimate D2E/DX2                !
 ! D15   D(17,1,25,23)         -17.8248         estimate D2E/DX2                !
 ! D16   D(17,1,25,27)         138.576          estimate D2E/DX2                !
 ! D17   D(95,1,25,23)         104.7395         estimate D2E/DX2                !
 ! D18   D(95,1,25,27)         -98.8596         estimate D2E/DX2                !
 ! D19   D(43,2,6,10)         -142.4085         estimate D2E/DX2                !
 ! D20   D(43,2,6,15)            7.7682         estimate D2E/DX2                !
 ! D21   D(44,2,6,10)          -24.7295         estimate D2E/DX2                !
 ! D22   D(44,2,6,15)          125.4471         estimate D2E/DX2                !
 ! D23   D(93,2,6,10)           97.9614         estimate D2E/DX2                !
 ! D24   D(93,2,6,15)         -111.862          estimate D2E/DX2                !
 ! D25   D(6,2,43,13)           -9.6443         estimate D2E/DX2                !
 ! D26   D(6,2,43,39)          146.4084         estimate D2E/DX2                !
 ! D27   D(44,2,43,13)        -126.3646         estimate D2E/DX2                !
 ! D28   D(44,2,43,39)          29.6882         estimate D2E/DX2                !
 ! D29   D(93,2,43,13)         111.1313         estimate D2E/DX2                !
 ! D30   D(93,2,43,39)         -92.816          estimate D2E/DX2                !
 ! D31   D(6,2,44,40)         -144.7223         estimate D2E/DX2                !
 ! D32   D(6,2,44,47)           21.8707         estimate D2E/DX2                !
 ! D33   D(43,2,44,40)         -33.3238         estimate D2E/DX2                !
 ! D34   D(43,2,44,47)         133.2692         estimate D2E/DX2                !
 ! D35   D(93,2,44,40)          90.4007         estimate D2E/DX2                !
 ! D36   D(93,2,44,47)        -103.0063         estimate D2E/DX2                !
 ! D37   D(18,3,7,12)            3.2894         estimate D2E/DX2                !
 ! D38   D(18,3,7,30)          151.1242         estimate D2E/DX2                !
 ! D39   D(26,3,7,12)         -145.5229         estimate D2E/DX2                !
 ! D40   D(26,3,7,30)            2.3119         estimate D2E/DX2                !
 ! D41   D(7,3,18,16)            5.3002         estimate D2E/DX2                !
 ! D42   D(7,3,18,20)         -145.0977         estimate D2E/DX2                !
 ! D43   D(26,3,18,16)         150.021          estimate D2E/DX2                !
 ! D44   D(26,3,18,20)          -0.3769         estimate D2E/DX2                !
 ! D45   D(7,3,26,24)          147.777          estimate D2E/DX2                !
 ! D46   D(7,3,26,28)           -2.3801         estimate D2E/DX2                !
 ! D47   D(18,3,26,24)          -1.1175         estimate D2E/DX2                !
 ! D48   D(18,3,26,28)        -151.2747         estimate D2E/DX2                !
 ! D49   D(45,4,8,11)           24.631          estimate D2E/DX2                !
 ! D50   D(45,4,8,16)         -125.4616         estimate D2E/DX2                !
 ! D51   D(46,4,8,11)          140.8821         estimate D2E/DX2                !
 ! D52   D(46,4,8,16)           -9.2105         estimate D2E/DX2                !
 ! D53   D(94,4,8,11)          -99.2442         estimate D2E/DX2                !
 ! D54   D(94,4,8,16)          110.6632         estimate D2E/DX2                !
 ! D55   D(8,4,45,41)          144.7908         estimate D2E/DX2                !
 ! D56   D(8,4,45,48)          -20.9243         estimate D2E/DX2                !
 ! D57   D(46,4,45,41)          33.9392         estimate D2E/DX2                !
 ! D58   D(46,4,45,48)        -131.7759         estimate D2E/DX2                !
 ! D59   D(94,4,45,41)         -89.6822         estimate D2E/DX2                !
 ! D60   D(94,4,45,48)         104.6027         estimate D2E/DX2                !
 ! D61   D(8,4,46,14)           10.5614         estimate D2E/DX2                !
 ! D62   D(8,4,46,42)         -146.2788         estimate D2E/DX2                !
 ! D63   D(45,4,46,14)         126.9543         estimate D2E/DX2                !
 ! D64   D(45,4,46,42)         -29.8858         estimate D2E/DX2                !
 ! D65   D(94,4,46,14)        -110.2939         estimate D2E/DX2                !
 ! D66   D(94,4,46,42)          92.8659         estimate D2E/DX2                !
 ! D67   D(1,5,9,13)            -3.6069         estimate D2E/DX2                !
 ! D68   D(1,5,9,35)          -157.9022         estimate D2E/DX2                !
 ! D69   D(29,5,9,13)          149.9589         estimate D2E/DX2                !
 ! D70   D(29,5,9,35)           -4.3364         estimate D2E/DX2                !
 ! D71   D(1,5,29,27)           10.0469         estimate D2E/DX2                !
 ! D72   D(1,5,29,31)          164.0644         estimate D2E/DX2                !
 ! D73   D(9,5,29,27)         -147.1483         estimate D2E/DX2                !
 ! D74   D(9,5,29,31)            6.8691         estimate D2E/DX2                !
 ! D75   D(2,6,10,49)           -0.7694         estimate D2E/DX2                !
 ! D76   D(2,6,10,53)          147.3486         estimate D2E/DX2                !
 ! D77   D(15,6,10,49)        -148.2066         estimate D2E/DX2                !
 ! D78   D(15,6,10,53)          -0.0886         estimate D2E/DX2                !
 ! D79   D(2,6,15,13)           -3.4989         estimate D2E/DX2                !
 ! D80   D(2,6,15,17)         -153.7258         estimate D2E/DX2                !
 ! D81   D(10,6,15,13)         147.3291         estimate D2E/DX2                !
 ! D82   D(10,6,15,17)          -2.8978         estimate D2E/DX2                !
 ! D83   D(3,7,12,14)           -8.2396         estimate D2E/DX2                !
 ! D84   D(3,7,12,36)          145.7797         estimate D2E/DX2                !
 ! D85   D(30,7,12,14)        -152.0209         estimate D2E/DX2                !
 ! D86   D(30,7,12,36)           1.9984         estimate D2E/DX2                !
 ! D87   D(3,7,30,28)           -1.4317         estimate D2E/DX2                !
 ! D88   D(3,7,30,32)         -152.1873         estimate D2E/DX2                !
 ! D89   D(12,7,30,28)         146.572          estimate D2E/DX2                !
 ! D90   D(12,7,30,32)          -4.1836         estimate D2E/DX2                !
 ! D91   D(4,8,11,50)            0.6066         estimate D2E/DX2                !
 ! D92   D(4,8,11,54)         -147.7961         estimate D2E/DX2                !
 ! D93   D(16,8,11,50)         147.9692         estimate D2E/DX2                !
 ! D94   D(16,8,11,54)          -0.4335         estimate D2E/DX2                !
 ! D95   D(4,8,16,14)            4.749          estimate D2E/DX2                !
 ! D96   D(4,8,16,18)          153.3596         estimate D2E/DX2                !
 ! D97   D(11,8,16,14)        -146.1817         estimate D2E/DX2                !
 ! D98   D(11,8,16,18)           2.4288         estimate D2E/DX2                !
 ! D99   D(5,9,13,15)           -5.7617         estimate D2E/DX2                !
 ! D100  D(5,9,13,43)         -151.1781         estimate D2E/DX2                !
 ! D101  D(35,9,13,15)         148.9891         estimate D2E/DX2                !
 ! D102  D(35,9,13,43)           3.5728         estimate D2E/DX2                !
 ! D103  D(5,9,35,33)           -3.2029         estimate D2E/DX2                !
 ! D104  D(5,9,35,37)          151.0331         estimate D2E/DX2                !
 ! D105  D(13,9,35,33)        -156.9522         estimate D2E/DX2                !
 ! D106  D(13,9,35,37)          -2.7162         estimate D2E/DX2                !
 ! D107  D(6,10,49,47)          29.1502         estimate D2E/DX2                !
 ! D108  D(6,10,49,51)         145.2151         estimate D2E/DX2                !
 ! D109  D(6,10,49,91)         -93.0096         estimate D2E/DX2                !
 ! D110  D(53,10,49,47)       -121.0964         estimate D2E/DX2                !
 ! D111  D(53,10,49,51)         -5.0315         estimate D2E/DX2                !
 ! D112  D(53,10,49,91)        116.7438         estimate D2E/DX2                !
 ! D113  D(6,10,53,19)           1.519          estimate D2E/DX2                !
 ! D114  D(6,10,53,55)        -148.2797         estimate D2E/DX2                !
 ! D115  D(49,10,53,19)        153.3143         estimate D2E/DX2                !
 ! D116  D(49,10,53,55)          3.5156         estimate D2E/DX2                !
 ! D117  D(8,11,50,48)         -29.2506         estimate D2E/DX2                !
 ! D118  D(8,11,50,52)        -145.6543         estimate D2E/DX2                !
 ! D119  D(8,11,50,92)          92.8397         estimate D2E/DX2                !
 ! D120  D(54,11,50,48)        121.5918         estimate D2E/DX2                !
 ! D121  D(54,11,50,52)          5.188          estimate D2E/DX2                !
 ! D122  D(54,11,50,92)       -116.3179         estimate D2E/DX2                !
 ! D123  D(8,11,54,20)          -1.0717         estimate D2E/DX2                !
 ! D124  D(8,11,54,56)         148.1437         estimate D2E/DX2                !
 ! D125  D(50,11,54,20)       -153.0469         estimate D2E/DX2                !
 ! D126  D(50,11,54,56)         -3.8315         estimate D2E/DX2                !
 ! D127  D(7,12,14,16)           4.8143         estimate D2E/DX2                !
 ! D128  D(7,12,14,46)         151.6251         estimate D2E/DX2                !
 ! D129  D(36,12,14,16)       -149.4357         estimate D2E/DX2                !
 ! D130  D(36,12,14,46)         -2.625          estimate D2E/DX2                !
 ! D131  D(7,12,36,34)           4.4257         estimate D2E/DX2                !
 ! D132  D(7,12,36,38)        -150.3563         estimate D2E/DX2                !
 ! D133  D(14,12,36,34)        157.6125         estimate D2E/DX2                !
 ! D134  D(14,12,36,38)          2.8305         estimate D2E/DX2                !
 ! D135  D(9,13,15,6)         -152.1818         estimate D2E/DX2                !
 ! D136  D(9,13,15,17)          -2.0314         estimate D2E/DX2                !
 ! D137  D(43,13,15,6)          -2.9272         estimate D2E/DX2                !
 ! D138  D(43,13,15,17)        147.2232         estimate D2E/DX2                !
 ! D139  D(9,13,43,2)          157.05           estimate D2E/DX2                !
 ! D140  D(9,13,43,39)           0.2053         estimate D2E/DX2                !
 ! D141  D(15,13,43,2)           8.1537         estimate D2E/DX2                !
 ! D142  D(15,13,43,39)       -148.691          estimate D2E/DX2                !
 ! D143  D(12,14,16,8)         152.5774         estimate D2E/DX2                !
 ! D144  D(12,14,16,18)          3.7666         estimate D2E/DX2                !
 ! D145  D(46,14,16,8)           2.3659         estimate D2E/DX2                !
 ! D146  D(46,14,16,18)       -146.4449         estimate D2E/DX2                !
 ! D147  D(12,14,46,4)        -159.1328         estimate D2E/DX2                !
 ! D148  D(12,14,46,42)         -1.0437         estimate D2E/DX2                !
 ! D149  D(16,14,46,4)          -8.4511         estimate D2E/DX2                !
 ! D150  D(16,14,46,42)        149.638          estimate D2E/DX2                !
 ! D151  D(6,15,17,1)          164.2609         estimate D2E/DX2                !
 ! D152  D(6,15,17,19)           4.2764         estimate D2E/DX2                !
 ! D153  D(13,15,17,1)          18.5326         estimate D2E/DX2                !
 ! D154  D(13,15,17,19)       -141.4519         estimate D2E/DX2                !
 ! D155  D(8,16,18,3)         -153.3873         estimate D2E/DX2                !
 ! D156  D(8,16,18,20)          -2.8312         estimate D2E/DX2                !
 ! D157  D(14,16,18,3)          -8.7122         estimate D2E/DX2                !
 ! D158  D(14,16,18,20)        141.8439         estimate D2E/DX2                !
 ! D159  D(1,17,19,21)         -11.062          estimate D2E/DX2                !
 ! D160  D(1,17,19,53)        -162.0519         estimate D2E/DX2                !
 ! D161  D(15,17,19,21)        148.2534         estimate D2E/DX2                !
 ! D162  D(15,17,19,53)         -2.7366         estimate D2E/DX2                !
 ! D163  D(3,18,20,22)           1.2409         estimate D2E/DX2                !
 ! D164  D(3,18,20,54)         151.0715         estimate D2E/DX2                !
 ! D165  D(16,18,20,22)       -148.5384         estimate D2E/DX2                !
 ! D166  D(16,18,20,54)          1.2922         estimate D2E/DX2                !
 ! D167  D(17,19,21,23)         -2.2376         estimate D2E/DX2                !
 ! D168  D(17,19,21,57)       -143.948          estimate D2E/DX2                !
 ! D169  D(53,19,21,23)        149.5316         estimate D2E/DX2                !
 ! D170  D(53,19,21,57)          7.8212         estimate D2E/DX2                !
 ! D171  D(17,19,53,10)         -0.0895         estimate D2E/DX2                !
 ! D172  D(17,19,53,55)        145.6857         estimate D2E/DX2                !
 ! D173  D(21,19,53,10)       -151.9728         estimate D2E/DX2                !
 ! D174  D(21,19,53,55)         -6.1976         estimate D2E/DX2                !
 ! D175  D(18,20,22,24)         -0.7066         estimate D2E/DX2                !
 ! D176  D(18,20,22,58)        144.012          estimate D2E/DX2                !
 ! D177  D(54,20,22,24)       -151.1392         estimate D2E/DX2                !
 ! D178  D(54,20,22,58)         -6.4206         estimate D2E/DX2                !
 ! D179  D(18,20,54,11)          0.6171         estimate D2E/DX2                !
 ! D180  D(18,20,54,56)       -144.6445         estimate D2E/DX2                !
 ! D181  D(22,20,54,11)        150.9587         estimate D2E/DX2                !
 ! D182  D(22,20,54,56)          5.6971         estimate D2E/DX2                !
 ! D183  D(19,21,23,25)          4.9085         estimate D2E/DX2                !
 ! D184  D(19,21,23,61)       -149.4158         estimate D2E/DX2                !
 ! D185  D(57,21,23,25)        151.1965         estimate D2E/DX2                !
 ! D186  D(57,21,23,61)         -3.1277         estimate D2E/DX2                !
 ! D187  D(19,21,57,59)        147.045          estimate D2E/DX2                !
 ! D188  D(19,21,57,83)         -2.4127         estimate D2E/DX2                !
 ! D189  D(23,21,57,59)          1.4264         estimate D2E/DX2                !
 ! D190  D(23,21,57,83)       -148.0314         estimate D2E/DX2                !
 ! D191  D(20,22,24,26)         -0.7817         estimate D2E/DX2                !
 ! D192  D(20,22,24,62)        149.5997         estimate D2E/DX2                !
 ! D193  D(58,22,24,26)       -149.5435         estimate D2E/DX2                !
 ! D194  D(58,22,24,62)          0.8379         estimate D2E/DX2                !
 ! D195  D(20,22,58,60)       -147.9316         estimate D2E/DX2                !
 ! D196  D(20,22,58,84)          0.6346         estimate D2E/DX2                !
 ! D197  D(24,22,58,60)          0.8016         estimate D2E/DX2                !
 ! D198  D(24,22,58,84)        149.3677         estimate D2E/DX2                !
 ! D199  D(21,23,25,1)           6.0305         estimate D2E/DX2                !
 ! D200  D(21,23,25,27)       -148.5138         estimate D2E/DX2                !
 ! D201  D(61,23,25,1)         157.4658         estimate D2E/DX2                !
 ! D202  D(61,23,25,27)          2.9215         estimate D2E/DX2                !
 ! D203  D(21,23,61,59)          3.3593         estimate D2E/DX2                !
 ! D204  D(21,23,61,63)        119.7936         estimate D2E/DX2                !
 ! D205  D(21,23,61,89)       -118.4998         estimate D2E/DX2                !
 ! D206  D(25,23,61,59)       -150.9239         estimate D2E/DX2                !
 ! D207  D(25,23,61,63)        -34.4896         estimate D2E/DX2                !
 ! D208  D(25,23,61,89)         87.217          estimate D2E/DX2                !
 ! D209  D(22,24,26,3)           1.6726         estimate D2E/DX2                !
 ! D210  D(22,24,26,28)        148.638          estimate D2E/DX2                !
 ! D211  D(62,24,26,3)        -145.6464         estimate D2E/DX2                !
 ! D212  D(62,24,26,28)          1.3189         estimate D2E/DX2                !
 ! D213  D(22,24,62,60)         -1.9854         estimate D2E/DX2                !
 ! D214  D(22,24,62,64)       -117.8921         estimate D2E/DX2                !
 ! D215  D(22,24,62,90)        120.2208         estimate D2E/DX2                !
 ! D216  D(26,24,62,60)        147.9744         estimate D2E/DX2                !
 ! D217  D(26,24,62,64)         32.0677         estimate D2E/DX2                !
 ! D218  D(26,24,62,90)        -89.8194         estimate D2E/DX2                !
 ! D219  D(1,25,27,29)         -12.1947         estimate D2E/DX2                !
 ! D220  D(1,25,27,65)        -126.7714         estimate D2E/DX2                !
 ! D221  D(1,25,27,85)         109.9978         estimate D2E/DX2                !
 ! D222  D(23,25,27,29)        144.4849         estimate D2E/DX2                !
 ! D223  D(23,25,27,65)         29.9082         estimate D2E/DX2                !
 ! D224  D(23,25,27,85)        -93.3226         estimate D2E/DX2                !
 ! D225  D(3,26,28,30)           1.4307         estimate D2E/DX2                !
 ! D226  D(3,26,28,66)         115.9716         estimate D2E/DX2                !
 ! D227  D(3,26,28,88)        -121.4118         estimate D2E/DX2                !
 ! D228  D(24,26,28,30)       -148.0867         estimate D2E/DX2                !
 ! D229  D(24,26,28,66)        -33.5458         estimate D2E/DX2                !
 ! D230  D(24,26,28,88)         89.0707         estimate D2E/DX2                !
 ! D231  D(25,27,29,5)           1.1363         estimate D2E/DX2                !
 ! D232  D(25,27,29,31)       -152.5121         estimate D2E/DX2                !
 ! D233  D(65,27,29,5)         117.8329         estimate D2E/DX2                !
 ! D234  D(65,27,29,31)        -35.8155         estimate D2E/DX2                !
 ! D235  D(85,27,29,5)        -120.5574         estimate D2E/DX2                !
 ! D236  D(85,27,29,31)         85.7942         estimate D2E/DX2                !
 ! D237  D(25,27,65,63)        -30.2324         estimate D2E/DX2                !
 ! D238  D(25,27,65,67)        143.3118         estimate D2E/DX2                !
 ! D239  D(29,27,65,63)       -139.6667         estimate D2E/DX2                !
 ! D240  D(29,27,65,67)         33.8776         estimate D2E/DX2                !
 ! D241  D(85,27,65,63)         95.5583         estimate D2E/DX2                !
 ! D242  D(85,27,65,67)        -90.8975         estimate D2E/DX2                !
 ! D243  D(26,28,30,7)           0.0105         estimate D2E/DX2                !
 ! D244  D(26,28,30,32)        149.9036         estimate D2E/DX2                !
 ! D245  D(66,28,30,7)        -115.3829         estimate D2E/DX2                !
 ! D246  D(66,28,30,32)         34.5102         estimate D2E/DX2                !
 ! D247  D(88,28,30,7)         122.4175         estimate D2E/DX2                !
 ! D248  D(88,28,30,32)        -87.6894         estimate D2E/DX2                !
 ! D249  D(26,28,66,64)         31.5298         estimate D2E/DX2                !
 ! D250  D(26,28,66,68)       -142.3535         estimate D2E/DX2                !
 ! D251  D(30,28,66,64)        140.9433         estimate D2E/DX2                !
 ! D252  D(30,28,66,68)        -32.9401         estimate D2E/DX2                !
 ! D253  D(88,28,66,64)        -93.7535         estimate D2E/DX2                !
 ! D254  D(88,28,66,68)         92.3632         estimate D2E/DX2                !
 ! D255  D(5,29,31,33)          -1.5847         estimate D2E/DX2                !
 ! D256  D(5,29,31,69)        -150.6817         estimate D2E/DX2                !
 ! D257  D(27,29,31,33)        150.2678         estimate D2E/DX2                !
 ! D258  D(27,29,31,69)          1.1708         estimate D2E/DX2                !
 ! D259  D(7,30,32,34)          -0.292          estimate D2E/DX2                !
 ! D260  D(7,30,32,70)         147.5684         estimate D2E/DX2                !
 ! D261  D(28,30,32,34)       -147.8845         estimate D2E/DX2                !
 ! D262  D(28,30,32,70)         -0.0241         estimate D2E/DX2                !
 ! D263  D(29,31,33,35)         -6.3326         estimate D2E/DX2                !
 ! D264  D(29,31,33,73)       -155.3386         estimate D2E/DX2                !
 ! D265  D(69,31,33,35)        145.4076         estimate D2E/DX2                !
 ! D266  D(69,31,33,73)         -3.5984         estimate D2E/DX2                !
 ! D267  D(29,31,69,67)         34.8882         estimate D2E/DX2                !
 ! D268  D(29,31,69,71)        151.3035         estimate D2E/DX2                !
 ! D269  D(29,31,69,86)        -86.4098         estimate D2E/DX2                !
 ! D270  D(33,31,69,67)       -116.3832         estimate D2E/DX2                !
 ! D271  D(33,31,69,71)          0.0321         estimate D2E/DX2                !
 ! D272  D(33,31,69,86)        122.3187         estimate D2E/DX2                !
 ! D273  D(30,32,34,36)          7.1652         estimate D2E/DX2                !
 ! D274  D(30,32,34,74)        155.5844         estimate D2E/DX2                !
 ! D275  D(70,32,34,36)       -143.5582         estimate D2E/DX2                !
 ! D276  D(70,32,34,74)          4.861          estimate D2E/DX2                !
 ! D277  D(30,32,70,68)        -35.0873         estimate D2E/DX2                !
 ! D278  D(30,32,70,72)       -151.4144         estimate D2E/DX2                !
 ! D279  D(30,32,70,87)         86.1428         estimate D2E/DX2                !
 ! D280  D(34,32,70,68)        115.3204         estimate D2E/DX2                !
 ! D281  D(34,32,70,72)         -1.0067         estimate D2E/DX2                !
 ! D282  D(34,32,70,87)       -123.4495         estimate D2E/DX2                !
 ! D283  D(31,33,35,9)           8.542          estimate D2E/DX2                !
 ! D284  D(31,33,35,37)       -146.104          estimate D2E/DX2                !
 ! D285  D(73,33,35,9)         152.9995         estimate D2E/DX2                !
 ! D286  D(73,33,35,37)         -1.6465         estimate D2E/DX2                !
 ! D287  D(31,33,73,71)          5.8715         estimate D2E/DX2                !
 ! D288  D(31,33,73,75)        151.584          estimate D2E/DX2                !
[...]
 Alpha virt. eigenvalues --    1.40342   1.41550   1.41611   1.42382   1.42509
 Alpha virt. eigenvalues --    1.43179   1.43722   1.44423   1.45075   1.45529
 Alpha virt. eigenvalues --    1.46133   1.46381   1.46612   1.46816   1.47474
 Alpha virt. eigenvalues --    1.47976   1.48460   1.48815   1.49661   1.50123
 Alpha virt. eigenvalues --    1.50412   1.50708   1.51149   1.52145   1.52357
 Alpha virt. eigenvalues --    1.53047   1.53464   1.54281   1.54657   1.55542
 Alpha virt. eigenvalues --    1.55930   1.56468   1.57716   1.57917   1.58141
 Alpha virt. eigenvalues --    1.58916   1.59212   1.59438   1.60010   1.61088
 Alpha virt. eigenvalues --    1.61264   1.61316   1.61813   1.62439   1.62605
 Alpha virt. eigenvalues --    1.62832   1.63256   1.63509   1.63728   1.64027
 Alpha virt. eigenvalues --    1.64157   1.64383   1.64867   1.65066   1.65321
 Alpha virt. eigenvalues --    1.65497   1.65697   1.65854   1.66096   1.66187
 Alpha virt. eigenvalues --    1.66669   1.66813   1.67124   1.67154   1.67479
 Alpha virt. eigenvalues --    1.67707   1.67874   1.68130   1.68272   1.68482
 Alpha virt. eigenvalues --    1.68786   1.68988   1.69132   1.69289   1.69827
 Alpha virt. eigenvalues --    1.70035   1.70149   1.70242   1.70668   1.70849
 Alpha virt. eigenvalues --    1.71301   1.71508   1.71594   1.71789   1.71982
 Alpha virt. eigenvalues --    1.72550   1.72592   1.72749   1.73029   1.73282
 Alpha virt. eigenvalues --    1.73895   1.74184   1.74558   1.74739   1.74937
 Alpha virt. eigenvalues --    1.75166   1.75463   1.75530   1.75828   1.76033
 Alpha virt. eigenvalues --    1.76387   1.76462   1.76684   1.76734   1.77086
 Alpha virt. eigenvalues --    1.77322   1.77516   1.77602   1.77767   1.78373
 Alpha virt. eigenvalues --    1.78465   1.78653   1.78740   1.78974   1.79349
 Alpha virt. eigenvalues --    1.79442   1.79489   1.79938   1.80198   1.80568
 Alpha virt. eigenvalues --    1.80880   1.81095   1.81176   1.81380   1.81440
 Alpha virt. eigenvalues --    1.81535   1.82293   1.82578   1.82965   1.83203
 Alpha virt. eigenvalues --    1.83346   1.83673   1.83965   1.84279   1.84630
 Alpha virt. eigenvalues --    1.84873   1.85621   1.85899   1.86481   1.86678
 Alpha virt. eigenvalues --    1.86946   1.87540   1.87739   1.87835   1.88212
 Alpha virt. eigenvalues --    1.88648   1.88849   1.89083   1.89361   1.89471
 Alpha virt. eigenvalues --    1.90037   1.90378   1.90542   1.91201   1.91681
 Alpha virt. eigenvalues --    1.92127   1.92235   1.92613   1.92955   1.93164
 Alpha virt. eigenvalues --    1.93299   1.94160   1.94223   1.94437   1.94755
 Alpha virt. eigenvalues --    1.95194   1.95332   1.95920   1.96500   1.97152
 Alpha virt. eigenvalues --    1.97436   1.97593   1.98214   1.98397   1.98638
 Alpha virt. eigenvalues --    1.98919   1.99458   1.99605   1.99854   2.00023
 Alpha virt. eigenvalues --    2.00451   2.00783   2.01075   2.01394   2.01496
 Alpha virt. eigenvalues --    2.01654   2.01832   2.02209   2.02523   2.02776
 Alpha virt. eigenvalues --    2.03059   2.03672   2.04292   2.04516   2.04736
 Alpha virt. eigenvalues --    2.04931   2.05042   2.06204   2.06570   2.06808
 Alpha virt. eigenvalues --    2.06919   2.07414   2.07484   2.08030   2.08365
 Alpha virt. eigenvalues --    2.08724   2.08868   2.09649   2.10359   2.10443
 Alpha virt. eigenvalues --    2.10564   2.10897   2.11150   2.11710   2.12065
 Alpha virt. eigenvalues --    2.12224   2.12471   2.13062   2.13584   2.14318
 Alpha virt. eigenvalues --    2.14965   2.15059   2.15617   2.16016   2.16355
 Alpha virt. eigenvalues --    2.16533   2.16737   2.17159   2.17619   2.17821
 Alpha virt. eigenvalues --    2.18444   2.18715   2.18986   2.19272   2.19604
 Alpha virt. eigenvalues --    2.20793   2.21165   2.21216   2.21491   2.21906
 Alpha virt. eigenvalues --    2.22256   2.23014   2.23271   2.23619   2.23689
 Alpha virt. eigenvalues --    2.24327   2.24567   2.25415   2.25512   2.25759
 Alpha virt. eigenvalues --    2.26132   2.26860   2.27149   2.27485   2.27763
 Alpha virt. eigenvalues --    2.28058   2.28660   2.29339   2.29507   2.30049
 Alpha virt. eigenvalues --    2.30373   2.30676   2.30832   2.31416   2.31710
 Alpha virt. eigenvalues --    2.32713   2.33344   2.34010   2.34291   2.34755
 Alpha virt. eigenvalues --    2.35109   2.35176   2.36035   2.36942   2.37321
 Alpha virt. eigenvalues --    2.38218   2.38555   2.39279   2.39309   2.39951
 Alpha virt. eigenvalues --    2.40346   2.40784   2.41394   2.41766   2.42139
 Alpha virt. eigenvalues --    2.42552   2.43075   2.43329   2.43409   2.44082
 Alpha virt. eigenvalues --    2.44964   2.45332   2.45772   2.46457   2.46953
 Alpha virt. eigenvalues --    2.47148   2.48052   2.48574   2.49288   2.49967
 Alpha virt. eigenvalues --    2.50058   2.50512   2.50931   2.51141   2.52052
 Alpha virt. eigenvalues --    2.52421   2.52517   2.53072   2.53374   2.53417
 Alpha virt. eigenvalues --    2.54198   2.54438   2.55070   2.55288   2.55879
 Alpha virt. eigenvalues --    2.56167   2.56311   2.56514   2.56765   2.57298
 Alpha virt. eigenvalues --    2.57432   2.57733   2.58115   2.58396   2.58921
 Alpha virt. eigenvalues --    2.59187   2.59789   2.60000   2.60328   2.60955
 Alpha virt. eigenvalues --    2.61105   2.61403   2.61571   2.62312   2.62470
 Alpha virt. eigenvalues --    2.62799   2.63017   2.63434   2.63917   2.64257
 Alpha virt. eigenvalues --    2.64311   2.64413   2.65028   2.65124   2.65951
 Alpha virt. eigenvalues --    2.66482   2.67053   2.67149   2.67856   2.68073
 Alpha virt. eigenvalues --    2.68301   2.68394   2.68553   2.69388   2.69661
 Alpha virt. eigenvalues --    2.69985   2.70396   2.70679   2.71448   2.71494
 Alpha virt. eigenvalues --    2.71617   2.72086   2.72347   2.72563   2.72780
 Alpha virt. eigenvalues --    2.73074   2.73609   2.74122   2.74513   2.74658
 Alpha virt. eigenvalues --    2.75379   2.75804   2.75944   2.76130   2.76849
 Alpha virt. eigenvalues --    2.76946   2.77540   2.77943   2.78062   2.78463
 Alpha virt. eigenvalues --    2.79004   2.79198   2.80078   2.80547   2.80967
 Alpha virt. eigenvalues --    2.81182   2.82048   2.82606   2.82977   2.83403
 Alpha virt. eigenvalues --    2.83448   2.84509   2.85694   2.86154   2.86650
 Alpha virt. eigenvalues --    2.87338   2.87407   2.88288   2.88402   2.88996
 Alpha virt. eigenvalues --    2.89372   2.89514   2.90069   2.90121   2.90954
 Alpha virt. eigenvalues --    2.91268   2.91795   2.92067   2.92816   2.93209
 Alpha virt. eigenvalues --    2.93922   2.94291   2.94657   2.94887   2.95764
 Alpha virt. eigenvalues --    2.97239   2.97755   2.98224   3.00329   3.00880
 Alpha virt. eigenvalues --    3.01976   3.02873   3.03422   3.05144   3.08239
 Alpha virt. eigenvalues --    3.09390   3.09885   3.10407   3.10836   3.11589
 Alpha virt. eigenvalues --    3.13252   3.13910   3.15836   3.16736   3.18175
 Alpha virt. eigenvalues --    3.19526   3.20798   3.21919   3.22673   3.23451
 Alpha virt. eigenvalues --    3.25769   3.27189   3.29172   3.30513   3.31798
 Alpha virt. eigenvalues --    3.33914   3.35357   3.38759   3.39891   3.42111
 Alpha virt. eigenvalues --    3.42732   3.45376   3.46391   3.48358   3.50417
 Alpha virt. eigenvalues --    3.53240   3.55584   3.66807   4.00825   4.01435
 Alpha virt. eigenvalues --    4.01695   4.02337   4.02735   4.03915   4.04066
 Alpha virt. eigenvalues --    4.05128   4.05870   4.06202   4.07099   4.07735
 Alpha virt. eigenvalues --    4.08291   4.09023   4.09363   4.10275   4.10426
 Alpha virt. eigenvalues --    4.11070   4.11718   4.12477   4.13121   4.15374
 Alpha virt. eigenvalues --    4.15771   4.16161   4.16543   4.18205   4.18469
 Alpha virt. eigenvalues --    4.19397   4.19525   4.20404   4.20815   4.22265
 Alpha virt. eigenvalues --    4.22538   4.23655   4.24574   4.25414   4.25790
 Alpha virt. eigenvalues --    4.26283   4.26699   4.27120   4.27717   4.27984
 Alpha virt. eigenvalues --    4.28314   4.28760   4.29294   4.29620   4.31149
 Alpha virt. eigenvalues --    4.32109   4.33367   4.34516   4.35021   4.35331
 Alpha virt. eigenvalues --    4.37472   4.38607   4.38976   4.39904   4.40850
 Alpha virt. eigenvalues --    4.41427   4.42101   4.43333   4.44116   4.45052
 Alpha virt. eigenvalues --    4.46889   4.47431   4.48483   4.51097   4.51691
 Alpha virt. eigenvalues --    4.52620   4.53708   4.56176   4.57958   4.58648
 Alpha virt. eigenvalues --    4.58958   4.60308   4.62074   4.64377   4.65152
 Alpha virt. eigenvalues --    4.66660   4.67490   4.73297   4.78037   4.79301
 Alpha virt. eigenvalues --    4.80633   4.81403   4.83479   4.85607   4.88027
 Alpha virt. eigenvalues --    4.92245   4.92572   4.97637   5.02063   5.04886
 Alpha virt. eigenvalues --    5.07240   5.13538   5.15002   5.26164
          Condensed to atoms (all electrons):
 Mulliken charges:
               1
     1  C   -0.333183
     2  C   -0.369222
     3  C    0.004668
     4  C   -0.384512
     5  C    0.077675
     6  C    0.092183
     7  C    0.009384
     8  C    0.091444
     9  C    0.060122
    10  C    0.090964
    11  C    0.089274
    12  C    0.039769
    13  C   -0.009267
    14  C    0.004654
    15  C    0.042485
    16  C    0.009061
    17  C    0.094388
    18  C    0.045355
    19  C    0.073258
    20  C    0.043575
    21  C   -0.017938
    22  C    0.007662
    23  C    0.111285
    24  C    0.089300
    25  C    0.157729
    26  C    0.088545
    27  C   -0.363808
    28  C   -0.376173
    29  C    0.131431
    30  C    0.086045
    31  C    0.083132
    32  C    0.091720
    33  C    0.008010
    34  C    0.002709
    35  C    0.032570
    36  C    0.035775
    37  C    0.045834
    38  C    0.075810
    39  C    0.062014
    40  C    0.039211
    41  C    0.082973
    42  C    0.119390
    43  C    0.052192
    44  C    0.122728
    45  C    0.152067
    46  C    0.077802
    47  C    0.127224
    48  C    0.117767
    49  C   -0.381035
    50  C   -0.376874
    51  C    0.089673
    52  C    0.090470
    53  C    0.008867
    54  C    0.006833
    55  C    0.008822
    56  C    0.009512
    57  C    0.012204
    58  C    0.005794
    59  C    0.092540
    60  C    0.085891
    61  C   -0.381179
    62  C   -0.375094
    63  C    0.124886
    64  C    0.125834
    65  C    0.129169
    66  C    0.128436
    67  C    0.126820
    68  C    0.122509
    69  C   -0.375767
    70  C   -0.372177
    71  C    0.091902
    72  C    0.091860
    73  C    0.025676
    74  C    0.025552
    75  C   -0.013722
    76  C   -0.010986
    77  C   -0.016747
    78  C   -0.045500
    79  C   -0.005807
    80  C   -0.372038
    81  C    0.007106
    82  C    0.076639
    83  C    0.043710
    84  C    0.043881
    85  Cl   0.020090
    86  Cl   0.021677
    87  Cl   0.020301
    88  Cl   0.023237
    89  Cl   0.023134
    90  Cl   0.022151
    91  Cl   0.016807
    92  Cl   0.012485
    93  Cl   0.000915
    94  Cl   0.019469
    95  Cl  -0.042514
    96  Cl  -0.000493
 Sum of Mulliken charges =  -0.00000
 Mulliken charges with hydrogens summed into heavy atoms:
               1
     1  C   -0.333183
     2  C   -0.369222
     3  C    0.004668
     4  C   -0.384512
     5  C    0.077675
     6  C    0.092183
     7  C    0.009384
     8  C    0.091444
     9  C    0.060122
    10  C    0.090964
    11  C    0.089274
    12  C    0.039769
    13  C   -0.009267
    14  C    0.004654
    15  C    0.042485
    16  C    0.009061
    17  C    0.094388
    18  C    0.045355
    19  C    0.073258
    20  C    0.043575
    21  C   -0.017938
    22  C    0.007662
    23  C    0.111285
    24  C    0.089300
    25  C    0.157729
    26  C    0.088545
    27  C   -0.363808
    28  C   -0.376173
    29  C    0.131431
    30  C    0.086045
    31  C    0.083132
    32  C    0.091720
    33  C    0.008010
    34  C    0.002709
    35  C    0.032570
    36  C    0.035775
    37  C    0.045834
    38  C    0.075810
    39  C    0.062014
    40  C    0.039211
    41  C    0.082973
    42  C    0.119390
    43  C    0.052192
    44  C    0.122728
    45  C    0.152067
    46  C    0.077802
    47  C    0.127224
    48  C    0.117767
    49  C   -0.381035
    50  C   -0.376874
    51  C    0.089673
    52  C    0.090470
    53  C    0.008867
    54  C    0.006833
    55  C    0.008822
    56  C    0.009512
    57  C    0.012204
    58  C    0.005794
    59  C    0.092540
    60  C    0.085891
    61  C   -0.381179
    62  C   -0.375094
    63  C    0.124886
    64  C    0.125834
    65  C    0.129169
    66  C    0.128436
    67  C    0.126820
    68  C    0.122509
    69  C   -0.375767
    70  C   -0.372177
    71  C    0.091902
    72  C    0.091860
    73  C    0.025676
    74  C    0.025552
    75  C   -0.013722
    76  C   -0.010986
    77  C   -0.016747
    78  C   -0.045500
    79  C   -0.005807
    80  C   -0.372038
    81  C    0.007106
    82  C    0.076639
    83  C    0.043710
    84  C    0.043881
    85  Cl   0.020090
    86  Cl   0.021677
    87  Cl   0.020301
    88  Cl   0.023237
    89  Cl   0.023134
    90  Cl   0.022151
    91  Cl   0.016807
    92  Cl   0.012485
    93  Cl   0.000915
    94  Cl   0.019469
    95  Cl  -0.042514
    96  Cl  -0.000493
 Electronic spatial extent (au):  <R**2>=          61798.3955
 Charge=              0.0000 electrons
 Dipole moment (field-independent basis, Debye):
    X=             -1.6625    Y=             -2.4909    Z=              0.0551  Tot=              2.9952
 Quadrupole moment (field-independent basis, Debye-Ang):
   XX=           -674.2227   YY=           -629.3468   ZZ=           -605.9979
   XY=             -4.0080   XZ=             -6.2016   YZ=              2.6082
 Traceless Quadrupole moment (field-independent basis, Debye-Ang):
   XX=            -37.7002   YY=              7.1756   ZZ=             30.5246
   XY=             -4.0080   XZ=             -6.2016   YZ=              2.6082
 Octapole moment (field-independent basis, Debye-Ang**2):
  XXX=             61.8493  YYY=            -82.3881  ZZZ=              5.9640  XYY=            -18.9791
  XXY=              5.2450  XXZ=             -1.4303  XZZ=              2.3449  YZZ=             14.2848
  YYZ=             35.9091  XYZ=             15.8126
 Hexadecapole moment (field-independent basis, Debye-Ang**3):
 XXXX=         -37741.9524 YYYY=         -26868.1586 ZZZZ=         -23087.8714 XXXY=            -28.5420
 XXXZ=            164.8567 YYYX=            -99.2766 YYYZ=             84.3964 ZZZX=            -76.9657
 ZZZY=            -60.1066 XXYY=         -11004.3839 XXZZ=         -10293.9288 YYZZ=          -8272.1757
 XXYZ=            -35.8729 YYXZ=            -29.8578 ZZXY=             -0.7440
 N-N= 2.411744400466D+04 E-N=-6.875399885829D+04  KE= 8.676615096475D+03
 No NMR shielding tensors so no spin-rotation constants.
 Leave Link  601 at Mon Jun 27 16:12:53 2022, MaxMem=  1342177280 cpu:              25.9 elap:               1.3
 (Enter /home/mkliu/g16/l9999.exe)
 1\1\GINC-NODE05\FOpt\RB3LYP\6-31G(d,p)\C84Cl12\MKLIU\27-Jun-2022\0\\#P
  opt b3lyp/6-31G(d, p) empiricaldispersion=GD3\\force\\0,1\C,8.2246762
 103,18.6354982196,10.5926750424\C,12.4936385827,19.9988995423,8.930287
 5784\C,8.2731866397,26.8482289055,10.5341285784\C,12.5173662028,25.759
 7991837,8.9071700061\C,7.9555347321,18.9548410215,9.1387589767\C,11.90
 27056604,19.5564345492,10.2447970653\C,7.9532208974,26.8044938056,9.14
 70443237\C,11.9081036211,26.1977775934,10.2180168848\C,8.9547668614,19
 .1254702236,8.1560506937\C,12.1779037188,20.1976046037,11.4136994425\C
 ,12.1718509727,25.5668417097,11.3914652271\C,8.9636805577,26.629056767
 4,8.15587584\C,10.3107901992,19.0695574981,8.6124973664\C,10.301763460
 3,26.6837566137,8.6121950294\C,10.6219518396,18.9638957896,10.03906690
 11\C,10.6259648174,26.7928889278,9.9935607923\C,9.6381412363,18.953500
 407,11.0162583851\C,9.6142657401,26.7861403038,10.994298182\C,9.898416
 2968,19.6510811814,12.243923626\C,9.8886224489,26.1036499945,12.237527
 2128\C,8.8081049688,20.2471223617,12.9385671017\C,8.7963087412,25.5000
 857106,12.9268619969\C,7.4715794253,20.1868901111,12.3819590169\C,7.45
 73000481,25.5764419212,12.4174689495\C,7.1917844359,19.4971699672,11.2
 714449521\C,7.1994927588,26.2444364659,11.2685497812\C,6.1006159744,19
 .9414971067,10.3328064872\C,6.0814723259,25.8271914211,10.3359912899\C
 ,6.7042031809,19.5645982597,9.0069623332\C,6.6585043445,26.2247341922,
 8.9953370975\C,6.3802246806,20.2328040726,7.8539615911\C,6.3512821437,
 25.5624193593,7.857062284\C,7.3205698697,20.3368010763,6.8111751191\C,
 7.3179235603,25.4413301571,6.8056717023\C,8.6608068178,19.8693935098,6
 .9583913435\C,8.6640519171,25.8827210839,6.9592004209\C,9.7245476062,2
 0.5902136819,6.2701721028\C,9.7282887553,25.1486473569,6.2814094186\C,
 11.0588406125,20.5716274206,6.8326008066\C,12.7112713549,22.1809416881
 ,7.7985334117\C,12.7638203312,23.5813649745,7.7807244087\C,11.07387343
 42,25.1825311325,6.8463880888\C,11.3208935632,19.7611692453,7.97343166
 67\C,12.8840958101,21.4650394955,8.9800098599\C,12.923495287,24.295543
 1995,8.9563381686\C,11.3370449847,25.9599855174,7.9423515157\C,13.1140
 252972,22.1736392276,10.1804611055\C,13.1217376679,23.5911964825,10.17
 33891328\C,13.1084840878,21.3979019543,11.5030813698\C,13.1047742918,2
 4.3712567638,11.4909251916\C,12.4374556266,22.2076273128,12.5941719646
 \C,12.4343474463,23.5661664717,12.5872052582\C,11.1697892832,20.264711
 0394,12.4195129139\C,11.1640297207,25.5032192608,12.4120351702\C,11.32
 19265331,21.4921291383,13.1385023313\C,11.3193455024,24.2824380454,13.
 1307151398\C,8.9514818302,21.4723252482,13.618716749\C,8.9488088742,24
 .2775814643,13.6314350578\C,7.7115263981,22.2000480908,13.5499039787\C
 ,7.7101386904,23.5508858795,13.5589514463\C,6.6699505387,21.4062870312
 ,12.7958290482\C,6.6590950834,24.352622601,12.8183417388\C,6.174332177
 9,22.1786791697,11.561719767\C,6.1711731074,23.5906817577,11.566795600
 1\C,5.8855434677,21.4720929694,10.3770907849\C,5.8801889888,24.2969656
 97,10.3808315907\C,5.5771240175,22.1801187498,9.1896666788\C,5.5756104
 054,23.5929501955,9.1913156701\C,5.4199103416,21.408546272,7.861485750
 9\C,5.4092360087,24.3720816155,7.8643910372\C,5.9326485048,22.21416937
 72,6.686806655\C,5.9333232932,23.5744451437,6.688944339\C,7.0011722388
 ,21.5095000946,6.037541688\C,6.9972970008,24.2876501229,6.0379048463\C
 ,8.0077747524,22.1747422108,5.3637042801\C,8.0151970244,23.6153857444,
 5.3585570141\C,9.3698299432,21.7106518471,5.4636495669\C,9.3684467038,
 24.0650190157,5.4442012869\C,11.8808073249,21.717008966,6.6804344912\C
 ,12.0965612975,24.1105422066,6.5113323427\C,10.2074916384,22.867339690
 4,5.391282437\C,11.4574846076,22.8479689894,5.9769870428\C,10.20565550
 36,22.1601893629,13.6948272638\C,10.2000884853,23.6038570465,13.692139
 8555\Cl,4.5025113304,19.0783589977,10.6598472735\Cl,3.6641801997,20.91
 30406228,7.6274880355\Cl,3.6461841883,24.8423003848,7.6387409694\Cl,4.
 5072438763,26.6924220578,10.7200349357\Cl,5.2422180497,20.953244281,13
 .8644519314\Cl,5.2251113669,24.7713529808,13.8910045234\Cl,14.82766333
 88,20.9103717187,11.9453713073\Cl,14.8189113891,24.8769217554,11.94811
 46237\Cl,13.9588676333,18.9778425482,8.4377845572\Cl,13.9473312974,26.
 8216711057,8.4369506086\Cl,7.8926160258,16.8015088774,10.9142953718\Cl
 ,13.3455178092,24.7664443897,5.3075648348\\Version=ES64L-G16RevA.03\St
 ate=1-A\HF=-8723.4423289\RMSD=1.087e-09\RMSF=2.830e-05\Dipole=0.500621
 3,0.9931654,-0.389451\Quadrupole=-25.9049337,5.5669112,20.3380225,-4.7
 606141,9.2853189,5.6333871\PG=C01 [X(C84Cl12)]\\@


 IT IS UNWORTHY OF EXCELLENT MEN TO LOSE HOURS LIKE SLAVES IN THE LABOR
 OF CALCULATION WHICH COULD BE SAFELY RELEGATED TO ANYONE ELSE
 IF A MACHINE WERE USED.
    -- G.W. VON LEIBNIZ
 Job cpu time:       1 days 12 hours  4 minutes 11.0 seconds.
 Elapsed time:       0 days  1 hours 30 minutes 18.0 seconds.
 File lengths (MBytes):  RWF=   1359 Int=      0 D2E=      0 Chk=    170 Scr=      1
 Normal termination of Gaussian 16 at Mon Jun 27 16:12:55 2022.
