 Entering Gaussian System, Link 0=g16
 Input=12_addons_C84_14_Cl22_rank_0.gjf
 Output=12_addons_C84_14_Cl22_rank_0.log
 Initial command:
 /home/mkliu/g16/l1.exe "/data/scratch/Gau-226757.inp" -scrdir="/data/scratch/"
 Entering Link 1 = /home/mkliu/g16/l1.exe PID=    226758.
  
 Copyright (c) 1988,1990,1992,1993,1995,1998,2003,2009,2016,
            Gaussian, Inc.  All Rights Reserved.
  
 This is part of the Gaussian(R) 16 program.  It is based on
 the Gaussian(R) 09 system (copyright 2009, Gaussian, Inc.),
 the Gaussian(R) 03 system (copyright 2003, Gaussian, Inc.),
 the Gaussian(R) 98 system (copyright 1998, Gaussian, Inc.),
 the Gaussian(R) 94 system (copyright 1995, Gaussian, Inc.),
 the Gaussian 92(TM) system (copyright 1992, Gaussian, Inc.),
 the Gaussian 90(TM) system (copyright 1990, Gaussian, Inc.),
 the Gaussian 88(TM) system (copyright 1988, Gaussian, Inc.),
 the Gaussian 86(TM) system (copyright 1986, Carnegie Mellon
 University), and the Gaussian 82(TM) system (copyright 1983,
 Carnegie Mellon University). Gaussian is a federally registered
 trademark of Gaussian, Inc.
  
 This software contains proprietary and confidential information,
 including trade secrets, belonging to Gaussian, Inc.
  
 This software is provided under written license and may be
 used, copied, transmitted, or stored only in accord with that
 written license.
  
 The following legend is applicable only to US Government
 contracts under FAR:
  
                    RESTRICTED RIGHTS LEGEND
  
 Use, reproduction and disclosure by the US Government is
 subject to restrictions as set forth in subparagraphs (a)
 and (c) of the Commercial Computer Software - Restricted
 Rights clause in FAR 52.227-19.
  
 Gaussian, Inc.
 340 Quinnipiac St., Bldg. 40, Wallingford CT 06492
  
  
 ---------------------------------------------------------------
 Warning -- This program may not be used in any manner that
 competes with the business of Gaussian, Inc. or will provide
 assistance to any competitor of Gaussian, Inc.  The licensee
 of this program is prohibited from giving any competitor of
 Gaussian, Inc. access to this program.  By using this program,
 the user acknowledges that Gaussian, Inc. is engaged in the
 business of creating and licensing software in the field of
 computational chemistry and represents and warrants to the
 licensee that it is not a competitor of Gaussian, Inc. and that
 it will not use this program in any manner prohibited above.
 ---------------------------------------------------------------
  

 Cite this work as:
 Gaussian 16, Revision A.03,
 M. J. Frisch, G. W. Trucks, H. B. Schlegel, G. E. Scuseria, 
 M. A. Robb, J. R. Cheeseman, G. Scalmani, V. Barone, 
 G. A. Petersson, H. Nakatsuji, X. Li, M. Caricato, A. V. Marenich, 
 J. Bloino, B. G. Janesko, R. Gomperts, B. Mennucci, H. P. Hratchian, 
 J. V. Ortiz, A. F. Izmaylov, J. L. Sonnenberg, D. Williams-Young, 
 F. Ding, F. Lipparini, F. Egidi, J. Goings, B. Peng, A. Petrone, 
 T. Henderson, D. Ranasinghe, V. G. Zakrzewski, J. Gao, N. Rega, 
 G. Zheng, W. Liang, M. Hada, M. Ehara, K. Toyota, R. Fukuda, 
 J. Hasegawa, M. Ishida, T. Nakajima, Y. Honda, O. Kitao, H. Nakai, 
 T. Vreven, K. Throssell, J. A. Montgomery, Jr., J. E. Peralta, 
 F. Ogliaro, M. J. Bearpark, J. J. Heyd, E. N. Brothers, K. N. Kudin, 
 V. N. Staroverov, T. A. Keith, R. Kobayashi, J. Normand, 
 K. Raghavachari, A. P. Rendell, J. C. Burant, S. S. Iyengar, 
 J. Tomasi, M. Cossi, J. M. Millam, M. Klene, C. Adamo, R. Cammi, 
 J. W. Ochterski, R. L. Martin, K. Morokuma, O. Farkas, 
 J. B. Foresman, and D. J. Fox, Gaussian, Inc., Wallingford CT, 2016.
 
 ******************************************
 Gaussian 16:  ES64L-G16RevA.03 25-Dec-2016
                27-Jun-2022 
 ******************************************
 %mem=10GB
 %chk=12_addons_C84_14_Cl22_rank_0.chk
 %nprocshared=24
 Will use up to   24 processors via shared memory.
 ------------------------------------------------
 #P opt b3lyp/6-31G(d, p) empiricaldispersion=GD3
 ------------------------------------------------
 1/18=20,19=15,26=3,38=1/1,3;
 2/9=110,12=2,17=6,18=5,40=1/2;
 3/5=1,6=6,7=101,11=2,25=1,30=1,71=1,74=-5,124=31/1,2,3;
 4//1;
 5/5=2,38=5/2;
 6/7=2,8=2,9=2,10=2,28=1/1;
 7//1,2,3,16;
 1/18=20,19=15,26=3/3(2);
 2/9=110/2;
 99//99;
 2/9=110/2;
 3/5=1,6=6,7=101,11=2,25=1,30=1,71=1,74=-5,124=31/1,2,3;
 4/5=5,16=3,69=1/1;
 5/5=2,38=5/2;
 7//1,2,3,16;
 1/18=20,19=15,26=3/3(-5);
 2/9=110/2;
 6/7=2,8=2,9=2,10=2,19=2,28=1/1;
 99/9=1/99;
 Leave Link    1 at Mon Jun 27 12:06:49 2022, MaxMem=  1342177280 cpu:               1.1 elap:               0.1
 (Enter /home/mkliu/g16/l101.exe)
 -----
 force
 -----
 Symbolic Z-matrix:
 Charge =  0 Multiplicity = 1
 C                     8.27353   18.92695   10.5348 
 C                     12.48613   20.00723   8.91259 
 C                     8.27079   26.82378   10.53642 
 C                     12.48414   25.74706   8.91376 
 C                     7.95772   18.9721   9.154 
 C                     11.88622   19.57202   10.21626 
 C                     7.95501   26.77897   9.15559 
 C                     11.88393   26.18133   10.21761 
 C                     8.95806   19.14357   8.16848 
 C                     12.14792   20.21028   11.38382 
 C                     12.14607   25.54277   11.38491 
 C                     8.95547   26.60859   8.17 
 C                     10.28858   19.09151   8.62622 
 C                     10.28596   26.66139   8.62777 
 C                     10.60988   18.97693   9.99985 
 C                     10.60718   26.77563   10.00144 
 C                     9.60569   18.9876   10.995 
 C                     9.603     26.76386   10.99658 
 C                     9.8762    19.66688   12.22449 
 C                     9.87397   26.08426   12.22579 
 C                     8.79427   20.26652   12.90877 
 C                     8.79246   25.48359   12.90983 
 C                     7.4619    20.19701   12.40772 
 C                     7.46004   25.5524   12.40882 
 C                     7.20385   19.53092   11.25838 
 C                     7.20153   26.21877   11.25975 
 C                     6.09815   19.95496   10.3362 
 C                     6.09613   25.79434   10.33739 
 C                     6.67129   19.55821   9.00896 
 C                     6.66899   26.19203   9.01032 
 C                     6.37085   20.2251   7.87348 
 C                     6.36901   25.52539   7.87457 
 C                     7.3347    20.33278   6.82842 
 C                     7.33293   25.41881   6.82946 
 C                     8.66663   19.88399   6.98201 
 C                     8.66455   25.86845   6.98323 
 C                     9.7264    20.6052   6.3194 
 C                     9.72483   25.14825   6.32033 
 C                     11.06273   20.56907   6.86093 
 C                     12.66282   22.18357   7.79838 
 C                     12.66235   23.57131   7.79866 
 C                     11.06112   25.18507   6.86187 
 C                     11.32654   19.79931   7.9566 
 C                     12.82781   21.47377   8.97295 
 C                     12.82685   24.28074   8.97352 
 C                     11.32441   25.95458   7.95786 
 C                     13.04058   22.1748   10.16918 
 C                     13.04009   23.57937   10.16947 
 C                     13.06761   21.3992   11.47637 
 C                     13.06658   24.35445   11.47697 
 C                     12.40185   22.19876   12.56024 
 C                     12.40139   23.55399   12.56052 
 C                     11.14171   20.27297   12.39496 
 C                     11.1399   25.47898   12.39602 
 C                     11.29371   21.48712   13.10774 
 C                     11.29275   24.26465   13.10831 
 C                     8.94471   21.48755   13.61038 
 C                     8.94375   24.26238   13.61095 
 C                     7.71049   22.19789   13.5457 
 C                     7.71002   23.55121   13.54597 
 C                     6.66949   21.40983   12.80426 
 C                     6.66847   24.33886   12.80486 
 C                     6.23398   22.17326   11.55369 
 C                     6.2335    23.57564   11.55398 
 C                     5.94642   21.47536   10.3731 
 C                     5.94545   24.27382   10.37367 
 C                     5.64227   22.17413   9.19416 
 C                     5.64178   23.57532   9.19444 
 C                     5.43768   21.40437   7.88719 
 C                     5.43665   24.34547   7.88779 
 C                     5.95379   22.19797   6.72141 
 C                     5.95332   23.55271   6.72169 
 C                     7.01927   21.48915   6.07568 
 C                     7.0183    24.26253   6.07624 
 C                     8.04133   22.15918   5.4177 
 C                     8.04083   23.59348   5.418 
 C                     9.37787   21.69905   5.51547 
 C                     9.37706   24.05449   5.51596 
 C                     12.08016   21.63179   6.52287 
 C                     12.07929   24.1232   6.52338 
 C                     10.23089   22.87707   5.46283 
 C                     11.48103   22.87741   5.94735 
 C                     10.18562   22.16018   13.67178 
 C                     10.18512   23.59059   13.67207 
 Cl                    4.51246   19.2003   10.71324 
 Cl                    3.69823   20.96888   7.74984 
 Cl                    3.69691   24.77981   7.75062 
 Cl                    4.50993   26.54776   10.71475 
 Cl                    5.20878   21.03747   13.78431 
 Cl                    5.2075    24.70979   13.78507 
 Cl                    14.77161   20.95558   11.85419 
 Cl                    14.77028   24.79912   11.85496 
 Cl                    13.93836   19.05156   8.44281 
 Cl                    13.37564   20.93607   5.45797 
 Cl                    13.9357   26.70395   8.44438 
 Cl                    13.37428   24.82027   5.45875 
 
 ITRead=  0  0  0  0  0  0  0  0  0  0  0  0  0  0  0  0  0  0  0  0
 ITRead=  0  0  0  0  0  0  0  0  0  0  0  0  0  0  0  0  0  0  0  0
 ITRead=  0  0  0  0  0  0  0  0  0  0  0  0  0  0  0  0  0  0  0  0
 ITRead=  0  0  0  0  0  0  0  0  0  0  0  0  0  0  0  0  0  0  0  0
 ITRead=  0  0  0  0  0  0  0  0  0  0  0  0  0  0  0  0
 MicOpt= -1 -1 -1 -1 -1 -1 -1 -1 -1 -1 -1 -1 -1 -1 -1 -1 -1 -1 -1 -1
 MicOpt= -1 -1 -1 -1 -1 -1 -1 -1 -1 -1 -1 -1 -1 -1 -1 -1 -1 -1 -1 -1
 MicOpt= -1 -1 -1 -1 -1 -1 -1 -1 -1 -1 -1 -1 -1 -1 -1 -1 -1 -1 -1 -1
 MicOpt= -1 -1 -1 -1 -1 -1 -1 -1 -1 -1 -1 -1 -1 -1 -1 -1 -1 -1 -1 -1
 MicOpt= -1 -1 -1 -1 -1 -1 -1 -1 -1 -1 -1 -1 -1 -1 -1 -1
 NAtoms=     96 NQM=       96 NQMF=       0 NMMI=      0 NMMIF=      0
                NMic=       0 NMicF=      0.
                    Isotopes and Nuclear Properties:
 (Nuclear quadrupole moments (NQMom) in fm**2, nuclear magnetic moments (NMagM)
  in nuclear magnetons)

  Atom         1           2           3           4           5           6           7           8           9          10
 IAtWgt=          12          12          12          12          12          12          12          12          12          12
 AtmWgt=  12.0000000  12.0000000  12.0000000  12.0000000  12.0000000  12.0000000  12.0000000  12.0000000  12.0000000  12.0000000
 NucSpn=           0           0           0           0           0           0           0           0           0           0
 AtZEff=  -0.0000000  -0.0000000  -0.0000000  -0.0000000  -0.0000000  -0.0000000  -0.0000000  -0.0000000  -0.0000000  -0.0000000
 NQMom=    0.0000000   0.0000000   0.0000000   0.0000000   0.0000000   0.0000000   0.0000000   0.0000000   0.0000000   0.0000000
 NMagM=    0.0000000   0.0000000   0.0000000   0.0000000   0.0000000   0.0000000   0.0000000   0.0000000   0.0000000   0.0000000
 AtZNuc=   6.0000000   6.0000000   6.0000000   6.0000000   6.0000000   6.0000000   6.0000000   6.0000000   6.0000000   6.0000000

  Atom        11          12          13          14          15          16          17          18          19          20
 IAtWgt=          12          12          12          12          12          12          12          12          12          12
 AtmWgt=  12.0000000  12.0000000  12.0000000  12.0000000  12.0000000  12.0000000  12.0000000  12.0000000  12.0000000  12.0000000
 NucSpn=           0           0           0           0           0           0           0           0           0           0
 AtZEff=  -0.0000000  -0.0000000  -0.0000000  -0.0000000  -0.0000000  -0.0000000  -0.0000000  -0.0000000  -0.0000000  -0.0000000
 NQMom=    0.0000000   0.0000000   0.0000000   0.0000000   0.0000000   0.0000000   0.0000000   0.0000000   0.0000000   0.0000000
 NMagM=    0.0000000   0.0000000   0.0000000   0.0000000   0.0000000   0.0000000   0.0000000   0.0000000   0.0000000   0.0000000
 AtZNuc=   6.0000000   6.0000000   6.0000000   6.0000000   6.0000000   6.0000000   6.0000000   6.0000000   6.0000000   6.0000000

  Atom        21          22          23          24          25          26          27          28          29          30
 IAtWgt=          12          12          12          12          12          12          12          12          12          12
 AtmWgt=  12.0000000  12.0000000  12.0000000  12.0000000  12.0000000  12.0000000  12.0000000  12.0000000  12.0000000  12.0000000
 NucSpn=           0           0           0           0           0           0           0           0           0           0
 AtZEff=  -0.0000000  -0.0000000  -0.0000000  -0.0000000  -0.0000000  -0.0000000  -0.0000000  -0.0000000  -0.0000000  -0.0000000
 NQMom=    0.0000000   0.0000000   0.0000000   0.0000000   0.0000000   0.0000000   0.0000000   0.0000000   0.0000000   0.0000000
 NMagM=    0.0000000   0.0000000   0.0000000   0.0000000   0.0000000   0.0000000   0.0000000   0.0000000   0.0000000   0.0000000
 AtZNuc=   6.0000000   6.0000000   6.0000000   6.0000000   6.0000000   6.0000000   6.0000000   6.0000000   6.0000000   6.0000000

  Atom        31          32          33          34          35          36          37          38          39          40
 IAtWgt=          12          12          12          12          12          12          12          12          12          12
 AtmWgt=  12.0000000  12.0000000  12.0000000  12.0000000  12.0000000  12.0000000  12.0000000  12.0000000  12.0000000  12.0000000
 NucSpn=           0           0           0           0           0           0           0           0           0           0
 AtZEff=  -0.0000000  -0.0000000  -0.0000000  -0.0000000  -0.0000000  -0.0000000  -0.0000000  -0.0000000  -0.0000000  -0.0000000
 NQMom=    0.0000000   0.0000000   0.0000000   0.0000000   0.0000000   0.0000000   0.0000000   0.0000000   0.0000000   0.0000000
 NMagM=    0.0000000   0.0000000   0.0000000   0.0000000   0.0000000   0.0000000   0.0000000   0.0000000   0.0000000   0.0000000
 AtZNuc=   6.0000000   6.0000000   6.0000000   6.0000000   6.0000000   6.0000000   6.0000000   6.0000000   6.0000000   6.0000000

  Atom        41          42          43          44          45          46          47          48          49          50
 IAtWgt=          12          12          12          12          12          12          12          12          12          12
 AtmWgt=  12.0000000  12.0000000  12.0000000  12.0000000  12.0000000  12.0000000  12.0000000  12.0000000  12.0000000  12.0000000
 NucSpn=           0           0           0           0           0           0           0           0           0           0
 AtZEff=  -0.0000000  -0.0000000  -0.0000000  -0.0000000  -0.0000000  -0.0000000  -0.0000000  -0.0000000  -0.0000000  -0.0000000
 NQMom=    0.0000000   0.0000000   0.0000000   0.0000000   0.0000000   0.0000000   0.0000000   0.0000000   0.0000000   0.0000000
 NMagM=    0.0000000   0.0000000   0.0000000   0.0000000   0.0000000   0.0000000   0.0000000   0.0000000   0.0000000   0.0000000
 AtZNuc=   6.0000000   6.0000000   6.0000000   6.0000000   6.0000000   6.0000000   6.0000000   6.0000000   6.0000000   6.0000000

  Atom        51          52          53          54          55          56          57          58          59          60
 IAtWgt=          12          12          12          12          12          12          12          12          12          12
 AtmWgt=  12.0000000  12.0000000  12.0000000  12.0000000  12.0000000  12.0000000  12.0000000  12.0000000  12.0000000  12.0000000
 NucSpn=           0           0           0           0           0           0           0           0           0           0
 AtZEff=  -0.0000000  -0.0000000  -0.0000000  -0.0000000  -0.0000000  -0.0000000  -0.0000000  -0.0000000  -0.0000000  -0.0000000
 NQMom=    0.0000000   0.0000000   0.0000000   0.0000000   0.0000000   0.0000000   0.0000000   0.0000000   0.0000000   0.0000000
 NMagM=    0.0000000   0.0000000   0.0000000   0.0000000   0.0000000   0.0000000   0.0000000   0.0000000   0.0000000   0.0000000
 AtZNuc=   6.0000000   6.0000000   6.0000000   6.0000000   6.0000000   6.0000000   6.0000000   6.0000000   6.0000000   6.0000000

  Atom        61          62          63          64          65          66          67          68          69          70
 IAtWgt=          12          12          12          12          12          12          12          12          12          12
 AtmWgt=  12.0000000  12.0000000  12.0000000  12.0000000  12.0000000  12.0000000  12.0000000  12.0000000  12.0000000  12.0000000
 NucSpn=           0           0           0           0           0           0           0           0           0           0
 AtZEff=  -0.0000000  -0.0000000  -0.0000000  -0.0000000  -0.0000000  -0.0000000  -0.0000000  -0.0000000  -0.0000000  -0.0000000
 NQMom=    0.0000000   0.0000000   0.0000000   0.0000000   0.0000000   0.0000000   0.0000000   0.0000000   0.0000000   0.0000000
 NMagM=    0.0000000   0.0000000   0.0000000   0.0000000   0.0000000   0.0000000   0.0000000   0.0000000   0.0000000   0.0000000
 AtZNuc=   6.0000000   6.0000000   6.0000000   6.0000000   6.0000000   6.0000000   6.0000000   6.0000000   6.0000000   6.0000000

  Atom        71          72          73          74          75          76          77          78          79          80
 IAtWgt=          12          12          12          12          12          12          12          12          12          12
 AtmWgt=  12.0000000  12.0000000  12.0000000  12.0000000  12.0000000  12.0000000  12.0000000  12.0000000  12.0000000  12.0000000
 NucSpn=           0           0           0           0           0           0           0           0           0           0
 AtZEff=  -0.0000000  -0.0000000  -0.0000000  -0.0000000  -0.0000000  -0.0000000  -0.0000000  -0.0000000  -0.0000000  -0.0000000
 NQMom=    0.0000000   0.0000000   0.0000000   0.0000000   0.0000000   0.0000000   0.0000000   0.0000000   0.0000000   0.0000000
 NMagM=    0.0000000   0.0000000   0.0000000   0.0000000   0.0000000   0.0000000   0.0000000   0.0000000   0.0000000   0.0000000
 AtZNuc=   6.0000000   6.0000000   6.0000000   6.0000000   6.0000000   6.0000000   6.0000000   6.0000000   6.0000000   6.0000000

  Atom        81          82          83          84          85          86          87          88          89          90
 IAtWgt=          12          12          12          12          35          35          35          35          35          35
 AtmWgt=  12.0000000  12.0000000  12.0000000  12.0000000  34.9688527  34.9688527  34.9688527  34.9688527  34.9688527  34.9688527
 NucSpn=           0           0           0           0           3           3           3           3           3           3
 AtZEff=  -0.0000000  -0.0000000  -0.0000000  -0.0000000  -0.0000000  -0.0000000  -0.0000000  -0.0000000  -0.0000000  -0.0000000
 NQMom=    0.0000000   0.0000000   0.0000000   0.0000000  -8.1650000  -8.1650000  -8.1650000  -8.1650000  -8.1650000  -8.1650000
 NMagM=    0.0000000   0.0000000   0.0000000   0.0000000   0.8218740   0.8218740   0.8218740   0.8218740   0.8218740   0.8218740
 AtZNuc=   6.0000000   6.0000000   6.0000000   6.0000000  17.0000000  17.0000000  17.0000000  17.0000000  17.0000000  17.0000000

  Atom        91          92          93          94          95          96
 IAtWgt=          35          35          35          35          35          35
 AtmWgt=  34.9688527  34.9688527  34.9688527  34.9688527  34.9688527  34.9688527
 NucSpn=           3           3           3           3           3           3
 AtZEff=  -0.0000000  -0.0000000  -0.0000000  -0.0000000  -0.0000000  -0.0000000
 NQMom=   -8.1650000  -8.1650000  -8.1650000  -8.1650000  -8.1650000  -8.1650000
 NMagM=    0.8218740   0.8218740   0.8218740   0.8218740   0.8218740   0.8218740
 AtZNuc=  17.0000000  17.0000000  17.0000000  17.0000000  17.0000000  17.0000000
 Leave Link  101 at Mon Jun 27 12:06:50 2022, MaxMem=  1342177280 cpu:               9.0 elap:               0.5
 (Enter /home/mkliu/g16/l103.exe)

 GradGradGradGradGradGradGradGradGradGradGradGradGradGradGradGradGradGrad
 Berny optimization.
 Initialization pass.
                           ----------------------------
                           !    Initial Parameters    !
                           ! (Angstroms and Degrees)  !
 --------------------------                            --------------------------
 ! Name  Definition              Value          Derivative Info.                !
 --------------------------------------------------------------------------------
 ! R1    R(1,5)                  1.4172         estimate D2E/DX2                !
 ! R2    R(1,17)                 1.4107         estimate D2E/DX2                !
 ! R3    R(1,25)                 1.4257         estimate D2E/DX2                !
 ! R4    R(2,6)                  1.4996         estimate D2E/DX2                !
 ! R5    R(2,43)                 1.5172         estimate D2E/DX2                !
 ! R6    R(2,44)                 1.507          estimate D2E/DX2                !
 ! R7    R(2,93)                 1.8008         estimate D2E/DX2                !
 ! R8    R(3,7)                  1.4172         estimate D2E/DX2                !
 ! R9    R(3,18)                 1.4107         estimate D2E/DX2                !
 ! R10   R(3,26)                 1.4257         estimate D2E/DX2                !
 ! R11   R(4,8)                  1.4996         estimate D2E/DX2                !
 ! R12   R(4,45)                 1.507          estimate D2E/DX2                !
 ! R13   R(4,46)                 1.5172         estimate D2E/DX2                !
 ! R14   R(4,95)                 1.8008         estimate D2E/DX2                !
 ! R15   R(5,9)                  1.4147         estimate D2E/DX2                !
 ! R16   R(5,29)                 1.4211         estimate D2E/DX2                !
 ! R17   R(6,10)                 1.3561         estimate D2E/DX2                !
 ! R18   R(6,15)                 1.4248         estimate D2E/DX2                !
 ! R19   R(7,12)                 1.4147         estimate D2E/DX2                !
 ! R20   R(7,30)                 1.4211         estimate D2E/DX2                !
 ! R21   R(8,11)                 1.3561         estimate D2E/DX2                !
 ! R22   R(8,16)                 1.4248         estimate D2E/DX2                !
 ! R23   R(9,13)                 1.408          estimate D2E/DX2                !
 ! R24   R(9,35)                 1.4286         estimate D2E/DX2                !
 ! R25   R(10,49)                1.506          estimate D2E/DX2                !
 ! R26   R(10,53)                1.4279         estimate D2E/DX2                !
 ! R27   R(11,50)                1.506          estimate D2E/DX2                !
 ! R28   R(11,54)                1.4279         estimate D2E/DX2                !
 ! R29   R(12,14)                1.408          estimate D2E/DX2                !
 ! R30   R(12,36)                1.4286         estimate D2E/DX2                !
 ! R31   R(13,15)                1.4153         estimate D2E/DX2                !
 ! R32   R(13,43)                1.4236         estimate D2E/DX2                !
 ! R33   R(14,16)                1.4154         estimate D2E/DX2                !
 ! R34   R(14,46)                1.4236         estimate D2E/DX2                !
 ! R35   R(15,17)                1.4138         estimate D2E/DX2                !
 ! R36   R(16,18)                1.4138         estimate D2E/DX2                !
 ! R37   R(17,19)                1.4305         estimate D2E/DX2                !
 ! R38   R(18,20)                1.4305         estimate D2E/DX2                !
 ! R39   R(19,21)                1.4136         estimate D2E/DX2                !
 ! R40   R(19,53)                1.4135         estimate D2E/DX2                !
 ! R41   R(20,22)                1.4136         estimate D2E/DX2                !
 ! R42   R(20,54)                1.4135         estimate D2E/DX2                !
 ! R43   R(21,23)                1.4252         estimate D2E/DX2                !
 ! R44   R(21,57)                1.4163         estimate D2E/DX2                !
 ! R45   R(22,24)                1.4252         estimate D2E/DX2                !
 ! R46   R(22,58)                1.4163         estimate D2E/DX2                !
 ! R47   R(23,25)                1.3532         estimate D2E/DX2                !
 ! R48   R(23,61)                1.502          estimate D2E/DX2                !
 ! R49   R(24,26)                1.3532         estimate D2E/DX2                !
 ! R50   R(24,62)                1.502          estimate D2E/DX2                !
 ! R51   R(25,27)                1.5009         estimate D2E/DX2                !
 ! R52   R(26,28)                1.5009         estimate D2E/DX2                !
 ! R53   R(27,29)                1.4991         estimate D2E/DX2                !
 ! R54   R(27,65)                1.5284         estimate D2E/DX2                !
 ! R55   R(27,85)                1.7961         estimate D2E/DX2                !
 ! R56   R(28,30)                1.4991         estimate D2E/DX2                !
 ! R57   R(28,66)                1.5284         estimate D2E/DX2                !
 ! R58   R(28,88)                1.7961         estimate D2E/DX2                !
 ! R59   R(29,31)                1.3507         estimate D2E/DX2                !
 ! R60   R(30,32)                1.3507         estimate D2E/DX2                !
 ! R61   R(31,33)                1.4257         estimate D2E/DX2                !
 ! R62   R(31,69)                1.5039         estimate D2E/DX2                !
 ! R63   R(32,34)                1.4257         estimate D2E/DX2                !
 ! R64   R(32,70)                1.5039         estimate D2E/DX2                !
 ! R65   R(33,35)                1.4139         estimate D2E/DX2                !
 ! R66   R(33,73)                1.4154         estimate D2E/DX2                !
 ! R67   R(34,36)                1.4139         estimate D2E/DX2                !
 ! R68   R(34,74)                1.4154         estimate D2E/DX2                !
 ! R69   R(35,37)                1.443          estimate D2E/DX2                !
 ! R70   R(36,38)                1.443          estimate D2E/DX2                !
 ! R71   R(37,39)                1.4423         estimate D2E/DX2                !
 ! R72   R(37,77)                1.4015         estimate D2E/DX2                !
 ! R73   R(38,42)                1.4423         estimate D2E/DX2                !
 ! R74   R(38,78)                1.4015         estimate D2E/DX2                !
 ! R75   R(39,43)                1.3648         estimate D2E/DX2                !
 ! R76   R(39,79)                1.5096         estimate D2E/DX2                !
 ! R77   R(40,41)                1.3877         estimate D2E/DX2                !
 ! R78   R(40,44)                1.3823         estimate D2E/DX2                !
 ! R79   R(40,79)                1.5069         estimate D2E/DX2                !
 ! R80   R(41,45)                1.3823         estimate D2E/DX2                !
 ! R81   R(41,80)                1.5069         estimate D2E/DX2                !
 ! R82   R(42,46)                1.3648         estimate D2E/DX2                !
 ! R83   R(42,80)                1.5096         estimate D2E/DX2                !
 ! R84   R(44,47)                1.4027         estimate D2E/DX2                !
 ! R85   R(45,48)                1.4027         estimate D2E/DX2                !
 ! R86   R(47,48)                1.4046         estimate D2E/DX2                !
 ! R87   R(47,49)                1.5202         estimate D2E/DX2                !
 ! R88   R(48,50)                1.5202         estimate D2E/DX2                !
 ! R89   R(49,51)                1.5024         estimate D2E/DX2                !
 ! R90   R(49,91)                1.8009         estimate D2E/DX2                !
 ! R91   R(50,52)                1.5024         estimate D2E/DX2                !
 ! R92   R(50,92)                1.8009         estimate D2E/DX2                !
 ! R93   R(51,52)                1.3552         estimate D2E/DX2                !
 ! R94   R(51,55)                1.4262         estimate D2E/DX2                !
 ! R95   R(52,56)                1.4262         estimate D2E/DX2                !
 ! R96   R(53,55)                1.4161         estimate D2E/DX2                !
 ! R97   R(54,56)                1.4161         estimate D2E/DX2                !
 ! R98   R(55,83)                1.4139         estimate D2E/DX2                !
 ! R99   R(56,84)                1.4139         estimate D2E/DX2                !
 ! R100  R(57,59)                1.4255         estimate D2E/DX2                !
 ! R101  R(57,83)                1.4128         estimate D2E/DX2                !
 ! R102  R(58,60)                1.4255         estimate D2E/DX2                !
 ! R103  R(58,84)                1.4128         estimate D2E/DX2                !
 ! R104  R(59,60)                1.3533         estimate D2E/DX2                !
 ! R105  R(59,61)                1.5015         estimate D2E/DX2                !
 ! R106  R(60,62)                1.5015         estimate D2E/DX2                !
 ! R107  R(61,63)                1.5285         estimate D2E/DX2                !
 ! R108  R(61,89)                1.798          estimate D2E/DX2                !
 ! R109  R(62,64)                1.5285         estimate D2E/DX2                !
 ! R110  R(62,90)                1.798          estimate D2E/DX2                !
 ! R111  R(63,64)                1.4024         estimate D2E/DX2                !
 ! R112  R(63,65)                1.4013         estimate D2E/DX2                !
 ! R113  R(64,66)                1.4013         estimate D2E/DX2                !
 ! R114  R(65,67)                1.4038         estimate D2E/DX2                !
 ! R115  R(66,68)                1.4038         estimate D2E/DX2                !
 ! R116  R(67,68)                1.4012         estimate D2E/DX2                !
 ! R117  R(67,69)                1.5305         estimate D2E/DX2                !
 ! R118  R(68,70)                1.5305         estimate D2E/DX2                !
 ! R119  R(69,71)                1.5017         estimate D2E/DX2                !
 ! R120  R(69,86)                1.7984         estimate D2E/DX2                !
 ! R121  R(70,72)                1.5017         estimate D2E/DX2                !
 ! R122  R(70,87)                1.7984         estimate D2E/DX2                !
 ! R123  R(71,72)                1.3547         estimate D2E/DX2                !
 ! R124  R(71,73)                1.4334         estimate D2E/DX2                !
 ! R125  R(72,74)                1.4334         estimate D2E/DX2                !
 ! R126  R(73,75)                1.388          estimate D2E/DX2                !
 ! R127  R(74,76)                1.388          estimate D2E/DX2                !
 ! R128  R(75,76)                1.4343         estimate D2E/DX2                !
 ! R129  R(75,77)                1.4169         estimate D2E/DX2                !
 ! R130  R(76,78)                1.4169         estimate D2E/DX2                !
 ! R131  R(77,81)                1.4554         estimate D2E/DX2                !
 ! R132  R(78,81)                1.4554         estimate D2E/DX2                !
 ! R133  R(79,82)                1.4972         estimate D2E/DX2                !
 ! R134  R(79,94)                1.8156         estimate D2E/DX2                !
 ! R135  R(80,82)                1.4972         estimate D2E/DX2                !
 ! R136  R(80,96)                1.8156         estimate D2E/DX2                !
 ! R137  R(81,82)                1.3407         estimate D2E/DX2                !
 ! R138  R(83,84)                1.4304         estimate D2E/DX2                !
 ! A1    A(5,1,17)             121.7968         estimate D2E/DX2                !
 ! A2    A(5,1,25)             108.2888         estimate D2E/DX2                !
 ! A3    A(17,1,25)            121.6508         estimate D2E/DX2                !
 ! A4    A(6,2,43)             101.6684         estimate D2E/DX2                !
 ! A5    A(6,2,44)             109.7733         estimate D2E/DX2                !
 ! A6    A(6,2,93)             113.2889         estimate D2E/DX2                !
 ! A7    A(43,2,44)            109.3839         estimate D2E/DX2                !
 ! A8    A(43,2,93)            112.2878         estimate D2E/DX2                !
 ! A9    A(44,2,93)            110.1232         estimate D2E/DX2                !
 ! A10   A(7,3,18)             121.7967         estimate D2E/DX2                !
 ! A11   A(7,3,26)             108.2889         estimate D2E/DX2                !
 ! A12   A(18,3,26)            121.6507         estimate D2E/DX2                !
 ! A13   A(8,4,45)             109.7736         estimate D2E/DX2                !
 ! A14   A(8,4,46)             101.6683         estimate D2E/DX2                !
 ! A15   A(8,4,95)             113.2885         estimate D2E/DX2                !
 ! A16   A(45,4,46)            109.3844         estimate D2E/DX2                !
 ! A17   A(45,4,95)            110.1234         estimate D2E/DX2                !
 ! A18   A(46,4,95)            112.2873         estimate D2E/DX2                !
 ! A19   A(1,5,9)              121.671          estimate D2E/DX2                !
 ! A20   A(1,5,29)             108.3194         estimate D2E/DX2                !
 ! A21   A(9,5,29)             121.2665         estimate D2E/DX2                !
 ! A22   A(2,6,10)             122.3214         estimate D2E/DX2                !
 ! A23   A(2,6,15)             110.3364         estimate D2E/DX2                !
 ! A24   A(10,6,15)            120.0148         estimate D2E/DX2                !
 ! A25   A(3,7,12)             121.671          estimate D2E/DX2                !
 ! A26   A(3,7,30)             108.3193         estimate D2E/DX2                !
 ! A27   A(12,7,30)            121.2665         estimate D2E/DX2                !
 ! A28   A(4,8,11)             122.3214         estimate D2E/DX2                !
 ! A29   A(4,8,16)             110.3367         estimate D2E/DX2                !
 ! A30   A(11,8,16)            120.0148         estimate D2E/DX2                !
 ! A31   A(5,9,13)             115.9274         estimate D2E/DX2                !
 ! A32   A(5,9,35)             119.8111         estimate D2E/DX2                !
 ! A33   A(13,9,35)            118.8119         estimate D2E/DX2                !
 ! A34   A(6,10,49)            122.8425         estimate D2E/DX2                !
 ! A35   A(6,10,53)            119.6271         estimate D2E/DX2                !
 ! A36   A(49,10,53)           110.6206         estimate D2E/DX2                !
 ! A37   A(8,11,50)            122.8424         estimate D2E/DX2                !
 ! A38   A(8,11,54)            119.6273         estimate D2E/DX2                !
 ! A39   A(50,11,54)           110.6207         estimate D2E/DX2                !
 ! A40   A(7,12,14)            115.9275         estimate D2E/DX2                !
 ! A41   A(7,12,36)            119.8112         estimate D2E/DX2                !
 ! A42   A(14,12,36)           118.8118         estimate D2E/DX2                !
 ! A43   A(9,13,15)            122.2101         estimate D2E/DX2                !
 ! A44   A(9,13,43)            121.1754         estimate D2E/DX2                !
 ! A45   A(15,13,43)           109.3435         estimate D2E/DX2                !
 ! A46   A(12,14,16)           122.21           estimate D2E/DX2                !
 ! A47   A(12,14,46)           121.1756         estimate D2E/DX2                !
 ! A48   A(16,14,46)           109.3435         estimate D2E/DX2                !
 ! A49   A(6,15,13)            108.4793         estimate D2E/DX2                !
 ! A50   A(6,15,17)            121.7498         estimate D2E/DX2                !
 ! A51   A(13,15,17)           121.418          estimate D2E/DX2                !
 ! A52   A(8,16,14)            108.4791         estimate D2E/DX2                !
 ! A53   A(8,16,18)            121.7498         estimate D2E/DX2                !
 ! A54   A(14,16,18)           121.4179         estimate D2E/DX2                !
 ! A55   A(1,17,15)            116.1543         estimate D2E/DX2                !
 ! A56   A(1,17,19)            118.6441         estimate D2E/DX2                !
 ! A57   A(15,17,19)           118.3107         estimate D2E/DX2                !
 ! A58   A(3,18,16)            116.1544         estimate D2E/DX2                !
 ! A59   A(3,18,20)            118.6441         estimate D2E/DX2                !
 ! A60   A(16,18,20)           118.3107         estimate D2E/DX2                !
 ! A61   A(17,19,21)           118.2127         estimate D2E/DX2                !
 ! A62   A(17,19,53)           118.4628         estimate D2E/DX2                !
 ! A63   A(21,19,53)           116.4211         estimate D2E/DX2                !
 ! A64   A(18,20,22)           118.2128         estimate D2E/DX2                !
 ! A65   A(18,20,54)           118.4628         estimate D2E/DX2                !
 ! A66   A(22,20,54)           116.4211         estimate D2E/DX2                !
 ! A67   A(19,21,23)           121.6445         estimate D2E/DX2                !
 ! A68   A(19,21,57)           121.615          estimate D2E/DX2                !
 ! A69   A(23,21,57)           108.3928         estimate D2E/DX2                !
 ! A70   A(20,22,24)           121.6446         estimate D2E/DX2                !
 ! A71   A(20,22,58)           121.6149         estimate D2E/DX2                !
 ! A72   A(24,22,58)           108.3929         estimate D2E/DX2                !
 ! A73   A(21,23,25)           120.0587         estimate D2E/DX2                !
 ! A74   A(21,23,61)           111.1622         estimate D2E/DX2                !
 ! A75   A(25,23,61)           121.4035         estimate D2E/DX2                !
 ! A76   A(22,24,26)           120.0585         estimate D2E/DX2                !
 ! A77   A(22,24,62)           111.1621         estimate D2E/DX2                !
 ! A78   A(26,24,62)           121.4035         estimate D2E/DX2                !
 ! A79   A(1,25,23)            119.7691         estimate D2E/DX2                !
 ! A80   A(1,25,27)            111.1354         estimate D2E/DX2                !
 ! A81   A(23,25,27)           121.5508         estimate D2E/DX2                !
 ! A82   A(3,26,24)            119.7693         estimate D2E/DX2                !
 ! A83   A(3,26,28)            111.1354         estimate D2E/DX2                !
 ! A84   A(24,26,28)           121.5509         estimate D2E/DX2                !
 ! A85   A(25,27,29)           100.8096         estimate D2E/DX2                !
 ! A86   A(25,27,65)           109.8365         estimate D2E/DX2                !
 ! A87   A(25,27,85)           113.7458         estimate D2E/DX2                !
 ! A88   A(29,27,65)           108.8202         estimate D2E/DX2                !
 ! A89   A(29,27,85)           114.341          estimate D2E/DX2                !
 ! A90   A(65,27,85)           108.9807         estimate D2E/DX2                !
 ! A91   A(26,28,30)           100.8097         estimate D2E/DX2                !
 ! A92   A(26,28,66)           109.8364         estimate D2E/DX2                !
 ! A93   A(26,28,88)           113.7454         estimate D2E/DX2                !
 ! A94   A(30,28,66)           108.82           estimate D2E/DX2                !
 ! A95   A(30,28,88)           114.3412         estimate D2E/DX2                !
 ! A96   A(66,28,88)           108.9812         estimate D2E/DX2                !
 ! A97   A(5,29,27)            111.4002         estimate D2E/DX2                !
 ! A98   A(5,29,31)            119.3933         estimate D2E/DX2                !
 ! A99   A(27,29,31)           121.9084         estimate D2E/DX2                !
 ! A100  A(7,30,28)            111.4003         estimate D2E/DX2                !
 ! A101  A(7,30,32)            119.3932         estimate D2E/DX2                !
 ! A102  A(28,30,32)           121.9083         estimate D2E/DX2                !
 ! A103  A(29,31,33)           120.2072         estimate D2E/DX2                !
 ! A104  A(29,31,69)           121.1666         estimate D2E/DX2                !
 ! A105  A(33,31,69)           111.5271         estimate D2E/DX2                !
 ! A106  A(30,32,34)           120.2072         estimate D2E/DX2                !
 ! A107  A(30,32,70)           121.1667         estimate D2E/DX2                !
 ! A108  A(34,32,70)           111.527          estimate D2E/DX2                !
 ! A109  A(31,33,35)           122.2251         estimate D2E/DX2                !
 ! A110  A(31,33,73)           107.5102         estimate D2E/DX2                !
 ! A111  A(35,33,73)           121.8063         estimate D2E/DX2                !
 ! A112  A(32,34,36)           122.2252         estimate D2E/DX2                !
 ! A113  A(32,34,74)           107.5102         estimate D2E/DX2                !
 ! A114  A(36,34,74)           121.806          estimate D2E/DX2                !
 ! A115  A(9,35,33)            116.5458         estimate D2E/DX2                !
 ! A116  A(9,35,37)            119.3784         estimate D2E/DX2                !
 ! A117  A(33,35,37)           118.9027         estimate D2E/DX2                !
 ! A118  A(12,36,34)           116.5456         estimate D2E/DX2                !
 ! A119  A(12,36,38)           119.3784         estimate D2E/DX2                !
 ! A120  A(34,36,38)           118.903          estimate D2E/DX2                !
 ! A121  A(35,37,39)           119.7038         estimate D2E/DX2                !
 ! A122  A(35,37,77)           118.0878         estimate D2E/DX2                !
 ! A123  A(39,37,77)           117.7306         estimate D2E/DX2                !
 ! A124  A(36,38,42)           119.704          estimate D2E/DX2                !
 ! A125  A(36,38,78)           118.088          estimate D2E/DX2                !
 ! A126  A(42,38,78)           117.73           estimate D2E/DX2                !
 ! A127  A(37,39,43)           119.6461         estimate D2E/DX2                !
 ! A128  A(37,39,79)           121.5161         estimate D2E/DX2                !
 ! A129  A(43,39,79)           116.5233         estimate D2E/DX2                !
 ! A130  A(41,40,44)           120.8891         estimate D2E/DX2                !
 ! A131  A(41,40,79)           111.4811         estimate D2E/DX2                !
 ! A132  A(44,40,79)           125.2659         estimate D2E/DX2                !
 ! A133  A(40,41,45)           120.8888         estimate D2E/DX2                !
 ! A134  A(40,41,80)           111.4809         estimate D2E/DX2                !
 ! A135  A(45,41,80)           125.2656         estimate D2E/DX2                !
 ! A136  A(38,42,46)           119.646          estimate D2E/DX2                !
 ! A137  A(38,42,80)           121.5164         estimate D2E/DX2                !
 ! A138  A(46,42,80)           116.5234         estimate D2E/DX2                !
 ! A139  A(2,43,13)            109.2089         estimate D2E/DX2                !
 ! A140  A(2,43,39)            125.1915         estimate D2E/DX2                !
 ! A141  A(13,43,39)           121.1379         estimate D2E/DX2                !
 ! A142  A(2,44,40)            116.0155         estimate D2E/DX2                !
 ! A143  A(2,44,47)            123.7022         estimate D2E/DX2                !
 ! A144  A(40,44,47)           119.086          estimate D2E/DX2                !
 ! A145  A(4,45,41)            116.0155         estimate D2E/DX2                !
 ! A146  A(4,45,48)            123.702          estimate D2E/DX2                !
 ! A147  A(41,45,48)           119.086          estimate D2E/DX2                !
 ! A148  A(4,46,14)            109.209          estimate D2E/DX2                !
 ! A149  A(4,46,42)            125.1912         estimate D2E/DX2                !
 ! A150  A(14,46,42)           121.1378         estimate D2E/DX2                !
 ! A151  A(44,47,48)           119.9919         estimate D2E/DX2                !
 ! A152  A(44,47,49)           118.7517         estimate D2E/DX2                !
 ! A153  A(48,47,49)           120.6652         estimate D2E/DX2                !
 ! A154  A(45,48,47)           119.9919         estimate D2E/DX2                !
 ! A155  A(45,48,50)           118.7517         estimate D2E/DX2                !
 ! A156  A(47,48,50)           120.6652         estimate D2E/DX2                !
 ! A157  A(10,49,47)           109.8209         estimate D2E/DX2                !
 ! A158  A(10,49,51)           101.1784         estimate D2E/DX2                !
 ! A159  A(10,49,91)           113.3445         estimate D2E/DX2                !
 ! A160  A(47,49,51)           109.9341         estimate D2E/DX2                !
 ! A161  A(47,49,91)           108.8385         estimate D2E/DX2                !
 ! A162  A(51,49,91)           113.5171         estimate D2E/DX2                !
 ! A163  A(11,50,48)           109.8211         estimate D2E/DX2                !
 ! A164  A(11,50,52)           101.1785         estimate D2E/DX2                !
 ! A165  A(11,50,92)           113.3441         estimate D2E/DX2                !
 ! A166  A(48,50,52)           109.9344         estimate D2E/DX2                !
 ! A167  A(48,50,92)           108.8382         estimate D2E/DX2                !
 ! A168  A(52,50,92)           113.5173         estimate D2E/DX2                !
 ! A169  A(49,51,52)           122.1729         estimate D2E/DX2                !
 ! A170  A(49,51,55)           110.8354         estimate D2E/DX2                !
 ! A171  A(52,51,55)           119.9085         estimate D2E/DX2                !
 ! A172  A(50,52,51)           122.1728         estimate D2E/DX2                !
 ! A173  A(50,52,56)           110.8353         estimate D2E/DX2                !
 ! A174  A(51,52,56)           119.9084         estimate D2E/DX2                !
 ! A175  A(10,53,19)           121.7825         estimate D2E/DX2                !
 ! A176  A(10,53,55)           108.5685         estimate D2E/DX2                !
 ! A177  A(19,53,55)           121.6314         estimate D2E/DX2                !
 ! A178  A(11,54,20)           121.7825         estimate D2E/DX2                !
 ! A179  A(11,54,56)           108.5684         estimate D2E/DX2                !
 ! A180  A(20,54,56)           121.6316         estimate D2E/DX2                !
 ! A181  A(51,55,53)           108.5412         estimate D2E/DX2                !
 ! A182  A(51,55,83)           121.6375         estimate D2E/DX2                !
 ! A183  A(53,55,83)           121.6567         estimate D2E/DX2                !
 ! A184  A(52,56,54)           108.5412         estimate D2E/DX2                !
 ! A185  A(52,56,84)           121.6375         estimate D2E/DX2                !
 ! A186  A(54,56,84)           121.6566         estimate D2E/DX2                !
 ! A187  A(21,57,59)           108.3706         estimate D2E/DX2                !
 ! A188  A(21,57,83)           121.6874         estimate D2E/DX2                !
 ! A189  A(59,57,83)           121.6815         estimate D2E/DX2                !
 ! A190  A(22,58,60)           108.3705         estimate D2E/DX2                !
 ! A191  A(22,58,84)           121.6875         estimate D2E/DX2                !
 ! A192  A(60,58,84)           121.6815         estimate D2E/DX2                !
 ! A193  A(57,59,60)           119.9071         estimate D2E/DX2                !
 ! A194  A(57,59,61)           111.1709         estimate D2E/DX2                !
 ! A195  A(60,59,61)           121.6491         estimate D2E/DX2                !
 ! A196  A(58,60,59)           119.9072         estimate D2E/DX2                !
 ! A197  A(58,60,62)           111.1709         estimate D2E/DX2                !
 ! A198  A(59,60,62)           121.6491         estimate D2E/DX2                !
 ! A199  A(23,61,59)           100.8592         estimate D2E/DX2                !
 ! A200  A(23,61,63)           109.731          estimate D2E/DX2                !
 ! A201  A(23,61,89)           113.9083         estimate D2E/DX2                !
 ! A202  A(59,61,63)           109.8406         estimate D2E/DX2                !
 ! A203  A(59,61,89)           113.7524         estimate D2E/DX2                !
 ! A204  A(63,61,89)           108.5372         estimate D2E/DX2                !
 ! A205  A(24,62,60)           100.8593         estimate D2E/DX2                !
 ! A206  A(24,62,64)           109.7309         estimate D2E/DX2                !
 ! A207  A(24,62,90)           113.9084         estimate D2E/DX2                !
 ! A208  A(60,62,64)           109.8406         estimate D2E/DX2                !
 ! A209  A(60,62,90)           113.7523         estimate D2E/DX2                !
 ! A210  A(64,62,90)           108.5372         estimate D2E/DX2                !
 ! A211  A(61,63,64)           119.9591         estimate D2E/DX2                !
 ! A212  A(61,63,65)           119.9355         estimate D2E/DX2                !
 ! A213  A(64,63,65)           119.8776         estimate D2E/DX2                !
 ! A214  A(62,64,63)           119.959          estimate D2E/DX2                !
 ! A215  A(62,64,66)           119.9357         estimate D2E/DX2                !
 ! A216  A(63,64,66)           119.8776         estimate D2E/DX2                !
 ! A217  A(27,65,63)           119.697          estimate D2E/DX2                !
 ! A218  A(27,65,67)           119.7616         estimate D2E/DX2                !
 ! A219  A(63,65,67)           120.2721         estimate D2E/DX2                !
 ! A220  A(28,66,64)           119.6969         estimate D2E/DX2                !
 ! A221  A(28,66,68)           119.7617         estimate D2E/DX2                !
 ! A222  A(64,66,68)           120.2721         estimate D2E/DX2                !
 ! A223  A(65,67,68)           119.846          estimate D2E/DX2                !
 ! A224  A(65,67,69)           119.7197         estimate D2E/DX2                !
 ! A225  A(68,67,69)           120.2028         estimate D2E/DX2                !
 ! A226  A(66,68,67)           119.846          estimate D2E/DX2                !
 ! A227  A(66,68,70)           119.7197         estimate D2E/DX2                !
 ! A228  A(67,68,70)           120.2028         estimate D2E/DX2                !
 ! A229  A(31,69,67)           108.6153         estimate D2E/DX2                !
 ! A230  A(31,69,71)           101.1895         estimate D2E/DX2                !
 ! A231  A(31,69,86)           114.1793         estimate D2E/DX2                !
 ! A232  A(67,69,71)           110.559          estimate D2E/DX2                !
 ! A233  A(67,69,86)           108.4394         estimate D2E/DX2                !
 ! A234  A(71,69,86)           113.6464         estimate D2E/DX2                !
 ! A235  A(32,70,68)           108.6152         estimate D2E/DX2                !
 ! A236  A(32,70,72)           101.1895         estimate D2E/DX2                !
 ! A237  A(32,70,87)           114.1793         estimate D2E/DX2                !
 ! A238  A(68,70,72)           110.559          estimate D2E/DX2                !
 ! A239  A(68,70,87)           108.4394         estimate D2E/DX2                !
 ! A240  A(72,70,87)           113.6464         estimate D2E/DX2                !
 ! A241  A(69,71,72)           121.8823         estimate D2E/DX2                !
 ! A242  A(69,71,73)           110.1115         estimate D2E/DX2                !
 ! A243  A(72,71,73)           119.6602         estimate D2E/DX2                !
 ! A244  A(70,72,71)           121.8825         estimate D2E/DX2                !
 ! A245  A(70,72,74)           110.1114         estimate D2E/DX2                !
 ! A246  A(71,72,74)           119.6601         estimate D2E/DX2                !
 ! A247  A(33,73,71)           109.2737         estimate D2E/DX2                !
 ! A248  A(33,73,75)           118.8429         estimate D2E/DX2                !
 ! A249  A(71,73,75)           121.4795         estimate D2E/DX2                !
 ! A250  A(34,74,72)           109.2737         estimate D2E/DX2                !
 ! A251  A(34,74,76)           118.8428         estimate D2E/DX2                !
 ! A252  A(72,74,76)           121.4795         estimate D2E/DX2                !
 ! A253  A(73,75,76)           118.8415         estimate D2E/DX2                !
 ! A254  A(73,75,77)           120.3395         estimate D2E/DX2                !
 ! A255  A(76,75,77)           108.969          estimate D2E/DX2                !
 ! A256  A(74,76,75)           118.8416         estimate D2E/DX2                !
 ! A257  A(74,76,78)           120.3399         estimate D2E/DX2                !
 ! A258  A(75,76,78)           108.9688         estimate D2E/DX2                !
 ! A259  A(37,77,75)           121.8441         estimate D2E/DX2                !
 ! A260  A(37,77,81)           120.4457         estimate D2E/DX2                !
 ! A261  A(75,77,81)           106.7094         estimate D2E/DX2                !
 ! A262  A(38,78,76)           121.8437         estimate D2E/DX2                !
 ! A263  A(38,78,81)           120.4462         estimate D2E/DX2                !
 ! A264  A(76,78,81)           106.7095         estimate D2E/DX2                !
 ! A265  A(39,79,40)           109.1969         estimate D2E/DX2                !
 ! A266  A(39,79,82)           113.7067         estimate D2E/DX2                !
 ! A267  A(39,79,94)           110.0291         estimate D2E/DX2                !
 ! A268  A(40,79,82)           100.1051         estimate D2E/DX2                !
 ! A269  A(40,79,94)           111.1539         estimate D2E/DX2                !
 ! A270  A(82,79,94)           112.2636         estimate D2E/DX2                !
 ! A271  A(41,80,42)           109.1972         estimate D2E/DX2                !
 ! A272  A(41,80,82)           100.1053         estimate D2E/DX2                !
 ! A273  A(41,80,96)           111.154          estimate D2E/DX2                !
 ! A274  A(42,80,82)           113.7067         estimate D2E/DX2                !
 ! A275  A(42,80,96)           110.0287         estimate D2E/DX2                !
 ! A276  A(82,80,96)           112.2635         estimate D2E/DX2                !
 ! A277  A(77,81,78)           108.0381         estimate D2E/DX2                !
 ! A278  A(77,81,82)           122.2512         estimate D2E/DX2                !
 ! A279  A(78,81,82)           122.2509         estimate D2E/DX2                !
 ! A280  A(79,82,80)           112.6096         estimate D2E/DX2                !
 ! A281  A(79,82,81)           120.7847         estimate D2E/DX2                !
 ! A282  A(80,82,81)           120.7847         estimate D2E/DX2                !
 ! A283  A(55,83,57)           116.3847         estimate D2E/DX2                !
 ! A284  A(55,83,84)           118.4504         estimate D2E/DX2                !
 ! A285  A(57,83,84)           118.411          estimate D2E/DX2                !
 ! A286  A(56,84,58)           116.3847         estimate D2E/DX2                !
 ! A287  A(56,84,83)           118.4504         estimate D2E/DX2                !
 ! A288  A(58,84,83)           118.4111         estimate D2E/DX2                !
 ! D1    D(17,1,5,9)            -3.0201         estimate D2E/DX2                !
 ! D2    D(17,1,5,29)         -150.8694         estimate D2E/DX2                !
 ! D3    D(25,1,5,9)           145.7551         estimate D2E/DX2                !
 ! D4    D(25,1,5,29)           -2.0942         estimate D2E/DX2                !
 ! D5    D(5,1,17,15)           -5.3739         estimate D2E/DX2                !
 ! D6    D(5,1,17,19)          145.1151         estimate D2E/DX2                !
 ! D7    D(25,1,17,15)        -150.0488         estimate D2E/DX2                !
 ! D8    D(25,1,17,19)           0.4402         estimate D2E/DX2                !
 ! D9    D(5,1,25,23)         -147.9457         estimate D2E/DX2                !
 ! D10   D(5,1,25,27)            2.212          estimate D2E/DX2                !
 ! D11   D(17,1,25,23)           0.8841         estimate D2E/DX2                !
 ! D12   D(17,1,25,27)         151.0418         estimate D2E/DX2                !
 ! D13   D(43,2,6,10)         -141.353          estimate D2E/DX2                !
 ! D14   D(43,2,6,15)            8.6194         estimate D2E/DX2                !
 ! D15   D(44,2,6,10)          -25.6076         estimate D2E/DX2                !
 ! D16   D(44,2,6,15)          124.3649         estimate D2E/DX2                !
 ! D17   D(93,2,6,10)           97.9495         estimate D2E/DX2                !
 ! D18   D(93,2,6,15)         -112.0781         estimate D2E/DX2                !
 ! D19   D(6,2,43,13)           -9.77           estimate D2E/DX2                !
 ! D20   D(6,2,43,39)          146.5424         estimate D2E/DX2                !
 ! D21   D(44,2,43,13)        -125.8009         estimate D2E/DX2                !
 ! D22   D(44,2,43,39)          30.5115         estimate D2E/DX2                !
 ! D23   D(93,2,43,13)         111.6262         estimate D2E/DX2                !
 ! D24   D(93,2,43,39)         -92.0614         estimate D2E/DX2                !
 ! D25   D(6,2,44,40)         -144.8653         estimate D2E/DX2                !
 ! D26   D(6,2,44,47)           22.4875         estimate D2E/DX2                !
 ! D27   D(43,2,44,40)         -34.1136         estimate D2E/DX2                !
 ! D28   D(43,2,44,47)         133.2392         estimate D2E/DX2                !
 ! D29   D(93,2,44,40)          89.7421         estimate D2E/DX2                !
 ! D30   D(93,2,44,47)        -102.9051         estimate D2E/DX2                !
 ! D31   D(18,3,7,12)            3.0201         estimate D2E/DX2                !
 ! D32   D(18,3,7,30)          150.8693         estimate D2E/DX2                !
 ! D33   D(26,3,7,12)         -145.7548         estimate D2E/DX2                !
 ! D34   D(26,3,7,30)            2.0944         estimate D2E/DX2                !
 ! D35   D(7,3,18,16)            5.374          estimate D2E/DX2                !
 ! D36   D(7,3,18,20)         -145.1151         estimate D2E/DX2                !
 ! D37   D(26,3,18,16)         150.0487         estimate D2E/DX2                !
 ! D38   D(26,3,18,20)          -0.4404         estimate D2E/DX2                !
 ! D39   D(7,3,26,24)          147.9458         estimate D2E/DX2                !
 ! D40   D(7,3,26,28)           -2.2122         estimate D2E/DX2                !
 ! D41   D(18,3,26,24)          -0.8837         estimate D2E/DX2                !
 ! D42   D(18,3,26,28)        -151.0418         estimate D2E/DX2                !
 ! D43   D(45,4,8,11)           25.6072         estimate D2E/DX2                !
 ! D44   D(45,4,8,16)         -124.3657         estimate D2E/DX2                !
 ! D45   D(46,4,8,11)          141.3534         estimate D2E/DX2                !
 ! D46   D(46,4,8,16)           -8.6195         estimate D2E/DX2                !
 ! D47   D(95,4,8,11)          -97.9499         estimate D2E/DX2                !
 ! D48   D(95,4,8,16)          112.0771         estimate D2E/DX2                !
 ! D49   D(8,4,45,41)          144.8652         estimate D2E/DX2                !
 ! D50   D(8,4,45,48)          -22.4867         estimate D2E/DX2                !
 ! D51   D(46,4,45,41)          34.1132         estimate D2E/DX2                !
 ! D52   D(46,4,45,48)        -133.2387         estimate D2E/DX2                !
 ! D53   D(95,4,45,41)         -89.7423         estimate D2E/DX2                !
 ! D54   D(95,4,45,48)         102.9057         estimate D2E/DX2                !
 ! D55   D(8,4,46,14)            9.7699         estimate D2E/DX2                !
 ! D56   D(8,4,46,42)         -146.5417         estimate D2E/DX2                !
 ! D57   D(45,4,46,14)         125.8013         estimate D2E/DX2                !
 ! D58   D(45,4,46,42)         -30.5103         estimate D2E/DX2                !
 ! D59   D(95,4,46,14)        -111.6255         estimate D2E/DX2                !
 ! D60   D(95,4,46,42)          92.0629         estimate D2E/DX2                !
 ! D61   D(1,5,9,13)             7.9405         estimate D2E/DX2                !
 ! D62   D(1,5,9,35)          -145.7167         estimate D2E/DX2                !
 ! D63   D(29,5,9,13)          151.7114         estimate D2E/DX2                !
 ! D64   D(29,5,9,35)           -1.9457         estimate D2E/DX2                !
 ! D65   D(1,5,29,27)            1.2434         estimate D2E/DX2                !
 ! D66   D(1,5,29,31)          151.9757         estimate D2E/DX2                !
 ! D67   D(9,5,29,27)         -146.7611         estimate D2E/DX2                !
 ! D68   D(9,5,29,31)            3.9712         estimate D2E/DX2                !
 ! D69   D(2,6,10,49)           -0.503          estimate D2E/DX2                !
 ! D70   D(2,6,10,53)          147.6354         estimate D2E/DX2                !
 ! D71   D(15,6,10,49)        -147.6903         estimate D2E/DX2                !
 ! D72   D(15,6,10,53)           0.4481         estimate D2E/DX2                !
 ! D73   D(2,6,15,13)           -4.5303         estimate D2E/DX2                !
 ! D74   D(2,6,15,17)         -153.0853         estimate D2E/DX2                !
 ! D75   D(10,6,15,13)         146.2358         estimate D2E/DX2                !
 ! D76   D(10,6,15,17)          -2.3192         estimate D2E/DX2                !
 ! D77   D(3,7,12,14)           -7.9406         estimate D2E/DX2                !
 ! D78   D(3,7,12,36)          145.7166         estimate D2E/DX2                !
 ! D79   D(30,7,12,14)        -151.7113         estimate D2E/DX2                !
 ! D80   D(30,7,12,36)           1.9458         estimate D2E/DX2                !
 ! D81   D(3,7,30,28)           -1.2435         estimate D2E/DX2                !
 ! D82   D(3,7,30,32)         -151.9755         estimate D2E/DX2                !
 ! D83   D(12,7,30,28)         146.7609         estimate D2E/DX2                !
 ! D84   D(12,7,30,32)          -3.9711         estimate D2E/DX2                !
 ! D85   D(4,8,11,50)            0.503          estimate D2E/DX2                !
 ! D86   D(4,8,11,54)         -147.6357         estimate D2E/DX2                !
 ! D87   D(16,8,11,50)         147.6909         estimate D2E/DX2                !
 ! D88   D(16,8,11,54)          -0.4478         estimate D2E/DX2                !
 ! D89   D(4,8,16,14)            4.5306         estimate D2E/DX2                !
 ! D90   D(4,8,16,18)          153.0853         estimate D2E/DX2                !
 ! D91   D(11,8,16,14)        -146.236          estimate D2E/DX2                !
 ! D92   D(11,8,16,18)           2.3187         estimate D2E/DX2                !
 ! D93   D(5,9,13,15)           -4.6388         estimate D2E/DX2                !
 ! D94   D(5,9,13,43)         -151.6438         estimate D2E/DX2                !
 ! D95   D(35,9,13,15)         149.2944         estimate D2E/DX2                !
 ! D96   D(35,9,13,43)           2.2894         estimate D2E/DX2                !
 ! D97   D(5,9,35,33)           -4.1579         estimate D2E/DX2                !
 ! D98   D(5,9,35,37)          150.1671         estimate D2E/DX2                !
 ! D99   D(13,9,35,33)        -157.0632         estimate D2E/DX2                !
 ! D100  D(13,9,35,37)          -2.7383         estimate D2E/DX2                !
 ! D101  D(6,10,49,47)          29.559          estimate D2E/DX2                !
 ! D102  D(6,10,49,51)         145.7039         estimate D2E/DX2                !
 ! D103  D(6,10,49,91)         -92.4059         estimate D2E/DX2                !
 ! D104  D(53,10,49,47)       -121.083          estimate D2E/DX2                !
 ! D105  D(53,10,49,51)         -4.938          estimate D2E/DX2                !
 ! D106  D(53,10,49,91)        116.9522         estimate D2E/DX2                !
 ! D107  D(6,10,53,19)           1.0208         estimate D2E/DX2                !
 ! D108  D(6,10,53,55)        -148.1821         estimate D2E/DX2                !
 ! D109  D(49,10,53,19)        152.736          estimate D2E/DX2                !
 ! D110  D(49,10,53,55)          3.5331         estimate D2E/DX2                !
 ! D111  D(8,11,50,48)         -29.5589         estimate D2E/DX2                !
 ! D112  D(8,11,50,52)        -145.7043         estimate D2E/DX2                !
 ! D113  D(8,11,50,92)          92.4054         estimate D2E/DX2                !
 ! D114  D(54,11,50,48)        121.0833         estimate D2E/DX2                !
 ! D115  D(54,11,50,52)          4.9379         estimate D2E/DX2                !
 ! D116  D(54,11,50,92)       -116.9523         estimate D2E/DX2                !
 ! D117  D(8,11,54,20)          -1.0207         estimate D2E/DX2                !
 ! D118  D(8,11,54,56)         148.1822         estimate D2E/DX2                !
 ! D119  D(50,11,54,20)       -152.736          estimate D2E/DX2                !
 ! D120  D(50,11,54,56)         -3.5331         estimate D2E/DX2                !
 ! D121  D(7,12,14,16)           4.6388         estimate D2E/DX2                !
 ! D122  D(7,12,14,46)         151.644          estimate D2E/DX2                !
 ! D123  D(36,12,14,16)       -149.2945         estimate D2E/DX2                !
 ! D124  D(36,12,14,46)         -2.2893         estimate D2E/DX2                !
 ! D125  D(7,12,36,34)           4.158          estimate D2E/DX2                !
 ! D126  D(7,12,36,38)        -150.1673         estimate D2E/DX2                !
 ! D127  D(14,12,36,34)        157.0634         estimate D2E/DX2                !
 ! D128  D(14,12,36,38)          2.7381         estimate D2E/DX2                !
 ! D129  D(9,13,15,6)         -152.4516         estimate D2E/DX2                !
 ! D130  D(9,13,15,17)          -3.7721         estimate D2E/DX2                !
 ! D131  D(43,13,15,6)          -2.0421         estimate D2E/DX2                !
 ! D132  D(43,13,15,17)        146.6374         estimate D2E/DX2                !
 ! D133  D(9,13,43,2)          158.4952         estimate D2E/DX2                !
 ! D134  D(9,13,43,39)           1.0512         estimate D2E/DX2                !
 ! D135  D(15,13,43,2)           7.7256         estimate D2E/DX2                !
 ! D136  D(15,13,43,39)       -149.7184         estimate D2E/DX2                !
 ! D137  D(12,14,16,8)         152.4514         estimate D2E/DX2                !
 ! D138  D(12,14,16,18)          3.7722         estimate D2E/DX2                !
 ! D139  D(46,14,16,8)           2.0417         estimate D2E/DX2                !
 ! D140  D(46,14,16,18)       -146.6374         estimate D2E/DX2                !
 ! D141  D(12,14,46,4)        -158.4949         estimate D2E/DX2                !
 ! D142  D(12,14,46,42)         -1.0518         estimate D2E/DX2                !
 ! D143  D(16,14,46,4)          -7.7252         estimate D2E/DX2                !
 ! D144  D(16,14,46,42)        149.7179         estimate D2E/DX2                !
 ! D145  D(6,15,17,1)          153.2315         estimate D2E/DX2                !
 ! D146  D(6,15,17,19)           2.6403         estimate D2E/DX2                !
 ! D147  D(13,15,17,1)           8.6668         estimate D2E/DX2                !
 ! D148  D(13,15,17,19)       -141.9244         estimate D2E/DX2                !
 ! D149  D(8,16,18,3)         -153.2311         estimate D2E/DX2                !
 ! D150  D(8,16,18,20)          -2.6399         estimate D2E/DX2                !
 ! D151  D(14,16,18,3)          -8.667          estimate D2E/DX2                !
 ! D152  D(14,16,18,20)        141.9243         estimate D2E/DX2                !
 ! D153  D(1,17,19,21)          -1.0897         estimate D2E/DX2                !
 ! D154  D(1,17,19,53)        -150.9972         estimate D2E/DX2                !
 ! D155  D(15,17,19,21)        148.7628         estimate D2E/DX2                !
 ! D156  D(15,17,19,53)         -1.1446         estimate D2E/DX2                !
 ! D157  D(3,18,20,22)           1.0898         estimate D2E/DX2                !
 ! D158  D(3,18,20,54)         150.9974         estimate D2E/DX2                !
 ! D159  D(16,18,20,22)       -148.7629         estimate D2E/DX2                !
 ! D160  D(16,18,20,54)          1.1447         estimate D2E/DX2                !
 ! D161  D(17,19,21,23)          0.4985         estimate D2E/DX2                !
 ! D162  D(17,19,21,57)       -144.0479         estimate D2E/DX2                !
 ! D163  D(53,19,21,23)        151.0129         estimate D2E/DX2                !
 ! D164  D(53,19,21,57)          6.4666         estimate D2E/DX2                !
 ! D165  D(17,19,53,10)         -0.6502         estimate D2E/DX2                !
 ! D166  D(17,19,53,55)        144.5975         estimate D2E/DX2                !
 ! D167  D(21,19,53,10)       -151.0883         estimate D2E/DX2                !
 ! D168  D(21,19,53,55)         -5.8406         estimate D2E/DX2                !
 ! D169  D(18,20,22,24)         -0.4986         estimate D2E/DX2                !
 ! D170  D(18,20,22,58)        144.048          estimate D2E/DX2                !
 ! D171  D(54,20,22,24)       -151.0131         estimate D2E/DX2                !
 ! D172  D(54,20,22,58)         -6.4666         estimate D2E/DX2                !
 ! D173  D(18,20,54,11)          0.6499         estimate D2E/DX2                !
 ! D174  D(18,20,54,56)       -144.5977         estimate D2E/DX2                !
 ! D175  D(22,20,54,11)        151.088          estimate D2E/DX2                !
 ! D176  D(22,20,54,56)          5.8405         estimate D2E/DX2                !
 ! D177  D(19,21,23,25)          0.8246         estimate D2E/DX2                !
 ! D178  D(19,21,23,61)       -149.5866         estimate D2E/DX2                !
 ! D179  D(57,21,23,25)        149.4553         estimate D2E/DX2                !
 ! D180  D(57,21,23,61)         -0.9559         estimate D2E/DX2                !
 ! D181  D(19,21,57,59)        148.1959         estimate D2E/DX2                !
 ! D182  D(19,21,57,83)         -0.6024         estimate D2E/DX2                !
 ! D183  D(23,21,57,59)         -0.4458         estimate D2E/DX2                !
 ! D184  D(23,21,57,83)       -149.2442         estimate D2E/DX2                !
 ! D185  D(20,22,24,26)         -0.8243         estimate D2E/DX2                !
 ! D186  D(20,22,24,62)        149.5865         estimate D2E/DX2                !
 ! D187  D(58,22,24,26)       -149.4551         estimate D2E/DX2                !
 ! D188  D(58,22,24,62)          0.9556         estimate D2E/DX2                !
 ! D189  D(20,22,58,60)       -148.1959         estimate D2E/DX2                !
 ! D190  D(20,22,58,84)          0.6024         estimate D2E/DX2                !
 ! D191  D(24,22,58,60)          0.4461         estimate D2E/DX2                !
 ! D192  D(24,22,58,84)        149.2443         estimate D2E/DX2                !
 ! D193  D(21,23,25,1)          -1.4951         estimate D2E/DX2                !
 ! D194  D(21,23,25,27)       -148.4942         estimate D2E/DX2                !
 ! D195  D(61,23,25,1)         145.8554         estimate D2E/DX2                !
 ! D196  D(61,23,25,27)         -1.1437         estimate D2E/DX2                !
 ! D197  D(21,23,61,59)          1.8335         estimate D2E/DX2                !
 ! D198  D(21,23,61,63)        117.6794         estimate D2E/DX2                !
 ! D199  D(21,23,61,89)       -120.4198         estimate D2E/DX2                !
 ! D200  D(25,23,61,59)       -148.1195         estimate D2E/DX2                !
 ! D201  D(25,23,61,63)        -32.2736         estimate D2E/DX2                !
 ! D202  D(25,23,61,89)         89.6271         estimate D2E/DX2                !
 ! D203  D(22,24,26,3)           1.4947         estimate D2E/DX2                !
 ! D204  D(22,24,26,28)        148.4941         estimate D2E/DX2                !
 ! D205  D(62,24,26,3)        -145.8552         estimate D2E/DX2                !
 ! D206  D(62,24,26,28)          1.1442         estimate D2E/DX2                !
 ! D207  D(22,24,62,60)         -1.8333         estimate D2E/DX2                !
 ! D208  D(22,24,62,64)       -117.6792         estimate D2E/DX2                !
 ! D209  D(22,24,62,90)        120.42           estimate D2E/DX2                !
 ! D210  D(26,24,62,60)        148.1191         estimate D2E/DX2                !
 ! D211  D(26,24,62,64)         32.2733         estimate D2E/DX2                !
 ! D212  D(26,24,62,90)        -89.6275         estimate D2E/DX2                !
 ! D213  D(1,25,27,29)          -1.3765         estimate D2E/DX2                !
 ! D214  D(1,25,27,65)        -116.0862         estimate D2E/DX2                !
 ! D215  D(1,25,27,85)         121.472          estimate D2E/DX2                !
 ! D216  D(23,25,27,29)        148.1677         estimate D2E/DX2                !
 ! D217  D(23,25,27,65)         33.458          estimate D2E/DX2                !
 ! D218  D(23,25,27,85)        -88.9838         estimate D2E/DX2                !
 ! D219  D(3,26,28,30)           1.3766         estimate D2E/DX2                !
 ! D220  D(3,26,28,66)         116.086          estimate D2E/DX2                !
 ! D221  D(3,26,28,88)        -121.4719         estimate D2E/DX2                !
 ! D222  D(24,26,28,30)       -148.168          estimate D2E/DX2                !
 ! D223  D(24,26,28,66)        -33.4585         estimate D2E/DX2                !
 ! D224  D(24,26,28,88)         88.9836         estimate D2E/DX2                !
 ! D225  D(25,27,29,5)           0.0707         estimate D2E/DX2                !
 ! D226  D(25,27,29,31)       -149.8116         estimate D2E/DX2                !
 ! D227  D(65,27,29,5)         115.5418         estimate D2E/DX2                !
 ! D228  D(65,27,29,31)        -34.3405         estimate D2E/DX2                !
 ! D229  D(85,27,29,5)        -122.3631         estimate D2E/DX2                !
 ! D230  D(85,27,29,31)         87.7546         estimate D2E/DX2                !
 ! D231  D(25,27,65,63)        -31.5635         estimate D2E/DX2                !
 ! D232  D(25,27,65,67)        142.4926         estimate D2E/DX2                !
 ! D233  D(29,27,65,63)       -141.0501         estimate D2E/DX2                !
 ! D234  D(29,27,65,67)         33.006          estimate D2E/DX2                !
 ! D235  D(85,27,65,63)         93.6602         estimate D2E/DX2                !
 ! D236  D(85,27,65,67)        -92.2837         estimate D2E/DX2                !
 ! D237  D(26,28,30,7)          -0.0707         estimate D2E/DX2                !
 ! D238  D(26,28,30,32)        149.8113         estimate D2E/DX2                !
 ! D239  D(66,28,30,7)        -115.5415         estimate D2E/DX2                !
 ! D240  D(66,28,30,32)         34.3404         estimate D2E/DX2                !
 ! D241  D(88,28,30,7)         122.3628         estimate D2E/DX2                !
 ! D242  D(88,28,30,32)        -87.7552         estimate D2E/DX2                !
 ! D243  D(26,28,66,64)         31.5639         estimate D2E/DX2                !
 ! D244  D(26,28,66,68)       -142.4927         estimate D2E/DX2                !
 ! D245  D(30,28,66,64)        141.0504         estimate D2E/DX2                !
 ! D246  D(30,28,66,68)        -33.0062         estimate D2E/DX2                !
 ! D247  D(88,28,66,64)        -93.6596         estimate D2E/DX2                !
 ! D248  D(88,28,66,68)         92.2838         estimate D2E/DX2                !
 ! D249  D(5,29,31,33)           0.3256         estimate D2E/DX2                !
 ! D250  D(5,29,31,69)        -147.7055         estimate D2E/DX2                !
 ! D251  D(27,29,31,33)        147.8997         estimate D2E/DX2                !
 ! D252  D(27,29,31,69)         -0.1314         estimate D2E/DX2                !
 ! D253  D(7,30,32,34)          -0.3259         estimate D2E/DX2                !
 ! D254  D(7,30,32,70)         147.7054         estimate D2E/DX2                !
 ! D255  D(28,30,32,34)       -147.8997         estimate D2E/DX2                !
 ! D256  D(28,30,32,70)          0.1316         estimate D2E/DX2                !
 ! D257  D(29,31,33,35)         -6.8391         estimate D2E/DX2                !
 ! D258  D(29,31,33,73)       -155.2864         estimate D2E/DX2                !
 ! D259  D(69,31,33,35)        144.0165         estimate D2E/DX2                !
 ! D260  D(69,31,33,73)         -4.4308         estimate D2E/DX2                !
 ! D261  D(29,31,69,67)         34.9706         estimate D2E/DX2                !
 ! D262  D(29,31,69,71)        151.3536         estimate D2E/DX2                !
 ! D263  D(29,31,69,86)        -86.1668         estimate D2E/DX2                !
 ! D264  D(33,31,69,67)       -115.5655         estimate D2E/DX2                !
 ! D265  D(33,31,69,71)          0.8175         estimate D2E/DX2                !
 ! D266  D(33,31,69,86)        123.2971         estimate D2E/DX2                !
 ! D267  D(30,32,34,36)          6.8396         estimate D2E/DX2                !
 ! D268  D(30,32,34,74)        155.2866         estimate D2E/DX2                !
 ! D269  D(70,32,34,36)       -144.0163         estimate D2E/DX2                !
 ! D270  D(70,32,34,74)          4.4307         estimate D2E/DX2                !
 ! D271  D(30,32,70,68)        -34.9707         estimate D2E/DX2                !
 ! D272  D(30,32,70,72)       -151.3537         estimate D2E/DX2                !
 ! D273  D(30,32,70,87)         86.1667         estimate D2E/DX2                !
 ! D274  D(34,32,70,68)        115.5655         estimate D2E/DX2                !
 ! D275  D(34,32,70,72)         -0.8175         estimate D2E/DX2                !
 ! D276  D(34,32,70,87)       -123.297          estimate D2E/DX2                !
 ! D277  D(31,33,35,9)           8.5758         estimate D2E/DX2                !
 ! D278  D(31,33,35,37)       -145.8763         estimate D2E/DX2                !
 ! D279  D(73,33,35,9)         152.6163         estimate D2E/DX2                !
 ! D280  D(73,33,35,37)         -1.8358         estimate D2E/DX2                !
 ! D281  D(31,33,73,71)          6.3573         estimate D2E/DX2                !
 ! D282  D(31,33,73,75)        151.8571         estimate D2E/DX2                !
 ! D283  D(35,33,73,71)       -142.2503         estimate D2E/DX2                !
 ! D284  D(35,33,73,75)          3.2495         estimate D2E/DX2                !
 ! D285  D(32,34,36,12)         -8.5762         estimate D2E/DX2                !
 ! D286  D(32,34,36,38)        145.8762         estimate D2E/DX2                !
 ! D287  D(74,34,36,12)       -152.6164         estimate D2E/DX2                !
 ! D288  D(74,34,36,38)          1.836          estimate D2E/DX2                !
[...]
 Alpha virt. eigenvalues --    1.36351   1.36787   1.37423   1.37504   1.37641
 Alpha virt. eigenvalues --    1.38089   1.38693   1.39204   1.40179   1.40318
 Alpha virt. eigenvalues --    1.41058   1.41518   1.41725   1.42884   1.42909
 Alpha virt. eigenvalues --    1.43311   1.43420   1.44605   1.45409   1.45786
 Alpha virt. eigenvalues --    1.45926   1.47029   1.47127   1.47320   1.47598
 Alpha virt. eigenvalues --    1.47860   1.48939   1.49005   1.49274   1.49733
 Alpha virt. eigenvalues --    1.50800   1.51031   1.51536   1.52125   1.52640
 Alpha virt. eigenvalues --    1.53137   1.53450   1.53814   1.54911   1.55894
 Alpha virt. eigenvalues --    1.55974   1.56299   1.56889   1.57157   1.58006
 Alpha virt. eigenvalues --    1.58763   1.59196   1.59920   1.60288   1.60373
 Alpha virt. eigenvalues --    1.61005   1.61382   1.61889   1.62331   1.62605
 Alpha virt. eigenvalues --    1.62870   1.63435   1.63758   1.64126   1.64241
 Alpha virt. eigenvalues --    1.64293   1.64457   1.64667   1.64795   1.65329
 Alpha virt. eigenvalues --    1.65461   1.65726   1.65848   1.66114   1.66218
 Alpha virt. eigenvalues --    1.66218   1.66696   1.66849   1.67083   1.67387
 Alpha virt. eigenvalues --    1.67593   1.67806   1.68055   1.68056   1.68405
 Alpha virt. eigenvalues --    1.68650   1.68705   1.69241   1.69327   1.69780
 Alpha virt. eigenvalues --    1.69967   1.70013   1.70283   1.70602   1.70905
 Alpha virt. eigenvalues --    1.71487   1.71740   1.71865   1.71877   1.72316
 Alpha virt. eigenvalues --    1.72377   1.72686   1.72980   1.73312   1.73499
 Alpha virt. eigenvalues --    1.74048   1.74131   1.74370   1.74889   1.75147
 Alpha virt. eigenvalues --    1.75450   1.75489   1.75837   1.75969   1.76294
 Alpha virt. eigenvalues --    1.76923   1.76989   1.77008   1.77073   1.77391
 Alpha virt. eigenvalues --    1.77594   1.77749   1.77864   1.78081   1.78486
 Alpha virt. eigenvalues --    1.78708   1.78788   1.78851   1.78979   1.79084
 Alpha virt. eigenvalues --    1.79297   1.79366   1.79637   1.80280   1.80609
 Alpha virt. eigenvalues --    1.80886   1.81115   1.81274   1.81319   1.81564
 Alpha virt. eigenvalues --    1.81783   1.82149   1.82782   1.82795   1.83205
 Alpha virt. eigenvalues --    1.83668   1.83947   1.84124   1.84456   1.85129
 Alpha virt. eigenvalues --    1.85718   1.85843   1.86872   1.86891   1.87061
 Alpha virt. eigenvalues --    1.87266   1.87552   1.87777   1.88053   1.88601
 Alpha virt. eigenvalues --    1.88624   1.88923   1.89059   1.89387   1.89460
 Alpha virt. eigenvalues --    1.90054   1.90509   1.90517   1.91139   1.91486
 Alpha virt. eigenvalues --    1.92319   1.92514   1.92703   1.93011   1.93402
 Alpha virt. eigenvalues --    1.94310   1.94328   1.94546   1.94671   1.94936
 Alpha virt. eigenvalues --    1.95064   1.95161   1.95958   1.96522   1.96839
 Alpha virt. eigenvalues --    1.96847   1.97245   1.97977   1.98089   1.98441
 Alpha virt. eigenvalues --    1.98478   1.98933   1.99474   1.99658   2.00221
 Alpha virt. eigenvalues --    2.00476   2.00723   2.00978   2.01076   2.01427
 Alpha virt. eigenvalues --    2.02075   2.02197   2.02332   2.02385   2.02708
 Alpha virt. eigenvalues --    2.03005   2.03243   2.03627   2.04184   2.04186
 Alpha virt. eigenvalues --    2.04939   2.05046   2.06301   2.06308   2.06908
 Alpha virt. eigenvalues --    2.07110   2.07464   2.07963   2.08314   2.08680
 Alpha virt. eigenvalues --    2.08796   2.09505   2.09920   2.10296   2.10357
 Alpha virt. eigenvalues --    2.10782   2.11328   2.11526   2.11690   2.11859
 Alpha virt. eigenvalues --    2.12085   2.12704   2.13366   2.13996   2.14375
 Alpha virt. eigenvalues --    2.14643   2.15162   2.15942   2.16121   2.16522
 Alpha virt. eigenvalues --    2.17014   2.17291   2.17371   2.17553   2.17688
 Alpha virt. eigenvalues --    2.18538   2.19014   2.19496   2.19759   2.20275
 Alpha virt. eigenvalues --    2.20553   2.21058   2.21332   2.21910   2.22178
 Alpha virt. eigenvalues --    2.22528   2.23024   2.23276   2.23293   2.24051
 Alpha virt. eigenvalues --    2.24371   2.25191   2.25292   2.25675   2.26013
 Alpha virt. eigenvalues --    2.26187   2.26697   2.27157   2.27849   2.27907
 Alpha virt. eigenvalues --    2.28464   2.29288   2.29291   2.29668   2.29809
 Alpha virt. eigenvalues --    2.29939   2.30703   2.31160   2.31719   2.32324
 Alpha virt. eigenvalues --    2.32828   2.33801   2.34439   2.34938   2.34947
 Alpha virt. eigenvalues --    2.35565   2.35665   2.35866   2.37198   2.37363
 Alpha virt. eigenvalues --    2.38038   2.38832   2.39075   2.39416   2.40306
 Alpha virt. eigenvalues --    2.40458   2.40901   2.41134   2.41744   2.42015
 Alpha virt. eigenvalues --    2.42460   2.42834   2.42923   2.43640   2.44585
 Alpha virt. eigenvalues --    2.44613   2.44847   2.45298   2.45757   2.46163
 Alpha virt. eigenvalues --    2.46874   2.47980   2.48671   2.49132   2.49757
 Alpha virt. eigenvalues --    2.50322   2.51278   2.51669   2.51677   2.52067
 Alpha virt. eigenvalues --    2.52709   2.52866   2.53085   2.53232   2.54114
 Alpha virt. eigenvalues --    2.54315   2.54513   2.54630   2.55419   2.56112
 Alpha virt. eigenvalues --    2.56176   2.56631   2.56782   2.57101   2.57134
 Alpha virt. eigenvalues --    2.57258   2.57606   2.58009   2.58826   2.58984
 Alpha virt. eigenvalues --    2.59430   2.59803   2.60018   2.60639   2.60896
 Alpha virt. eigenvalues --    2.60989   2.61596   2.62484   2.62727   2.62804
 Alpha virt. eigenvalues --    2.63014   2.63262   2.63333   2.63621   2.64289
 Alpha virt. eigenvalues --    2.64390   2.64655   2.64764   2.65474   2.65956
 Alpha virt. eigenvalues --    2.66257   2.66784   2.66909   2.66975   2.67782
 Alpha virt. eigenvalues --    2.68074   2.68508   2.68927   2.69614   2.69924
 Alpha virt. eigenvalues --    2.70143   2.70313   2.70934   2.71516   2.71638
 Alpha virt. eigenvalues --    2.71778   2.71838   2.72175   2.72832   2.72847
 Alpha virt. eigenvalues --    2.73201   2.73549   2.74663   2.74773   2.74902
 Alpha virt. eigenvalues --    2.75083   2.75490   2.75838   2.76231   2.76390
 Alpha virt. eigenvalues --    2.76495   2.77311   2.77913   2.78153   2.79011
 Alpha virt. eigenvalues --    2.79337   2.79536   2.80212   2.80662   2.81286
 Alpha virt. eigenvalues --    2.81618   2.82188   2.82272   2.83178   2.83282
 Alpha virt. eigenvalues --    2.83840   2.85144   2.85750   2.86513   2.87171
 Alpha virt. eigenvalues --    2.87871   2.87888   2.88471   2.88548   2.88664
 Alpha virt. eigenvalues --    2.89409   2.90195   2.90493   2.90859   2.91331
 Alpha virt. eigenvalues --    2.91524   2.92367   2.92607   2.92857   2.93834
 Alpha virt. eigenvalues --    2.93850   2.94106   2.94533   2.95203   2.95679
 Alpha virt. eigenvalues --    2.97121   2.97249   2.99553   3.00019   3.01207
 Alpha virt. eigenvalues --    3.01647   3.02617   3.03752   3.05524   3.08068
 Alpha virt. eigenvalues --    3.09061   3.09620   3.11244   3.11410   3.11579
 Alpha virt. eigenvalues --    3.13455   3.14505   3.17863   3.18317   3.18938
 Alpha virt. eigenvalues --    3.19920   3.20951   3.21754   3.22943   3.24580
 Alpha virt. eigenvalues --    3.25318   3.27681   3.28230   3.29224   3.33597
 Alpha virt. eigenvalues --    3.34401   3.35556   3.38477   3.39962   3.42315
 Alpha virt. eigenvalues --    3.45203   3.47556   3.48678   3.49223   3.49649
 Alpha virt. eigenvalues --    3.53542   3.55682   3.73061   4.01001   4.01821
 Alpha virt. eigenvalues --    4.01837   4.02149   4.02731   4.03232   4.04079
 Alpha virt. eigenvalues --    4.04870   4.04880   4.06779   4.07085   4.08096
 Alpha virt. eigenvalues --    4.08322   4.08863   4.09561   4.09949   4.10348
 Alpha virt. eigenvalues --    4.11202   4.11253   4.12426   4.13725   4.13813
 Alpha virt. eigenvalues --    4.15989   4.16288   4.16737   4.17287   4.18813
 Alpha virt. eigenvalues --    4.19552   4.19577   4.20077   4.21371   4.22123
 Alpha virt. eigenvalues --    4.22362   4.24344   4.24664   4.25334   4.25903
 Alpha virt. eigenvalues --    4.26550   4.26794   4.26936   4.27166   4.28142
 Alpha virt. eigenvalues --    4.28451   4.29145   4.29300   4.29887   4.30148
 Alpha virt. eigenvalues --    4.31658   4.33429   4.34140   4.35325   4.36175
 Alpha virt. eigenvalues --    4.38391   4.38402   4.39373   4.39651   4.40795
 Alpha virt. eigenvalues --    4.41730   4.42080   4.43757   4.44066   4.45072
 Alpha virt. eigenvalues --    4.46728   4.47510   4.48446   4.50359   4.51376
 Alpha virt. eigenvalues --    4.52989   4.55231   4.56469   4.57972   4.58936
 Alpha virt. eigenvalues --    4.59009   4.60984   4.61121   4.64075   4.65302
 Alpha virt. eigenvalues --    4.66749   4.67896   4.72757   4.77982   4.79958
 Alpha virt. eigenvalues --    4.80606   4.81462   4.85005   4.85398   4.88611
 Alpha virt. eigenvalues --    4.91404   4.92502   4.98498   5.03993   5.05735
 Alpha virt. eigenvalues --    5.06537   5.14881   5.16315   5.29466
          Condensed to atoms (all electrons):
 Mulliken charges:
               1
     1  C    0.004589
     2  C   -0.386300
     3  C    0.004589
     4  C   -0.386300
     5  C    0.008901
     6  C    0.090149
     7  C    0.008901
     8  C    0.090149
     9  C    0.038086
    10  C    0.089189
    11  C    0.089189
    12  C    0.038085
    13  C    0.007110
    14  C    0.007110
    15  C    0.008361
    16  C    0.008361
    17  C    0.044744
    18  C    0.044744
    19  C    0.044150
    20  C    0.044150
    21  C    0.007202
    22  C    0.007202
    23  C    0.088249
    24  C    0.088249
    25  C    0.088778
    26  C    0.088778
    27  C   -0.375809
    28  C   -0.375809
    29  C    0.086127
    30  C    0.086127
    31  C    0.089774
    32  C    0.089774
    33  C    0.005264
    34  C    0.005264
    35  C    0.036268
    36  C    0.036268
    37  C    0.068847
    38  C    0.068847
    39  C    0.120062
    40  C    0.117098
    41  C    0.117099
    42  C    0.120062
    43  C    0.077749
    44  C    0.145494
    45  C    0.145494
    46  C    0.077749
    47  C    0.123307
    48  C    0.123307
    49  C   -0.379364
    50  C   -0.379364
    51  C    0.088772
    52  C    0.088772
    53  C    0.006351
    54  C    0.006351
    55  C    0.006576
    56  C    0.006576
    57  C    0.005802
    58  C    0.005802
    59  C    0.088326
    60  C    0.088326
    61  C   -0.374533
    62  C   -0.374533
    63  C    0.124779
    64  C    0.124779
    65  C    0.129019
    66  C    0.129019
    67  C    0.124386
    68  C    0.124386
    69  C   -0.371460
    70  C   -0.371460
    71  C    0.089665
    72  C    0.089665
    73  C    0.019628
    74  C    0.019628
    75  C   -0.008046
    76  C   -0.008046
    77  C   -0.042384
    78  C   -0.042384
    79  C   -0.355421
    80  C   -0.355421
    81  C    0.034353
    82  C    0.140960
    83  C    0.044829
    84  C    0.044829
    85  Cl   0.022516
    86  Cl   0.016821
    87  Cl   0.016821
    88  Cl   0.022516
    89  Cl   0.020618
    90  Cl   0.020618
    91  Cl   0.015053
    92  Cl   0.015053
    93  Cl   0.022371
    94  Cl  -0.009349
    95  Cl   0.022371
    96  Cl  -0.009349
 Sum of Mulliken charges =  -0.00000
 Mulliken charges with hydrogens summed into heavy atoms:
               1
     1  C    0.004589
     2  C   -0.386300
     3  C    0.004589
     4  C   -0.386300
     5  C    0.008901
     6  C    0.090149
     7  C    0.008901
     8  C    0.090149
     9  C    0.038086
    10  C    0.089189
    11  C    0.089189
    12  C    0.038085
    13  C    0.007110
    14  C    0.007110
    15  C    0.008361
    16  C    0.008361
    17  C    0.044744
    18  C    0.044744
    19  C    0.044150
    20  C    0.044150
    21  C    0.007202
    22  C    0.007202
    23  C    0.088249
    24  C    0.088249
    25  C    0.088778
    26  C    0.088778
    27  C   -0.375809
    28  C   -0.375809
    29  C    0.086127
    30  C    0.086127
    31  C    0.089774
    32  C    0.089774
    33  C    0.005264
    34  C    0.005264
    35  C    0.036268
    36  C    0.036268
    37  C    0.068847
    38  C    0.068847
    39  C    0.120062
    40  C    0.117098
    41  C    0.117099
    42  C    0.120062
    43  C    0.077749
    44  C    0.145494
    45  C    0.145494
    46  C    0.077749
    47  C    0.123307
    48  C    0.123307
    49  C   -0.379364
    50  C   -0.379364
    51  C    0.088772
    52  C    0.088772
    53  C    0.006351
    54  C    0.006351
    55  C    0.006576
    56  C    0.006576
    57  C    0.005802
    58  C    0.005802
    59  C    0.088326
    60  C    0.088326
    61  C   -0.374533
    62  C   -0.374533
    63  C    0.124779
    64  C    0.124779
    65  C    0.129019
    66  C    0.129019
    67  C    0.124386
    68  C    0.124386
    69  C   -0.371460
    70  C   -0.371460
    71  C    0.089665
    72  C    0.089665
    73  C    0.019628
    74  C    0.019628
    75  C   -0.008046
    76  C   -0.008046
    77  C   -0.042384
    78  C   -0.042384
    79  C   -0.355421
    80  C   -0.355421
    81  C    0.034353
    82  C    0.140960
    83  C    0.044829
    84  C    0.044829
    85  Cl   0.022516
    86  Cl   0.016821
    87  Cl   0.016821
    88  Cl   0.022516
    89  Cl   0.020618
    90  Cl   0.020618
    91  Cl   0.015053
    92  Cl   0.015053
    93  Cl   0.022371
    94  Cl  -0.009349
    95  Cl   0.022371
    96  Cl  -0.009349
 Electronic spatial extent (au):  <R**2>=          61850.9973
 Charge=              0.0000 electrons
 Dipole moment (field-independent basis, Debye):
    X=             -0.7771    Y=             -1.2022    Z=             -0.0000  Tot=              1.4315
 Quadrupole moment (field-independent basis, Debye-Ang):
   XX=           -683.5898   YY=           -613.3434   ZZ=           -610.5768
   XY=             -6.2531   XZ=             -0.0000   YZ=             -0.0000
 Traceless Quadrupole moment (field-independent basis, Debye-Ang):
   XX=            -47.7531   YY=             22.4932   ZZ=             25.2599
   XY=             -6.2531   XZ=             -0.0000   YZ=             -0.0000
 Octapole moment (field-independent basis, Debye-Ang**2):
  XXX=            -27.3059  YYY=            -16.7891  ZZZ=             -0.0000  XYY=            -24.3659
  XXY=            -23.6506  XXZ=             -0.0000  XZZ=             -6.9091  YZZ=             -8.0363
  YYZ=             -0.0000  XYZ=             -0.0000
 Hexadecapole moment (field-independent basis, Debye-Ang**3):
 XXXX=         -39401.1017 YYYY=         -24570.6310 ZZZZ=         -23348.1947 XXXY=            -18.9821
 XXXZ=             -0.0002 YYYX=            -54.6759 YYYZ=             -0.0001 ZZZX=             -0.0000
 ZZZY=             -0.0000 XXYY=         -11003.9855 XXZZ=         -10709.3421 YYZZ=          -7998.4607
 XXYZ=             -0.0001 YYXZ=             -0.0001 ZZXY=             -9.3438
 N-N= 2.413591137225D+04 E-N=-6.879148723532D+04  KE= 8.676617388371D+03
 No NMR shielding tensors so no spin-rotation constants.
 Leave Link  601 at Mon Jun 27 13:37:34 2022, MaxMem=  1342177280 cpu:              25.9 elap:               1.3
 (Enter /home/mkliu/g16/l9999.exe)
 1\1\GINC-NODE02\FOpt\RB3LYP\6-31G(d,p)\C84Cl12\MKLIU\27-Jun-2022\0\\#P
  opt b3lyp/6-31G(d, p) empiricaldispersion=GD3\\force\\0,1\C,8.2652021
 807,18.9055755005,10.5402916481\C,12.5069725022,19.994414423,8.9105868
 831\C,8.2624515589,26.8451392862,10.5419118873\C,12.5049750499,25.7599
 049645,8.9117634487\C,7.9458511461,18.9486067186,9.1525903758\C,11.899
 4196771,19.5571334872,10.2220219425\C,7.9431302178,26.8024531914,9.154
 1931226\C,11.8971195983,26.196229554,10.2233767917\C,8.9568809934,19.1
 156299882,8.1619726524\C,12.1633957525,20.1912771563,11.3922708446\C,1
 2.1615351851,25.5617913483,11.3933668044\C,8.9542754122,26.6365348078,
 8.1635074602\C,10.2967307167,19.0623507447,8.6173887911\C,10.294087973
 8,26.6905565721,8.6189454802\C,10.6187147726,18.9566490171,9.998476914
 8\C,10.6159988882,26.7959176531,10.0000766875\C,9.6066618326,18.967437
 575,10.9991410785\C,9.60395381,26.7840194673,11.0007362255\C,9.8800792
 905,19.6523954026,12.2418138533\C,9.8778459918,26.0987440853,12.243129
 3583\C,8.7890441823,20.2514182151,12.9315647577\C,8.7872263019,25.4986
 839831,12.9326355736\C,7.4501295828,20.1764786666,12.4249510501\C,7.44
 82600477,25.572902536,12.4260522705\C,7.1926203406,19.5114067761,11.27
 37642768\C,7.1902898239,26.2382657042,11.2751370525\C,6.0767830541,19.
 9328229602,10.3417414034\C,6.0747446968,25.8164568812,10.3429420917\C,
 6.653101711,19.5353590473,9.000583576\C,6.6507876417,26.2148673428,9.0
 019466797\C,6.3507203598,20.2022969177,7.8640731974\C,6.3488682787,25.
 5481840657,7.8651641319\C,7.3193832798,20.3185542107,6.8121972454\C,7.
 3176113956,25.43302729,6.8132409772\C,8.6612768417,19.8620256099,6.965
 1567509\C,8.6591883259,25.8904231209,6.9663869744\C,9.7304041737,20.58
 73393078,6.2921683536\C,9.7288178795,25.1661251059,6.293102738\C,11.07
 99229386,20.5503628132,6.8418889687\C,12.7275053594,22.1813156575,7.77
 09031991\C,12.7270229613,23.5736223759,7.7711873392\C,11.07831079,25.2
 038123247,6.8428385659\C,11.3373067177,19.7777745424,7.9419904653\C,12
 .8883125348,21.4653210074,8.9534667417\C,12.8873341387,24.2892455541,8
 .9540430368\C,11.3351593305,25.9761296663,7.9432553712\C,13.0978101906
 ,22.1675801737,10.1593444126\C,13.0973185497,23.5866396111,10.15963400
 04\C,13.0897433838,21.3916468253,11.4823031101\C,13.0887142806,24.3620
 27155,11.4829092713\C,12.4217262111,22.1981629278,12.5773129296\C,12.4
 212562078,23.5546015208,12.5775896914\C,11.1565054715,20.2567672332,12
 .4149643528\C,11.1546906557,25.4951862301,12.4160333587\C,11.310082520
 1,21.4768133133,13.1291948969\C,11.3091130878,24.2749554115,13.1297658
 699\C,8.9408558266,21.4781426547,13.6363688169\C,8.9398879775,24.27177
 74667,13.6369389114\C,7.7016232033,22.1974997509,13.5741839288\C,7.701
 1540614,23.5515873436,13.5744602949\C,6.6516382939,21.3989714371,12.83
 01714293\C,6.6506160356,24.3496915344,12.8307735832\C,6.1656196179,22.
 1675770524,11.5808144923\C,6.1651298614,23.5812593171,11.5811029841\C,
 5.8758624899,21.464108645,10.3917155712\C,5.8748851973,24.2850120626,1
 0.3922912477\C,5.5699280614,22.1689536334,9.2035938463\C,5.5694390472,
 23.5804402623,9.203881898\C,5.4112269374,21.3946712905,7.8728101501\C,
 5.410201277,24.3551555377,7.8734142917\C,5.9383488816,22.1974366744,6.
 7028073315\C,5.9378791676,23.5532331809,6.7030840074\C,7.0105124334,21
 .4793463834,6.0549719766\C,7.0095448198,24.272330545,6.0555419438\C,8.
 0383631582,22.1520569163,5.3963927276\C,8.0378613015,23.6006012098,5.3
 966883245\C,9.3795395497,21.6903465007,5.4882649805\C,9.3787174771,24.
 0632032883,5.4887492012\C,12.1004406561,21.6278557052,6.5003506318\C,1
 2.0995746501,24.1271661908,6.5008607946\C,10.2421592304,22.8770837145,
 5.4403642084\C,11.4912289719,22.8774161353,5.9319735977\C,10.191278632
 8,22.1530791505,13.6931225036\C,10.1907781453,23.5976844302,13.6934173
 055\Cl,4.4991569653,19.0721359889,10.724291804\Cl,3.6469823134,20.9220
 016083,7.6427681468\Cl,3.6456295222,24.8266964508,7.6435649431\Cl,4.49
 65226184,26.6758942512,10.725843448\Cl,5.2145952751,20.9761336356,13.8
 981281273\Cl,5.2132805252,24.7710977251,13.8989025135\Cl,14.8111648196
 ,20.9037218878,11.9252132973\Cl,14.8097973125,24.8509637843,11.9260189
 467\Cl,13.9603006511,18.9554735994,8.4640899222\Cl,13.4013179959,20.93
 01686124,5.3565166295\Cl,13.9575831044,26.8000344658,8.4656908473\Cl,1
 3.3999686353,24.8262211653,5.3573117574\\Version=ES64L-G16RevA.03\Stat
 e=1-A\HF=-8723.4442631\RMSD=8.144e-09\RMSF=2.643e-05\Dipole=-0.2110849
 ,-0.0001799,0.5221432\Quadrupole=-31.9246315,18.7800834,13.1445481,-0.
 0204245,13.9894466,0.0060005\PG=C01 [X(C84Cl12)]\\@


 HE WHO LAUGHS LAST PROBABLY DIDN'T GET THE JOKE.
 Job cpu time:       1 days 12 hours  6 minutes 59.2 seconds.
 Elapsed time:       0 days  1 hours 30 minutes 25.5 seconds.
 File lengths (MBytes):  RWF=   1359 Int=      0 D2E=      0 Chk=    170 Scr=      1
 Normal termination of Gaussian 16 at Mon Jun 27 13:37:36 2022.
