 Entering Gaussian System, Link 0=g16
 Input=12_addons_C84_14_Cl22_rank_7.gjf
 Output=12_addons_C84_14_Cl22_rank_7.log
 Initial command:
 /home/mkliu/g16/l1.exe "/data/scratch/Gau-38584.inp" -scrdir="/data/scratch/"
 Entering Link 1 = /home/mkliu/g16/l1.exe PID=     38585.
  
 Copyright (c) 1988,1990,1992,1993,1995,1998,2003,2009,2016,
            Gaussian, Inc.  All Rights Reserved.
  
 This is part of the Gaussian(R) 16 program.  It is based on
 the Gaussian(R) 09 system (copyright 2009, Gaussian, Inc.),
 the Gaussian(R) 03 system (copyright 2003, Gaussian, Inc.),
 the Gaussian(R) 98 system (copyright 1998, Gaussian, Inc.),
 the Gaussian(R) 94 system (copyright 1995, Gaussian, Inc.),
 the Gaussian 92(TM) system (copyright 1992, Gaussian, Inc.),
 the Gaussian 90(TM) system (copyright 1990, Gaussian, Inc.),
 the Gaussian 88(TM) system (copyright 1988, Gaussian, Inc.),
 the Gaussian 86(TM) system (copyright 1986, Carnegie Mellon
 University), and the Gaussian 82(TM) system (copyright 1983,
 Carnegie Mellon University). Gaussian is a federally registered
 trademark of Gaussian, Inc.
  
 This software contains proprietary and confidential information,
 including trade secrets, belonging to Gaussian, Inc.
  
 This software is provided under written license and may be
 used, copied, transmitted, or stored only in accord with that
 written license.
  
 The following legend is applicable only to US Government
 contracts under FAR:
  
                    RESTRICTED RIGHTS LEGEND
  
 Use, reproduction and disclosure by the US Government is
 subject to restrictions as set forth in subparagraphs (a)
 and (c) of the Commercial Computer Software - Restricted
 Rights clause in FAR 52.227-19.
  
 Gaussian, Inc.
 340 Quinnipiac St., Bldg. 40, Wallingford CT 06492
  
  
 ---------------------------------------------------------------
 Warning -- This program may not be used in any manner that
 competes with the business of Gaussian, Inc. or will provide
 assistance to any competitor of Gaussian, Inc.  The licensee
 of this program is prohibited from giving any competitor of
 Gaussian, Inc. access to this program.  By using this program,
 the user acknowledges that Gaussian, Inc. is engaged in the
 business of creating and licensing software in the field of
 computational chemistry and represents and warrants to the
 licensee that it is not a competitor of Gaussian, Inc. and that
 it will not use this program in any manner prohibited above.
 ---------------------------------------------------------------
  

 Cite this work as:
 Gaussian 16, Revision A.03,
 M. J. Frisch, G. W. Trucks, H. B. Schlegel, G. E. Scuseria, 
 M. A. Robb, J. R. Cheeseman, G. Scalmani, V. Barone, 
 G. A. Petersson, H. Nakatsuji, X. Li, M. Caricato, A. V. Marenich, 
 J. Bloino, B. G. Janesko, R. Gomperts, B. Mennucci, H. P. Hratchian, 
 J. V. Ortiz, A. F. Izmaylov, J. L. Sonnenberg, D. Williams-Young, 
 F. Ding, F. Lipparini, F. Egidi, J. Goings, B. Peng, A. Petrone, 
 T. Henderson, D. Ranasinghe, V. G. Zakrzewski, J. Gao, N. Rega, 
 G. Zheng, W. Liang, M. Hada, M. Ehara, K. Toyota, R. Fukuda, 
 J. Hasegawa, M. Ishida, T. Nakajima, Y. Honda, O. Kitao, H. Nakai, 
 T. Vreven, K. Throssell, J. A. Montgomery, Jr., J. E. Peralta, 
 F. Ogliaro, M. J. Bearpark, J. J. Heyd, E. N. Brothers, K. N. Kudin, 
 V. N. Staroverov, T. A. Keith, R. Kobayashi, J. Normand, 
 K. Raghavachari, A. P. Rendell, J. C. Burant, S. S. Iyengar, 
 J. Tomasi, M. Cossi, J. M. Millam, M. Klene, C. Adamo, R. Cammi, 
 J. W. Ochterski, R. L. Martin, K. Morokuma, O. Farkas, 
 J. B. Foresman, and D. J. Fox, Gaussian, Inc., Wallingford CT, 2016.
 
 ******************************************
 Gaussian 16:  ES64L-G16RevA.03 25-Dec-2016
                28-Jun-2022 
 ******************************************
 %mem=10GB
 %chk=12_addons_C84_14_Cl22_rank_7.chk
 %nprocshared=24
 Will use up to   24 processors via shared memory.
 ------------------------------------------------
 #P opt b3lyp/6-31G(d, p) empiricaldispersion=GD3
 ------------------------------------------------
 1/18=20,19=15,26=3,38=1/1,3;
 2/9=110,12=2,17=6,18=5,40=1/2;
 3/5=1,6=6,7=101,11=2,25=1,30=1,71=1,74=-5,124=31/1,2,3;
 4//1;
 5/5=2,38=5/2;
 6/7=2,8=2,9=2,10=2,28=1/1;
 7//1,2,3,16;
 1/18=20,19=15,26=3/3(2);
 2/9=110/2;
 99//99;
 2/9=110/2;
 3/5=1,6=6,7=101,11=2,25=1,30=1,71=1,74=-5,124=31/1,2,3;
 4/5=5,16=3,69=1/1;
 5/5=2,38=5/2;
 7//1,2,3,16;
 1/18=20,19=15,26=3/3(-5);
 2/9=110/2;
 6/7=2,8=2,9=2,10=2,19=2,28=1/1;
 99/9=1/99;
 Leave Link    1 at Tue Jun 28 08:33:44 2022, MaxMem=  1342177280 cpu:               0.6 elap:               0.1
 (Enter /home/mkliu/g16/l101.exe)
 -----
 force
 -----
 Symbolic Z-matrix:
 Charge =  0 Multiplicity = 1
 C                     8.2859    18.91572   10.52478 
 C                     12.49792   20.01287   8.90295 
 C                     8.27848   26.83278   10.52522 
 C                     12.46874   25.75178   8.92248 
 C                     7.97313   18.98314   9.15681 
 C                     11.88784   19.58123   10.2022 
 C                     7.96504   26.78092   9.12341 
 C                     11.87637   26.20584   10.2234 
 C                     8.97019   19.15855   8.15688 
 C                     12.13678   20.21698   11.37561 
 C                     12.14094   25.55644   11.40206 
 C                     8.95731   26.62084   8.13784 
 C                     10.29465   19.10685   8.61133 
 C                     10.29836   26.66859   8.60417 
 C                     10.61671   18.9941   9.99015 
 C                     10.61895   26.79391   10.00529 
 C                     9.61731   18.99845   10.99078 
 C                     9.61114   26.78242   10.9927 
 C                     9.89404   19.64621   12.22386 
 C                     9.87905   26.10452   12.22322 
 C                     8.77286   20.07252   13.12827 
 C                     8.79241   25.50268   12.898 
 C                     7.45371   20.17436   12.4204 
 C                     7.47999   25.56568   12.4005 
 C                     7.22477   19.55411   11.26012 
 C                     7.2222    26.23612   11.23512 
 C                     6.11931   19.97638   10.33325 
 C                     6.11734   25.80381   10.31587 
 C                     6.68392   19.57033   9.00737 
 C                     6.68768   26.19952   8.98688 
 C                     6.38006   20.22982   7.87106 
 C                     6.38174   25.52755   7.84606 
 C                     7.33791   20.33662   6.81775 
 C                     7.33135   25.42601   6.80407 
 C                     8.67384   19.89986   6.97172 
 C                     8.66455   25.88729   6.94624 
 C                     9.72976   20.625    6.30299 
 C                     9.72144   25.1678   6.27559 
 C                     11.0604   20.59218   6.85703 
 C                     12.70298   22.18162   7.80093 
 C                     12.65639   23.5791   7.81429 
 C                     11.04801   25.18243   6.83634 
 C                     11.33194   19.81631   7.94751 
 C                     12.85942   21.47522   8.97278 
 C                     12.82265   24.29067   8.99268 
 C                     11.31918   25.98477   7.95979 
 C                     13.04915   22.17928   10.17998 
 C                     13.03985   23.58577   10.18545 
 C                     13.05922   21.39986   11.48382 
 C                     13.05748   24.36057   11.49145 
 C                     12.38486   22.1861   12.57259 
 C                     12.38915   23.56033   12.5736 
 C                     11.12638   20.25936   12.37982 
 C                     11.14407   25.49592   12.39531 
 C                     11.30331   21.4835   13.12223 
 C                     11.2934   24.25663   13.10863 
 C                     8.94342   21.47701   13.62383 
 C                     8.94464   24.25398   13.59456 
 C                     7.74815   22.17977   13.50716 
 C                     7.73542   23.55414   13.51943 
 C                     6.68693   21.40961   12.787 
 C                     6.69139   24.34527   12.78645 
 C                     6.25317   22.18245   11.54148 
 C                     6.25975   23.58565   11.5367 
 C                     5.96066   21.49007   10.36136 
 C                     5.97169   24.28392   10.35514 
 C                     5.65508   22.18472   9.18129 
 C                     5.65925   23.5854   9.17732 
 C                     5.44385   21.40745   7.88103 
 C                     5.44496   24.35096   7.87071 
 C                     5.95422   22.19557   6.70916 
 C                     5.95223   23.55297   6.70391 
 C                     7.01374   21.48752   6.06173 
 C                     7.01316   24.25609   6.05259 
 C                     8.02718   22.15834   5.38604 
 C                     8.02082   23.58735   5.38748 
 C                     9.37208   21.70702   5.4742 
 C                     9.37327   24.0493   5.48639 
 C                     12.08018   21.65321   6.52844 
 C                     11.86535   24.03863   6.6882 
 C                     10.20329   22.89091   5.40908 
 C                     11.45086   22.90476   5.98853 
 C                     10.17992   22.14987   13.67084 
 C                     10.18259   23.58023   13.66133 
 Cl                    4.54312   19.21151   10.72992 
 Cl                    3.70555   20.96892   7.75393 
 Cl                    3.70684   24.79213   7.74334 
 Cl                    4.53135   26.5552   10.69588 
 Cl                    5.22405   21.08756   13.79173 
 Cl                    5.2343    24.70976   13.77288 
 Cl                    14.75811   20.94593   11.88067 
 Cl                    14.75713   24.80836   11.8821 
 Cl                    13.93232   19.03555   8.42506 
 Cl                    13.32937   20.983    5.40642 
 Cl                    13.93088   26.70547   8.45727 
 Cl                    8.66767   18.90088   14.54037 
 
 ITRead=  0  0  0  0  0  0  0  0  0  0  0  0  0  0  0  0  0  0  0  0
 ITRead=  0  0  0  0  0  0  0  0  0  0  0  0  0  0  0  0  0  0  0  0
 ITRead=  0  0  0  0  0  0  0  0  0  0  0  0  0  0  0  0  0  0  0  0
 ITRead=  0  0  0  0  0  0  0  0  0  0  0  0  0  0  0  0  0  0  0  0
 ITRead=  0  0  0  0  0  0  0  0  0  0  0  0  0  0  0  0
 MicOpt= -1 -1 -1 -1 -1 -1 -1 -1 -1 -1 -1 -1 -1 -1 -1 -1 -1 -1 -1 -1
 MicOpt= -1 -1 -1 -1 -1 -1 -1 -1 -1 -1 -1 -1 -1 -1 -1 -1 -1 -1 -1 -1
 MicOpt= -1 -1 -1 -1 -1 -1 -1 -1 -1 -1 -1 -1 -1 -1 -1 -1 -1 -1 -1 -1
 MicOpt= -1 -1 -1 -1 -1 -1 -1 -1 -1 -1 -1 -1 -1 -1 -1 -1 -1 -1 -1 -1
 MicOpt= -1 -1 -1 -1 -1 -1 -1 -1 -1 -1 -1 -1 -1 -1 -1 -1
 NAtoms=     96 NQM=       96 NQMF=       0 NMMI=      0 NMMIF=      0
                NMic=       0 NMicF=      0.
                    Isotopes and Nuclear Properties:
 (Nuclear quadrupole moments (NQMom) in fm**2, nuclear magnetic moments (NMagM)
  in nuclear magnetons)

  Atom         1           2           3           4           5           6           7           8           9          10
 IAtWgt=          12          12          12          12          12          12          12          12          12          12
 AtmWgt=  12.0000000  12.0000000  12.0000000  12.0000000  12.0000000  12.0000000  12.0000000  12.0000000  12.0000000  12.0000000
 NucSpn=           0           0           0           0           0           0           0           0           0           0
 AtZEff=  -0.0000000  -0.0000000  -0.0000000  -0.0000000  -0.0000000  -0.0000000  -0.0000000  -0.0000000  -0.0000000  -0.0000000
 NQMom=    0.0000000   0.0000000   0.0000000   0.0000000   0.0000000   0.0000000   0.0000000   0.0000000   0.0000000   0.0000000
 NMagM=    0.0000000   0.0000000   0.0000000   0.0000000   0.0000000   0.0000000   0.0000000   0.0000000   0.0000000   0.0000000
 AtZNuc=   6.0000000   6.0000000   6.0000000   6.0000000   6.0000000   6.0000000   6.0000000   6.0000000   6.0000000   6.0000000

  Atom        11          12          13          14          15          16          17          18          19          20
 IAtWgt=          12          12          12          12          12          12          12          12          12          12
 AtmWgt=  12.0000000  12.0000000  12.0000000  12.0000000  12.0000000  12.0000000  12.0000000  12.0000000  12.0000000  12.0000000
 NucSpn=           0           0           0           0           0           0           0           0           0           0
 AtZEff=  -0.0000000  -0.0000000  -0.0000000  -0.0000000  -0.0000000  -0.0000000  -0.0000000  -0.0000000  -0.0000000  -0.0000000
 NQMom=    0.0000000   0.0000000   0.0000000   0.0000000   0.0000000   0.0000000   0.0000000   0.0000000   0.0000000   0.0000000
 NMagM=    0.0000000   0.0000000   0.0000000   0.0000000   0.0000000   0.0000000   0.0000000   0.0000000   0.0000000   0.0000000
 AtZNuc=   6.0000000   6.0000000   6.0000000   6.0000000   6.0000000   6.0000000   6.0000000   6.0000000   6.0000000   6.0000000

  Atom        21          22          23          24          25          26          27          28          29          30
 IAtWgt=          12          12          12          12          12          12          12          12          12          12
 AtmWgt=  12.0000000  12.0000000  12.0000000  12.0000000  12.0000000  12.0000000  12.0000000  12.0000000  12.0000000  12.0000000
 NucSpn=           0           0           0           0           0           0           0           0           0           0
 AtZEff=  -0.0000000  -0.0000000  -0.0000000  -0.0000000  -0.0000000  -0.0000000  -0.0000000  -0.0000000  -0.0000000  -0.0000000
 NQMom=    0.0000000   0.0000000   0.0000000   0.0000000   0.0000000   0.0000000   0.0000000   0.0000000   0.0000000   0.0000000
 NMagM=    0.0000000   0.0000000   0.0000000   0.0000000   0.0000000   0.0000000   0.0000000   0.0000000   0.0000000   0.0000000
 AtZNuc=   6.0000000   6.0000000   6.0000000   6.0000000   6.0000000   6.0000000   6.0000000   6.0000000   6.0000000   6.0000000

  Atom        31          32          33          34          35          36          37          38          39          40
 IAtWgt=          12          12          12          12          12          12          12          12          12          12
 AtmWgt=  12.0000000  12.0000000  12.0000000  12.0000000  12.0000000  12.0000000  12.0000000  12.0000000  12.0000000  12.0000000
 NucSpn=           0           0           0           0           0           0           0           0           0           0
 AtZEff=  -0.0000000  -0.0000000  -0.0000000  -0.0000000  -0.0000000  -0.0000000  -0.0000000  -0.0000000  -0.0000000  -0.0000000
 NQMom=    0.0000000   0.0000000   0.0000000   0.0000000   0.0000000   0.0000000   0.0000000   0.0000000   0.0000000   0.0000000
 NMagM=    0.0000000   0.0000000   0.0000000   0.0000000   0.0000000   0.0000000   0.0000000   0.0000000   0.0000000   0.0000000
 AtZNuc=   6.0000000   6.0000000   6.0000000   6.0000000   6.0000000   6.0000000   6.0000000   6.0000000   6.0000000   6.0000000

  Atom        41          42          43          44          45          46          47          48          49          50
 IAtWgt=          12          12          12          12          12          12          12          12          12          12
 AtmWgt=  12.0000000  12.0000000  12.0000000  12.0000000  12.0000000  12.0000000  12.0000000  12.0000000  12.0000000  12.0000000
 NucSpn=           0           0           0           0           0           0           0           0           0           0
 AtZEff=  -0.0000000  -0.0000000  -0.0000000  -0.0000000  -0.0000000  -0.0000000  -0.0000000  -0.0000000  -0.0000000  -0.0000000
 NQMom=    0.0000000   0.0000000   0.0000000   0.0000000   0.0000000   0.0000000   0.0000000   0.0000000   0.0000000   0.0000000
 NMagM=    0.0000000   0.0000000   0.0000000   0.0000000   0.0000000   0.0000000   0.0000000   0.0000000   0.0000000   0.0000000
 AtZNuc=   6.0000000   6.0000000   6.0000000   6.0000000   6.0000000   6.0000000   6.0000000   6.0000000   6.0000000   6.0000000

  Atom        51          52          53          54          55          56          57          58          59          60
 IAtWgt=          12          12          12          12          12          12          12          12          12          12
 AtmWgt=  12.0000000  12.0000000  12.0000000  12.0000000  12.0000000  12.0000000  12.0000000  12.0000000  12.0000000  12.0000000
 NucSpn=           0           0           0           0           0           0           0           0           0           0
 AtZEff=  -0.0000000  -0.0000000  -0.0000000  -0.0000000  -0.0000000  -0.0000000  -0.0000000  -0.0000000  -0.0000000  -0.0000000
 NQMom=    0.0000000   0.0000000   0.0000000   0.0000000   0.0000000   0.0000000   0.0000000   0.0000000   0.0000000   0.0000000
 NMagM=    0.0000000   0.0000000   0.0000000   0.0000000   0.0000000   0.0000000   0.0000000   0.0000000   0.0000000   0.0000000
 AtZNuc=   6.0000000   6.0000000   6.0000000   6.0000000   6.0000000   6.0000000   6.0000000   6.0000000   6.0000000   6.0000000

  Atom        61          62          63          64          65          66          67          68          69          70
 IAtWgt=          12          12          12          12          12          12          12          12          12          12
 AtmWgt=  12.0000000  12.0000000  12.0000000  12.0000000  12.0000000  12.0000000  12.0000000  12.0000000  12.0000000  12.0000000
 NucSpn=           0           0           0           0           0           0           0           0           0           0
 AtZEff=  -0.0000000  -0.0000000  -0.0000000  -0.0000000  -0.0000000  -0.0000000  -0.0000000  -0.0000000  -0.0000000  -0.0000000
 NQMom=    0.0000000   0.0000000   0.0000000   0.0000000   0.0000000   0.0000000   0.0000000   0.0000000   0.0000000   0.0000000
 NMagM=    0.0000000   0.0000000   0.0000000   0.0000000   0.0000000   0.0000000   0.0000000   0.0000000   0.0000000   0.0000000
 AtZNuc=   6.0000000   6.0000000   6.0000000   6.0000000   6.0000000   6.0000000   6.0000000   6.0000000   6.0000000   6.0000000

  Atom        71          72          73          74          75          76          77          78          79          80
 IAtWgt=          12          12          12          12          12          12          12          12          12          12
 AtmWgt=  12.0000000  12.0000000  12.0000000  12.0000000  12.0000000  12.0000000  12.0000000  12.0000000  12.0000000  12.0000000
 NucSpn=           0           0           0           0           0           0           0           0           0           0
 AtZEff=  -0.0000000  -0.0000000  -0.0000000  -0.0000000  -0.0000000  -0.0000000  -0.0000000  -0.0000000  -0.0000000  -0.0000000
 NQMom=    0.0000000   0.0000000   0.0000000   0.0000000   0.0000000   0.0000000   0.0000000   0.0000000   0.0000000   0.0000000
 NMagM=    0.0000000   0.0000000   0.0000000   0.0000000   0.0000000   0.0000000   0.0000000   0.0000000   0.0000000   0.0000000
 AtZNuc=   6.0000000   6.0000000   6.0000000   6.0000000   6.0000000   6.0000000   6.0000000   6.0000000   6.0000000   6.0000000

  Atom        81          82          83          84          85          86          87          88          89          90
 IAtWgt=          12          12          12          12          35          35          35          35          35          35
 AtmWgt=  12.0000000  12.0000000  12.0000000  12.0000000  34.9688527  34.9688527  34.9688527  34.9688527  34.9688527  34.9688527
 NucSpn=           0           0           0           0           3           3           3           3           3           3
 AtZEff=  -0.0000000  -0.0000000  -0.0000000  -0.0000000  -0.0000000  -0.0000000  -0.0000000  -0.0000000  -0.0000000  -0.0000000
 NQMom=    0.0000000   0.0000000   0.0000000   0.0000000  -8.1650000  -8.1650000  -8.1650000  -8.1650000  -8.1650000  -8.1650000
 NMagM=    0.0000000   0.0000000   0.0000000   0.0000000   0.8218740   0.8218740   0.8218740   0.8218740   0.8218740   0.8218740
 AtZNuc=   6.0000000   6.0000000   6.0000000   6.0000000  17.0000000  17.0000000  17.0000000  17.0000000  17.0000000  17.0000000

  Atom        91          92          93          94          95          96
 IAtWgt=          35          35          35          35          35          35
 AtmWgt=  34.9688527  34.9688527  34.9688527  34.9688527  34.9688527  34.9688527
 NucSpn=           3           3           3           3           3           3
 AtZEff=  -0.0000000  -0.0000000  -0.0000000  -0.0000000  -0.0000000  -0.0000000
 NQMom=   -8.1650000  -8.1650000  -8.1650000  -8.1650000  -8.1650000  -8.1650000
 NMagM=    0.8218740   0.8218740   0.8218740   0.8218740   0.8218740   0.8218740
 AtZNuc=  17.0000000  17.0000000  17.0000000  17.0000000  17.0000000  17.0000000
 Leave Link  101 at Tue Jun 28 08:33:44 2022, MaxMem=  1342177280 cpu:               6.6 elap:               0.3
 (Enter /home/mkliu/g16/l103.exe)

 GradGradGradGradGradGradGradGradGradGradGradGradGradGradGradGradGradGrad
 Berny optimization.
 Initialization pass.
                           ----------------------------
                           !    Initial Parameters    !
                           ! (Angstroms and Degrees)  !
 --------------------------                            --------------------------
 ! Name  Definition              Value          Derivative Info.                !
 --------------------------------------------------------------------------------
 ! R1    R(1,5)                  1.4049         estimate D2E/DX2                !
 ! R2    R(1,17)                 1.413          estimate D2E/DX2                !
 ! R3    R(1,25)                 1.4402         estimate D2E/DX2                !
 ! R4    R(2,6)                  1.4988         estimate D2E/DX2                !
 ! R5    R(2,43)                 1.5202         estimate D2E/DX2                !
 ! R6    R(2,44)                 1.508          estimate D2E/DX2                !
 ! R7    R(2,93)                 1.8003         estimate D2E/DX2                !
 ! R8    R(3,7)                  1.4374         estimate D2E/DX2                !
 ! R9    R(3,18)                 1.4132         estimate D2E/DX2                !
 ! R10   R(3,26)                 1.4056         estimate D2E/DX2                !
 ! R11   R(4,8)                  1.4998         estimate D2E/DX2                !
 ! R12   R(4,45)                 1.505          estimate D2E/DX2                !
 ! R13   R(4,46)                 1.5174         estimate D2E/DX2                !
 ! R14   R(4,95)                 1.8066         estimate D2E/DX2                !
 ! R15   R(5,9)                  1.4229         estimate D2E/DX2                !
 ! R16   R(5,29)                 1.4245         estimate D2E/DX2                !
 ! R17   R(6,10)                 1.3576         estimate D2E/DX2                !
 ! R18   R(6,15)                 1.4161         estimate D2E/DX2                !
 ! R19   R(7,12)                 1.4077         estimate D2E/DX2                !
 ! R20   R(7,30)                 1.4101         estimate D2E/DX2                !
 ! R21   R(8,11)                 1.3715         estimate D2E/DX2                !
 ! R22   R(8,16)                 1.4052         estimate D2E/DX2                !
 ! R23   R(9,13)                 1.4012         estimate D2E/DX2                !
 ! R24   R(9,35)                 1.429          estimate D2E/DX2                !
 ! R25   R(10,49)                1.5039         estimate D2E/DX2                !
 ! R26   R(10,53)                1.4252         estimate D2E/DX2                !
 ! R27   R(11,50)                1.5094         estimate D2E/DX2                !
 ! R28   R(11,54)                1.4085         estimate D2E/DX2                !
 ! R29   R(12,14)                1.4206         estimate D2E/DX2                !
 ! R30   R(12,36)                1.4296         estimate D2E/DX2                !
 ! R31   R(13,15)                1.4204         estimate D2E/DX2                !
 ! R32   R(13,43)                1.4213         estimate D2E/DX2                !
 ! R33   R(14,16)                1.4428         estimate D2E/DX2                !
 ! R34   R(14,46)                1.3874         estimate D2E/DX2                !
 ! R35   R(15,17)                1.4142         estimate D2E/DX2                !
 ! R36   R(16,18)                1.411          estimate D2E/DX2                !
 ! R37   R(17,19)                1.4201         estimate D2E/DX2                !
 ! R38   R(18,20)                1.4302         estimate D2E/DX2                !
 ! R39   R(19,21)                1.5022         estimate D2E/DX2                !
 ! R40   R(19,53)                1.3853         estimate D2E/DX2                !
 ! R41   R(20,22)                1.4136         estimate D2E/DX2                !
 ! R42   R(20,54)                1.4143         estimate D2E/DX2                !
 ! R43   R(21,23)                1.5005         estimate D2E/DX2                !
 ! R44   R(21,57)                1.4991         estimate D2E/DX2                !
 ! R45   R(21,96)                1.8379         estimate D2E/DX2                !
 ! R46   R(22,24)                1.405          estimate D2E/DX2                !
 ! R47   R(22,58)                1.4379         estimate D2E/DX2                !
 ! R48   R(23,25)                1.3354         estimate D2E/DX2                !
 ! R49   R(23,61)                1.4994         estimate D2E/DX2                !
 ! R50   R(24,26)                1.369          estimate D2E/DX2                !
 ! R51   R(24,62)                1.5034         estimate D2E/DX2                !
 ! R52   R(25,27)                1.5031         estimate D2E/DX2                !
 ! R53   R(26,28)                1.5009         estimate D2E/DX2                !
 ! R54   R(27,29)                1.4972         estimate D2E/DX2                !
 ! R55   R(27,65)                1.5222         estimate D2E/DX2                !
 ! R56   R(27,85)                1.7963         estimate D2E/DX2                !
 ! R57   R(28,30)                1.4994         estimate D2E/DX2                !
 ! R58   R(28,66)                1.5274         estimate D2E/DX2                !
 ! R59   R(28,88)                1.7956         estimate D2E/DX2                !
 ! R60   R(29,31)                1.3485         estimate D2E/DX2                !
 ! R61   R(30,32)                1.3589         estimate D2E/DX2                !
 ! R62   R(31,33)                1.4277         estimate D2E/DX2                !
 ! R63   R(31,69)                1.5045         estimate D2E/DX2                !
 ! R64   R(32,34)                1.4134         estimate D2E/DX2                !
 ! R65   R(32,70)                1.5042         estimate D2E/DX2                !
 ! R66   R(33,35)                1.4139         estimate D2E/DX2                !
 ! R67   R(33,73)                1.4146         estimate D2E/DX2                !
 ! R68   R(34,36)                1.4179         estimate D2E/DX2                !
 ! R69   R(34,74)                1.4264         estimate D2E/DX2                !
 ! R70   R(35,37)                1.445          estimate D2E/DX2                !
 ! R71   R(36,38)                1.4438         estimate D2E/DX2                !
 ! R72   R(37,39)                1.4417         estimate D2E/DX2                !
 ! R73   R(37,77)                1.4091         estimate D2E/DX2                !
 ! R74   R(38,42)                1.4403         estimate D2E/DX2                !
 ! R75   R(38,78)                1.4125         estimate D2E/DX2                !
 ! R76   R(39,43)                1.3656         estimate D2E/DX2                !
 ! R77   R(39,79)                1.5079         estimate D2E/DX2                !
 ! R78   R(40,41)                1.3983         estimate D2E/DX2                !
 ! R79   R(40,44)                1.3772         estimate D2E/DX2                !
 ! R80   R(40,79)                1.5121         estimate D2E/DX2                !
 ! R81   R(41,45)                1.3866         estimate D2E/DX2                !
 ! R82   R(41,80)                1.4509         estimate D2E/DX2                !
 ! R83   R(42,46)                1.4069         estimate D2E/DX2                !
 ! R84   R(42,80)                1.4136         estimate D2E/DX2                !
 ! R85   R(44,47)                1.4103         estimate D2E/DX2                !
 ! R86   R(45,48)                1.4024         estimate D2E/DX2                !
 ! R87   R(47,48)                1.4065         estimate D2E/DX2                !
 ! R88   R(47,49)                1.5191         estimate D2E/DX2                !
 ! R89   R(48,50)                1.5186         estimate D2E/DX2                !
 ! R90   R(49,51)                1.5028         estimate D2E/DX2                !
 ! R91   R(49,91)                1.8027         estimate D2E/DX2                !
 ! R92   R(50,52)                1.5027         estimate D2E/DX2                !
 ! R93   R(50,92)                1.8005         estimate D2E/DX2                !
 ! R94   R(51,52)                1.3742         estimate D2E/DX2                !
 ! R95   R(51,55)                1.402          estimate D2E/DX2                !
 ! R96   R(52,56)                1.4042         estimate D2E/DX2                !
 ! R97   R(53,55)                1.4426         estimate D2E/DX2                !
 ! R98   R(54,56)                1.4377         estimate D2E/DX2                !
 ! R99   R(55,83)                1.4167         estimate D2E/DX2                !
 ! R100  R(56,84)                1.4131         estimate D2E/DX2                !
 ! R101  R(57,59)                1.3915         estimate D2E/DX2                !
 ! R102  R(57,83)                1.4085         estimate D2E/DX2                !
 ! R103  R(58,60)                1.3992         estimate D2E/DX2                !
 ! R104  R(58,84)                1.411          estimate D2E/DX2                !
 ! R105  R(59,60)                1.3745         estimate D2E/DX2                !
 ! R106  R(59,61)                1.496          estimate D2E/DX2                !
 ! R107  R(60,62)                1.5011         estimate D2E/DX2                !
 ! R108  R(61,63)                1.5286         estimate D2E/DX2                !
 ! R109  R(61,89)                1.8037         estimate D2E/DX2                !
 ! R110  R(62,64)                1.5249         estimate D2E/DX2                !
 ! R111  R(62,90)                1.7969         estimate D2E/DX2                !
 ! R112  R(63,64)                1.4032         estimate D2E/DX2                !
 ! R113  R(63,65)                1.3992         estimate D2E/DX2                !
 ! R114  R(64,66)                1.4024         estimate D2E/DX2                !
 ! R115  R(65,67)                1.403          estimate D2E/DX2                !
 ! R116  R(66,68)                1.4046         estimate D2E/DX2                !
 ! R117  R(67,68)                1.4007         estimate D2E/DX2                !
 ! R118  R(67,69)                1.5295         estimate D2E/DX2                !
 ! R119  R(68,70)                1.5295         estimate D2E/DX2                !
 ! R120  R(69,71)                1.5016         estimate D2E/DX2                !
 ! R121  R(69,86)                1.7973         estimate D2E/DX2                !
 ! R122  R(70,72)                1.5018         estimate D2E/DX2                !
 ! R123  R(70,87)                1.7978         estimate D2E/DX2                !
 ! R124  R(71,72)                1.3574         estimate D2E/DX2                !
 ! R125  R(71,73)                1.4294         estimate D2E/DX2                !
 ! R126  R(72,74)                1.4297         estimate D2E/DX2                !
 ! R127  R(73,75)                1.3905         estimate D2E/DX2                !
 ! R128  R(74,76)                1.3802         estimate D2E/DX2                !
 ! R129  R(75,76)                1.429          estimate D2E/DX2                !
 ! R130  R(75,77)                1.4213         estimate D2E/DX2                !
 ! R131  R(76,78)                1.4326         estimate D2E/DX2                !
 ! R132  R(77,81)                1.448          estimate D2E/DX2                !
 ! R133  R(78,81)                1.4272         estimate D2E/DX2                !
 ! R134  R(79,82)                1.5013         estimate D2E/DX2                !
 ! R135  R(79,94)                1.8079         estimate D2E/DX2                !
 ! R136  R(80,82)                1.3954         estimate D2E/DX2                !
 ! R137  R(81,82)                1.3756         estimate D2E/DX2                !
 ! R138  R(83,84)                1.4304         estimate D2E/DX2                !
 ! A1    A(5,1,17)             121.876          estimate D2E/DX2                !
 ! A2    A(5,1,25)             108.1711         estimate D2E/DX2                !
 ! A3    A(17,1,25)            119.9926         estimate D2E/DX2                !
 ! A4    A(6,2,43)             101.2667         estimate D2E/DX2                !
 ! A5    A(6,2,44)             109.6763         estimate D2E/DX2                !
 ! A6    A(6,2,93)             113.4577         estimate D2E/DX2                !
 ! A7    A(43,2,44)            109.7765         estimate D2E/DX2                !
 ! A8    A(43,2,93)            111.9672         estimate D2E/DX2                !
 ! A9    A(44,2,93)            110.3486         estimate D2E/DX2                !
 ! A10   A(7,3,18)             121.8015         estimate D2E/DX2                !
 ! A11   A(7,3,26)             108.263          estimate D2E/DX2                !
 ! A12   A(18,3,26)            121.7667         estimate D2E/DX2                !
 ! A13   A(8,4,45)             110.2631         estimate D2E/DX2                !
 ! A14   A(8,4,46)             101.8058         estimate D2E/DX2                !
 ! A15   A(8,4,95)             112.5318         estimate D2E/DX2                !
 ! A16   A(45,4,46)            110.9044         estimate D2E/DX2                !
 ! A17   A(45,4,95)            109.5233         estimate D2E/DX2                !
 ! A18   A(46,4,95)            111.6358         estimate D2E/DX2                !
 ! A19   A(1,5,9)              122.2876         estimate D2E/DX2                !
 ! A20   A(1,5,29)             108.8694         estimate D2E/DX2                !
 ! A21   A(9,5,29)             120.639          estimate D2E/DX2                !
 ! A22   A(2,6,10)             122.6656         estimate D2E/DX2                !
 ! A23   A(2,6,15)             110.7906         estimate D2E/DX2                !
 ! A24   A(10,6,15)            119.22           estimate D2E/DX2                !
 ! A25   A(3,7,12)             122.2226         estimate D2E/DX2                !
 ! A26   A(3,7,30)             107.8697         estimate D2E/DX2                !
 ! A27   A(12,7,30)            121.5921         estimate D2E/DX2                !
 ! A28   A(4,8,11)             121.7283         estimate D2E/DX2                !
 ! A29   A(4,8,16)             110.2117         estimate D2E/DX2                !
 ! A30   A(11,8,16)            120.2779         estimate D2E/DX2                !
 ! A31   A(5,9,13)             115.4594         estimate D2E/DX2                !
 ! A32   A(5,9,35)             120.0964         estimate D2E/DX2                !
 ! A33   A(13,9,35)            118.9568         estimate D2E/DX2                !
 ! A34   A(6,10,49)            122.887          estimate D2E/DX2                !
 ! A35   A(6,10,53)            119.5351         estimate D2E/DX2                !
 ! A36   A(49,10,53)           111.1467         estimate D2E/DX2                !
 ! A37   A(8,11,50)            122.9024         estimate D2E/DX2                !
 ! A38   A(8,11,54)            119.3298         estimate D2E/DX2                !
 ! A39   A(50,11,54)           110.7296         estimate D2E/DX2                !
 ! A40   A(7,12,14)            115.5796         estimate D2E/DX2                !
 ! A41   A(7,12,36)            119.8402         estimate D2E/DX2                !
 ! A42   A(14,12,36)           118.9585         estimate D2E/DX2                !
 ! A43   A(9,13,15)            122.1457         estimate D2E/DX2                !
 ! A44   A(9,13,43)            121.3302         estimate D2E/DX2                !
 ! A45   A(15,13,43)           109.1186         estimate D2E/DX2                !
 ! A46   A(12,14,16)           122.1042         estimate D2E/DX2                !
 ! A47   A(12,14,46)           121.7043         estimate D2E/DX2                !
 ! A48   A(16,14,46)           109.2902         estimate D2E/DX2                !
 ! A49   A(6,15,13)            108.419          estimate D2E/DX2                !
 ! A50   A(6,15,17)            121.809          estimate D2E/DX2                !
 ! A51   A(13,15,17)           121.7589         estimate D2E/DX2                !
 ! A52   A(8,16,14)            108.2542         estimate D2E/DX2                !
 ! A53   A(8,16,18)            121.8118         estimate D2E/DX2                !
 ! A54   A(14,16,18)           121.3447         estimate D2E/DX2                !
 ! A55   A(1,17,15)            115.6155         estimate D2E/DX2                !
 ! A56   A(1,17,19)            119.7804         estimate D2E/DX2                !
 ! A57   A(15,17,19)           118.5585         estimate D2E/DX2                !
 ! A58   A(3,18,16)            116.218          estimate D2E/DX2                !
 ! A59   A(3,18,20)            118.5652         estimate D2E/DX2                !
 ! A60   A(16,18,20)           118.1752         estimate D2E/DX2                !
 ! A61   A(17,19,21)           120.4482         estimate D2E/DX2                !
 ! A62   A(17,19,53)           118.2303         estimate D2E/DX2                !
 ! A63   A(21,19,53)           118.0708         estimate D2E/DX2                !
 ! A64   A(18,20,22)           117.9369         estimate D2E/DX2                !
 ! A65   A(18,20,54)           118.4373         estimate D2E/DX2                !
 ! A66   A(22,20,54)           116.5043         estimate D2E/DX2                !
 ! A67   A(19,21,23)           113.0401         estimate D2E/DX2                !
 ! A68   A(19,21,57)           112.3321         estimate D2E/DX2                !
 ! A69   A(19,21,96)           108.9274         estimate D2E/DX2                !
 ! A70   A(23,21,57)           101.0916         estimate D2E/DX2                !
 ! A71   A(23,21,96)           110.8185         estimate D2E/DX2                !
 ! A72   A(57,21,96)           110.4742         estimate D2E/DX2                !
 ! A73   A(20,22,24)           122.0011         estimate D2E/DX2                !
 ! A74   A(20,22,58)           121.3038         estimate D2E/DX2                !
 ! A75   A(24,22,58)           108.0211         estimate D2E/DX2                !
 ! A76   A(21,23,25)           121.9416         estimate D2E/DX2                !
 ! A77   A(21,23,61)           112.964          estimate D2E/DX2                !
 ! A78   A(25,23,61)           120.4905         estimate D2E/DX2                !
 ! A79   A(22,24,26)           119.9548         estimate D2E/DX2                !
 ! A80   A(22,24,62)           111.2652         estimate D2E/DX2                !
 ! A81   A(26,24,62)           121.1525         estimate D2E/DX2                !
 ! A82   A(1,25,23)            121.5454         estimate D2E/DX2                !
 ! A83   A(1,25,27)            110.5821         estimate D2E/DX2                !
 ! A84   A(23,25,27)           122.096          estimate D2E/DX2                !
 ! A85   A(3,26,24)            119.7573         estimate D2E/DX2                !
 ! A86   A(3,26,28)            111.4771         estimate D2E/DX2                !
 ! A87   A(24,26,28)           121.2619         estimate D2E/DX2                !
 ! A88   A(25,27,29)           101.1            estimate D2E/DX2                !
 ! A89   A(25,27,65)           110.158          estimate D2E/DX2                !
 ! A90   A(25,27,85)           112.9253         estimate D2E/DX2                !
 ! A91   A(29,27,65)           108.9859         estimate D2E/DX2                !
 ! A92   A(29,27,85)           114.2663         estimate D2E/DX2                !
 ! A93   A(65,27,85)           109.1404         estimate D2E/DX2                !
 ! A94   A(26,28,30)           100.7687         estimate D2E/DX2                !
 ! A95   A(26,28,66)           109.943          estimate D2E/DX2                !
 ! A96   A(26,28,88)           113.5811         estimate D2E/DX2                !
 ! A97   A(30,28,66)           108.7649         estimate D2E/DX2                !
 ! A98   A(30,28,88)           114.401          estimate D2E/DX2                !
 ! A99   A(66,28,88)           109.0705         estimate D2E/DX2                !
 ! A100  A(5,29,27)            111.1122         estimate D2E/DX2                !
 ! A101  A(5,29,31)            119.5987         estimate D2E/DX2                !
 ! A102  A(27,29,31)           121.9118         estimate D2E/DX2                !
 ! A103  A(7,30,28)            111.5661         estimate D2E/DX2                !
 ! A104  A(7,30,32)            119.2834         estimate D2E/DX2                !
 ! A105  A(28,30,32)           121.8688         estimate D2E/DX2                !
 ! A106  A(29,31,33)           120.4696         estimate D2E/DX2                !
 ! A107  A(29,31,69)           121.1608         estimate D2E/DX2                !
 ! A108  A(33,31,69)           111.3358         estimate D2E/DX2                !
 ! A109  A(30,32,34)           120.209          estimate D2E/DX2                !
 ! A110  A(30,32,70)           120.8813         estimate D2E/DX2                !
 ! A111  A(34,32,70)           111.9814         estimate D2E/DX2                !
 ! A112  A(31,33,35)           122.0359         estimate D2E/DX2                !
 ! A113  A(31,33,73)           107.5417         estimate D2E/DX2                !
 ! A114  A(35,33,73)           121.7369         estimate D2E/DX2                !
 ! A115  A(32,34,36)           122.3051         estimate D2E/DX2                !
 ! A116  A(32,34,74)           107.3035         estimate D2E/DX2                !
 ! A117  A(36,34,74)           121.9646         estimate D2E/DX2                !
 ! A118  A(9,35,33)            116.5198         estimate D2E/DX2                !
 ! A119  A(9,35,37)            119.5129         estimate D2E/DX2                !
 ! A120  A(33,35,37)           119.0141         estimate D2E/DX2                !
 ! A121  A(12,36,34)           116.2993         estimate D2E/DX2                !
 ! A122  A(12,36,38)           119.5371         estimate D2E/DX2                !
 ! A123  A(34,36,38)           118.6599         estimate D2E/DX2                !
 ! A124  A(35,37,39)           119.0234         estimate D2E/DX2                !
 ! A125  A(35,37,77)           118.1675         estimate D2E/DX2                !
 ! A126  A(39,37,77)           118.5401         estimate D2E/DX2                !
 ! A127  A(36,38,42)           119.2305         estimate D2E/DX2                !
 ! A128  A(36,38,78)           118.2763         estimate D2E/DX2                !
 ! A129  A(42,38,78)           116.9112         estimate D2E/DX2                !
 ! A130  A(37,39,43)           120.2194         estimate D2E/DX2                !
 ! A131  A(37,39,79)           121.6292         estimate D2E/DX2                !
 ! A132  A(43,39,79)           116.0609         estimate D2E/DX2                !
 ! A133  A(41,40,44)           120.5486         estimate D2E/DX2                !
 ! A134  A(41,40,79)           110.0948         estimate D2E/DX2                !
 ! A135  A(44,40,79)           125.7049         estimate D2E/DX2                !
 ! A136  A(40,41,45)           121.1318         estimate D2E/DX2                !
 ! A137  A(40,41,80)           109.1043         estimate D2E/DX2                !
 ! A138  A(45,41,80)           124.2255         estimate D2E/DX2                !
 ! A139  A(38,42,46)           119.6173         estimate D2E/DX2                !
 ! A140  A(38,42,80)           118.9155         estimate D2E/DX2                !
 ! A141  A(46,42,80)           115.7014         estimate D2E/DX2                !
 ! A142  A(2,43,13)            109.3158         estimate D2E/DX2                !
 ! A143  A(2,43,39)            125.5157         estimate D2E/DX2                !
 ! A144  A(13,43,39)           120.7611         estimate D2E/DX2                !
 ! A145  A(2,44,40)            115.5165         estimate D2E/DX2                !
 ! A146  A(2,44,47)            123.779          estimate D2E/DX2                !
 ! A147  A(40,44,47)           119.1799         estimate D2E/DX2                !
 ! A148  A(4,45,41)            115.4922         estimate D2E/DX2                !
 ! A149  A(4,45,48)            124.3376         estimate D2E/DX2                !
 ! A150  A(41,45,48)           118.9101         estimate D2E/DX2                !
 ! A151  A(4,46,14)            109.781          estimate D2E/DX2                !
 ! A152  A(4,46,42)            124.406          estimate D2E/DX2                !
 ! A153  A(14,46,42)           120.6727         estimate D2E/DX2                !
 ! A154  A(44,47,48)           120.1086         estimate D2E/DX2                !
 ! A155  A(44,47,49)           118.6486         estimate D2E/DX2                !
 ! A156  A(48,47,49)           120.6493         estimate D2E/DX2                !
 ! A157  A(45,48,47)           120.0224         estimate D2E/DX2                !
 ! A158  A(45,48,50)           118.4758         estimate D2E/DX2                !
 ! A159  A(47,48,50)           120.8932         estimate D2E/DX2                !
 ! A160  A(10,49,47)           109.7387         estimate D2E/DX2                !
 ! A161  A(10,49,51)           100.8589         estimate D2E/DX2                !
 ! A162  A(10,49,91)           113.3171         estimate D2E/DX2                !
 ! A163  A(47,49,51)           110.5136         estimate D2E/DX2                !
 ! A164  A(47,49,91)           108.9293         estimate D2E/DX2                !
 ! A165  A(51,49,91)           113.2749         estimate D2E/DX2                !
 ! A166  A(11,50,48)           110.2574         estimate D2E/DX2                !
 ! A167  A(11,50,52)           101.2162         estimate D2E/DX2                !
 ! A168  A(11,50,92)           112.8932         estimate D2E/DX2                !
 ! A169  A(48,50,52)           110.0264         estimate D2E/DX2                !
 ! A170  A(48,50,92)           108.9309         estimate D2E/DX2                !
 ! A171  A(52,50,92)           113.3306         estimate D2E/DX2                !
 ! A172  A(49,51,52)           121.4876         estimate D2E/DX2                !
 ! A173  A(49,51,55)           111.5939         estimate D2E/DX2                !
 ! A174  A(52,51,55)           120.2168         estimate D2E/DX2                !
 ! A175  A(50,52,51)           122.2351         estimate D2E/DX2                !
 ! A176  A(50,52,56)           110.9398         estimate D2E/DX2                !
 ! A177  A(51,52,56)           119.5846         estimate D2E/DX2                !
 ! A178  A(10,53,19)           122.5615         estimate D2E/DX2                !
 ! A179  A(10,53,55)           107.5123         estimate D2E/DX2                !
 ! A180  A(19,53,55)           122.8646         estimate D2E/DX2                !
 ! A181  A(11,54,20)           121.9204         estimate D2E/DX2                !
 ! A182  A(11,54,56)           108.264          estimate D2E/DX2                !
 ! A183  A(20,54,56)           121.6146         estimate D2E/DX2                !
 ! A184  A(51,55,53)           108.5497         estimate D2E/DX2                !
 ! A185  A(51,55,83)           121.8591         estimate D2E/DX2                !
 ! A186  A(53,55,83)           120.0786         estimate D2E/DX2                !
 ! A187  A(52,56,54)           108.6292         estimate D2E/DX2                !
 ! A188  A(52,56,84)           121.6737         estimate D2E/DX2                !
 ! A189  A(54,56,84)           121.669          estimate D2E/DX2                !
 ! A190  A(21,57,59)           110.3487         estimate D2E/DX2                !
 ! A191  A(21,57,83)           123.951          estimate D2E/DX2                !
 ! A192  A(59,57,83)           121.0396         estimate D2E/DX2                !
 ! A193  A(22,58,60)           108.4734         estimate D2E/DX2                !
 ! A194  A(22,58,84)           122.037          estimate D2E/DX2                !
 ! A195  A(60,58,84)           121.4635         estimate D2E/DX2                !
 ! A196  A(57,59,60)           120.8116         estimate D2E/DX2                !
 ! A197  A(57,59,61)           112.9363         estimate D2E/DX2                !
 ! A198  A(60,59,61)           120.8312         estimate D2E/DX2                !
 ! A199  A(58,60,59)           119.5134         estimate D2E/DX2                !
 ! A200  A(58,60,62)           111.3279         estimate D2E/DX2                !
 ! A201  A(59,60,62)           121.9438         estimate D2E/DX2                !
 ! A202  A(23,61,59)           100.3148         estimate D2E/DX2                !
 ! A203  A(23,61,63)           111.2482         estimate D2E/DX2                !
 ! A204  A(23,61,89)           113.8204         estimate D2E/DX2                !
 ! A205  A(59,61,63)           109.4658         estimate D2E/DX2                !
 ! A206  A(59,61,89)           113.5221         estimate D2E/DX2                !
 ! A207  A(63,61,89)           108.3007         estimate D2E/DX2                !
 ! A208  A(24,62,60)           100.8573         estimate D2E/DX2                !
 ! A209  A(24,62,64)           110.0273         estimate D2E/DX2                !
 ! A210  A(24,62,90)           113.6786         estimate D2E/DX2                !
 ! A211  A(60,62,64)           109.5447         estimate D2E/DX2                !
 ! A212  A(60,62,90)           113.7552         estimate D2E/DX2                !
 ! A213  A(64,62,90)           108.7487         estimate D2E/DX2                !
 ! A214  A(61,63,64)           120.4649         estimate D2E/DX2                !
 ! A215  A(61,63,65)           119.76           estimate D2E/DX2                !
 ! A216  A(64,63,65)           119.5351         estimate D2E/DX2                !
 ! A217  A(62,64,63)           119.7812         estimate D2E/DX2                !
 ! A218  A(62,64,66)           120.0418         estimate D2E/DX2                !
 ! A219  A(63,64,66)           119.9879         estimate D2E/DX2                !
 ! A220  A(27,65,63)           119.0689         estimate D2E/DX2                !
 ! A221  A(27,65,67)           119.9666         estimate D2E/DX2                !
 ! A222  A(63,65,67)           120.6602         estimate D2E/DX2                !
 ! A223  A(28,66,64)           119.8386         estimate D2E/DX2                !
 ! A224  A(28,66,68)           119.6397         estimate D2E/DX2                !
 ! A225  A(64,66,68)           120.3044         estimate D2E/DX2                !
 ! A226  A(65,67,68)           119.7907         estimate D2E/DX2                !
 ! A227  A(65,67,69)           119.5703         estimate D2E/DX2                !
 ! A228  A(68,67,69)           120.4099         estimate D2E/DX2                !
 ! A229  A(66,68,67)           119.7097         estimate D2E/DX2                !
 ! A230  A(66,68,70)           119.9089         estimate D2E/DX2                !
 ! A231  A(67,68,70)           120.1681         estimate D2E/DX2                !
 ! A232  A(31,69,67)           108.5106         estimate D2E/DX2                !
 ! A233  A(31,69,71)           101.1949         estimate D2E/DX2                !
 ! A234  A(31,69,86)           114.2309         estimate D2E/DX2                !
 ! A235  A(67,69,71)           110.4735         estimate D2E/DX2                !
 ! A236  A(67,69,86)           108.5231         estimate D2E/DX2                !
 ! A237  A(71,69,86)           113.6778         estimate D2E/DX2                !
 ! A238  A(32,70,68)           108.5587         estimate D2E/DX2                !
 ! A239  A(32,70,72)           101.1006         estimate D2E/DX2                !
 ! A240  A(32,70,87)           114.1428         estimate D2E/DX2                !
 ! A241  A(68,70,72)           110.5138         estimate D2E/DX2                !
 ! A242  A(68,70,87)           108.5919         estimate D2E/DX2                !
 ! A243  A(72,70,87)           113.6974         estimate D2E/DX2                !
 ! A244  A(69,71,72)           121.8268         estimate D2E/DX2                !
 ! A245  A(69,71,73)           110.2082         estimate D2E/DX2                !
 ! A246  A(72,71,73)           119.6489         estimate D2E/DX2                !
 ! A247  A(70,72,71)           121.9261         estimate D2E/DX2                !
 ! A248  A(70,72,74)           110.0756         estimate D2E/DX2                !
 ! A249  A(71,72,74)           119.5018         estimate D2E/DX2                !
 ! A250  A(33,73,71)           109.3171         estimate D2E/DX2                !
 ! A251  A(33,73,75)           119.0225         estimate D2E/DX2                !
 ! A252  A(71,73,75)           121.4235         estimate D2E/DX2                !
 ! A253  A(34,74,72)           109.2004         estimate D2E/DX2                !
 ! A254  A(34,74,76)           119.2365         estimate D2E/DX2                !
 ! A255  A(72,74,76)           121.5337         estimate D2E/DX2                !
 ! A256  A(73,75,76)           118.5989         estimate D2E/DX2                !
 ! A257  A(73,75,77)           120.4167         estimate D2E/DX2                !
 ! A258  A(76,75,77)           108.7648         estimate D2E/DX2                !
 ! A259  A(74,76,75)           119.226          estimate D2E/DX2                !
 ! A260  A(74,76,78)           119.982          estimate D2E/DX2                !
 ! A261  A(75,76,78)           108.5612         estimate D2E/DX2                !
 ! A262  A(37,77,75)           121.3652         estimate D2E/DX2                !
 ! A263  A(37,77,81)           120.5673         estimate D2E/DX2                !
 ! A264  A(75,77,81)           106.3056         estimate D2E/DX2                !
 ! A265  A(38,78,76)           121.7778         estimate D2E/DX2                !
 ! A266  A(38,78,81)           121.9818         estimate D2E/DX2                !
 ! A267  A(76,78,81)           106.4742         estimate D2E/DX2                !
 ! A268  A(39,79,40)           109.9423         estimate D2E/DX2                !
 ! A269  A(39,79,82)           112.4251         estimate D2E/DX2                !
 ! A270  A(39,79,94)           109.9794         estimate D2E/DX2                !
 ! A271  A(40,79,82)           100.6012         estimate D2E/DX2                !
 ! A272  A(40,79,94)           111.5451         estimate D2E/DX2                !
 ! A273  A(82,79,94)           112.0542         estimate D2E/DX2                !
 ! A274  A(41,80,42)           119.3526         estimate D2E/DX2                !
 ! A275  A(41,80,82)           107.0833         estimate D2E/DX2                !
 ! A276  A(42,80,82)           122.5685         estimate D2E/DX2                !
 ! A277  A(77,81,78)           109.107          estimate D2E/DX2                !
 ! A278  A(77,81,82)           120.6559         estimate D2E/DX2                !
 ! A279  A(78,81,82)           119.7657         estimate D2E/DX2                !
 ! A280  A(79,82,80)           111.8749         estimate D2E/DX2                !
 ! A281  A(79,82,81)           121.5502         estimate D2E/DX2                !
 ! A282  A(80,82,81)           119.2612         estimate D2E/DX2                !
 ! A283  A(55,83,57)           117.2905         estimate D2E/DX2                !
 ! A284  A(55,83,84)           117.794          estimate D2E/DX2                !
 ! A285  A(57,83,84)           118.6282         estimate D2E/DX2                !
 ! A286  A(56,84,58)           116.2699         estimate D2E/DX2                !
 ! A287  A(56,84,83)           118.8632         estimate D2E/DX2                !
 ! A288  A(58,84,83)           118.435          estimate D2E/DX2                !
 ! D1    D(17,1,5,9)            -0.9645         estimate D2E/DX2                !
 ! D2    D(17,1,5,29)         -149.508          estimate D2E/DX2                !
 ! D3    D(25,1,5,9)           144.4896         estimate D2E/DX2                !
 ! D4    D(25,1,5,29)           -4.054          estimate D2E/DX2                !
 ! D5    D(5,1,17,15)           -7.1473         estimate D2E/DX2                !
 ! D6    D(5,1,17,19)          145.1287         estimate D2E/DX2                !
 ! D7    D(25,1,17,15)        -148.6783         estimate D2E/DX2                !
 ! D8    D(25,1,17,19)           3.5977         estimate D2E/DX2                !
 ! D9    D(5,1,25,23)         -149.6471         estimate D2E/DX2                !
 ! D10   D(5,1,25,27)            4.0561         estimate D2E/DX2                !
 ! D11   D(17,1,25,23)          -3.4269         estimate D2E/DX2                !
 ! D12   D(17,1,25,27)         150.2762         estimate D2E/DX2                !
 ! D13   D(43,2,6,10)         -140.7089         estimate D2E/DX2                !
 ! D14   D(43,2,6,15)            9.0255         estimate D2E/DX2                !
 ! D15   D(44,2,6,10)          -24.7561         estimate D2E/DX2                !
 ! D16   D(44,2,6,15)          124.9783         estimate D2E/DX2                !
 ! D17   D(93,2,6,10)           99.143          estimate D2E/DX2                !
 ! D18   D(93,2,6,15)         -111.1226         estimate D2E/DX2                !
 ! D19   D(6,2,43,13)          -10.4013         estimate D2E/DX2                !
 ! D20   D(6,2,43,39)          145.9468         estimate D2E/DX2                !
 ! D21   D(44,2,43,13)        -126.2802         estimate D2E/DX2                !
 ! D22   D(44,2,43,39)          30.0679         estimate D2E/DX2                !
 ! D23   D(93,2,43,13)         110.7986         estimate D2E/DX2                !
 ! D24   D(93,2,43,39)         -92.8533         estimate D2E/DX2                !
 ! D25   D(6,2,44,40)         -144.7559         estimate D2E/DX2                !
 ! D26   D(6,2,44,47)           21.0018         estimate D2E/DX2                !
 ! D27   D(43,2,44,40)         -34.3255         estimate D2E/DX2                !
 ! D28   D(43,2,44,47)         131.4323         estimate D2E/DX2                !
 ! D29   D(93,2,44,40)          89.546          estimate D2E/DX2                !
 ! D30   D(93,2,44,47)        -104.6962         estimate D2E/DX2                !
 ! D31   D(18,3,7,12)            2.7265         estimate D2E/DX2                !
 ! D32   D(18,3,7,30)          151.3584         estimate D2E/DX2                !
 ! D33   D(26,3,7,12)         -146.2476         estimate D2E/DX2                !
 ! D34   D(26,3,7,30)            2.3842         estimate D2E/DX2                !
 ! D35   D(7,3,18,16)            5.2307         estimate D2E/DX2                !
 ! D36   D(7,3,18,20)         -144.9236         estimate D2E/DX2                !
 ! D37   D(26,3,18,16)         150.0819         estimate D2E/DX2                !
 ! D38   D(26,3,18,20)          -0.0725         estimate D2E/DX2                !
 ! D39   D(7,3,26,24)          147.8623         estimate D2E/DX2                !
 ! D40   D(7,3,26,28)           -2.2867         estimate D2E/DX2                !
 ! D41   D(18,3,26,24)          -1.1248         estimate D2E/DX2                !
 ! D42   D(18,3,26,28)        -151.2738         estimate D2E/DX2                !
 ! D43   D(45,4,8,11)           24.2895         estimate D2E/DX2                !
 ! D44   D(45,4,8,16)         -124.9501         estimate D2E/DX2                !
 ! D45   D(46,4,8,11)          142.0472         estimate D2E/DX2                !
 ! D46   D(46,4,8,16)           -7.1925         estimate D2E/DX2                !
 ! D47   D(95,4,8,11)          -98.315          estimate D2E/DX2                !
 ! D48   D(95,4,8,16)          112.4454         estimate D2E/DX2                !
 ! D49   D(8,4,45,41)          145.2912         estimate D2E/DX2                !
 ! D50   D(8,4,45,48)          -21.6985         estimate D2E/DX2                !
 ! D51   D(46,4,45,41)          33.2997         estimate D2E/DX2                !
 ! D52   D(46,4,45,48)        -133.6899         estimate D2E/DX2                !
 ! D53   D(95,4,45,41)         -90.3553         estimate D2E/DX2                !
 ! D54   D(95,4,45,48)         102.655          estimate D2E/DX2                !
 ! D55   D(8,4,46,14)            8.0954         estimate D2E/DX2                !
 ! D56   D(8,4,46,42)         -146.5114         estimate D2E/DX2                !
 ! D57   D(45,4,46,14)         125.391          estimate D2E/DX2                !
 ! D58   D(45,4,46,42)         -29.2158         estimate D2E/DX2                !
 ! D59   D(95,4,46,14)        -112.1733         estimate D2E/DX2                !
 ! D60   D(95,4,46,42)          93.2199         estimate D2E/DX2                !
 ! D61   D(1,5,9,13)             6.9777         estimate D2E/DX2                !
 ! D62   D(1,5,9,35)          -146.6246         estimate D2E/DX2                !
 ! D63   D(29,5,9,13)          151.9531         estimate D2E/DX2                !
 ! D64   D(29,5,9,35)           -1.6491         estimate D2E/DX2                !
 ! D65   D(1,5,29,27)            2.6221         estimate D2E/DX2                !
 ! D66   D(1,5,29,31)          153.1997         estimate D2E/DX2                !
 ! D67   D(9,5,29,27)         -146.5313         estimate D2E/DX2                !
 ! D68   D(9,5,29,31)            4.0463         estimate D2E/DX2                !
 ! D69   D(2,6,10,49)           -0.7979         estimate D2E/DX2                !
 ! D70   D(2,6,10,53)          148.5325         estimate D2E/DX2                !
 ! D71   D(15,6,10,49)        -148.1217         estimate D2E/DX2                !
 ! D72   D(15,6,10,53)           1.2087         estimate D2E/DX2                !
 ! D73   D(2,6,15,13)           -4.5749         estimate D2E/DX2                !
 ! D74   D(2,6,15,17)         -153.8207         estimate D2E/DX2                !
 ! D75   D(10,6,15,13)         146.3369         estimate D2E/DX2                !
 ! D76   D(10,6,15,17)          -2.9088         estimate D2E/DX2                !
 ! D77   D(3,7,12,14)           -6.9698         estimate D2E/DX2                !
 ! D78   D(3,7,12,36)          146.3372         estimate D2E/DX2                !
 ! D79   D(30,7,12,14)        -151.4053         estimate D2E/DX2                !
 ! D80   D(30,7,12,36)           1.9017         estimate D2E/DX2                !
 ! D81   D(3,7,30,28)           -1.6337         estimate D2E/DX2                !
 ! D82   D(3,7,30,32)         -152.3897         estimate D2E/DX2                !
 ! D83   D(12,7,30,28)         147.2364         estimate D2E/DX2                !
 ! D84   D(12,7,30,32)          -3.5196         estimate D2E/DX2                !
 ! D85   D(4,8,11,50)            1.0829         estimate D2E/DX2                !
 ! D86   D(4,8,11,54)         -146.8129         estimate D2E/DX2                !
 ! D87   D(16,8,11,50)         147.3194         estimate D2E/DX2                !
 ! D88   D(16,8,11,54)          -0.5764         estimate D2E/DX2                !
 ! D89   D(4,8,16,14)            3.9429         estimate D2E/DX2                !
 ! D90   D(4,8,16,18)          152.0649         estimate D2E/DX2                !
 ! D91   D(11,8,16,14)        -145.8102         estimate D2E/DX2                !
 ! D92   D(11,8,16,18)           2.3118         estimate D2E/DX2                !
 ! D93   D(5,9,13,15)           -4.8217         estimate D2E/DX2                !
 ! D94   D(5,9,13,43)         -151.4785         estimate D2E/DX2                !
 ! D95   D(35,9,13,15)         149.0987         estimate D2E/DX2                !
 ! D96   D(35,9,13,43)           2.4419         estimate D2E/DX2                !
 ! D97   D(5,9,35,33)           -4.8661         estimate D2E/DX2                !
 ! D98   D(5,9,35,37)          150.0057         estimate D2E/DX2                !
 ! D99   D(13,9,35,33)        -157.5577         estimate D2E/DX2                !
 ! D100  D(13,9,35,37)          -2.6859         estimate D2E/DX2                !
 ! D101  D(6,10,49,47)          29.7553         estimate D2E/DX2                !
 ! D102  D(6,10,49,51)         146.3658         estimate D2E/DX2                !
 ! D103  D(6,10,49,91)         -92.2475         estimate D2E/DX2                !
 ! D104  D(53,10,49,47)       -121.8302         estimate D2E/DX2                !
 ! D105  D(53,10,49,51)         -5.2197         estimate D2E/DX2                !
 ! D106  D(53,10,49,91)        116.167          estimate D2E/DX2                !
 ! D107  D(6,10,53,19)           1.543          estimate D2E/DX2                !
 ! D108  D(6,10,53,55)        -149.6975         estimate D2E/DX2                !
 ! D109  D(49,10,53,19)        154.203          estimate D2E/DX2                !
 ! D110  D(49,10,53,55)          2.9625         estimate D2E/DX2                !
 ! D111  D(8,11,50,48)         -29.163          estimate D2E/DX2                !
 ! D112  D(8,11,50,52)        -145.6071         estimate D2E/DX2                !
 ! D113  D(8,11,50,92)          92.926          estimate D2E/DX2                !
 ! D114  D(54,11,50,48)        121.1404         estimate D2E/DX2                !
 ! D115  D(54,11,50,52)          4.6963         estimate D2E/DX2                !
 ! D116  D(54,11,50,92)       -116.7706         estimate D2E/DX2                !
 ! D117  D(8,11,54,20)          -0.9955         estimate D2E/DX2                !
 ! D118  D(8,11,54,56)         147.8683         estimate D2E/DX2                !
 ! D119  D(50,11,54,20)       -152.4993         estimate D2E/DX2                !
 ! D120  D(50,11,54,56)         -3.6355         estimate D2E/DX2                !
 ! D121  D(7,12,14,16)           3.5033         estimate D2E/DX2                !
 ! D122  D(7,12,14,46)         151.277          estimate D2E/DX2                !
 ! D123  D(36,12,14,16)       -150.0521         estimate D2E/DX2                !
 ! D124  D(36,12,14,46)         -2.2785         estimate D2E/DX2                !
 ! D125  D(7,12,36,34)           3.6481         estimate D2E/DX2                !
 ! D126  D(7,12,36,38)        -149.8521         estimate D2E/DX2                !
 ! D127  D(14,12,36,34)        156.062          estimate D2E/DX2                !
 ! D128  D(14,12,36,38)          2.5618         estimate D2E/DX2                !
 ! D129  D(9,13,15,6)         -152.6597         estimate D2E/DX2                !
 ! D130  D(9,13,15,17)          -3.3955         estimate D2E/DX2                !
 ! D131  D(43,13,15,6)          -2.4557         estimate D2E/DX2                !
 ! D132  D(43,13,15,17)        146.8085         estimate D2E/DX2                !
 ! D133  D(9,13,43,2)          158.899          estimate D2E/DX2                !
 ! D134  D(9,13,43,39)           1.233          estimate D2E/DX2                !
 ! D135  D(15,13,43,2)           8.4078         estimate D2E/DX2                !
 ! D136  D(15,13,43,39)       -149.2581         estimate D2E/DX2                !
 ! D137  D(12,14,16,8)         152.7454         estimate D2E/DX2                !
 ! D138  D(12,14,16,18)          4.4455         estimate D2E/DX2                !
 ! D139  D(46,14,16,8)           1.4748         estimate D2E/DX2                !
 ! D140  D(46,14,16,18)       -146.8252         estimate D2E/DX2                !
 ! D141  D(12,14,46,4)        -157.6417         estimate D2E/DX2                !
 ! D142  D(12,14,46,42)         -1.9319         estimate D2E/DX2                !
 ! D143  D(16,14,46,4)          -6.235          estimate D2E/DX2                !
 ! D144  D(16,14,46,42)        149.4748         estimate D2E/DX2                !
 ! D145  D(6,15,17,1)          154.4813         estimate D2E/DX2                !
 ! D146  D(6,15,17,19)           1.8496         estimate D2E/DX2                !
 ! D147  D(13,15,17,1)           9.2731         estimate D2E/DX2                !
 ! D148  D(13,15,17,19)       -143.3587         estimate D2E/DX2                !
 ! D149  D(8,16,18,3)         -152.6686         estimate D2E/DX2                !
 ! D150  D(8,16,18,20)          -2.3937         estimate D2E/DX2                !
 ! D151  D(14,16,18,3)          -8.6301         estimate D2E/DX2                !
 ! D152  D(14,16,18,20)        141.6448         estimate D2E/DX2                !
 ! D153  D(1,17,19,21)           8.6302         estimate D2E/DX2                !
 ! D154  D(1,17,19,53)        -150.6178         estimate D2E/DX2                !
 ! D155  D(15,17,19,21)        160.1015         estimate D2E/DX2                !
 ! D156  D(15,17,19,53)          0.8534         estimate D2E/DX2                !
 ! D157  D(3,18,20,22)           0.88           estimate D2E/DX2                !
 ! D158  D(3,18,20,54)         150.3791         estimate D2E/DX2                !
 ! D159  D(16,18,20,22)       -148.6904         estimate D2E/DX2                !
 ! D160  D(16,18,20,54)          0.8086         estimate D2E/DX2                !
 ! D161  D(17,19,21,23)        -19.394          estimate D2E/DX2                !
 ! D162  D(17,19,21,57)       -133.0167         estimate D2E/DX2                !
 ! D163  D(17,19,21,96)        104.2571         estimate D2E/DX2                !
 ! D164  D(53,19,21,23)        139.8864         estimate D2E/DX2                !
 ! D165  D(53,19,21,57)         26.2637         estimate D2E/DX2                !
 ! D166  D(53,19,21,96)        -96.4626         estimate D2E/DX2                !
 ! D167  D(17,19,53,10)         -2.5651         estimate D2E/DX2                !
 ! D168  D(17,19,53,55)        144.324          estimate D2E/DX2                !
 ! D169  D(21,19,53,10)       -162.3113         estimate D2E/DX2                !
 ! D170  D(21,19,53,55)        -15.4222         estimate D2E/DX2                !
 ! D171  D(18,20,22,24)         -0.5528         estimate D2E/DX2                !
 ! D172  D(18,20,22,58)        143.2469         estimate D2E/DX2                !
 ! D173  D(54,20,22,24)       -150.637          estimate D2E/DX2                !
 ! D174  D(54,20,22,58)         -6.8373         estimate D2E/DX2                !
 ! D175  D(18,20,54,11)          0.8583         estimate D2E/DX2                !
 ! D176  D(18,20,54,56)       -143.9302         estimate D2E/DX2                !
 ! D177  D(22,20,54,11)        150.7877         estimate D2E/DX2                !
 ! D178  D(22,20,54,56)          5.9992         estimate D2E/DX2                !
 ! D179  D(19,21,23,25)         19.9591         estimate D2E/DX2                !
 ! D180  D(19,21,23,61)       -136.0446         estimate D2E/DX2                !
 ! D181  D(57,21,23,25)        140.2339         estimate D2E/DX2                !
 ! D182  D(57,21,23,61)        -15.7699         estimate D2E/DX2                !
 ! D183  D(96,21,23,25)       -102.6444         estimate D2E/DX2                !
 ! D184  D(96,21,23,61)        101.3518         estimate D2E/DX2                !
 ! D185  D(19,21,57,59)        133.9418         estimate D2E/DX2                !
 ! D186  D(19,21,57,83)        -21.9363         estimate D2E/DX2                !
 ! D187  D(23,21,57,59)         13.1651         estimate D2E/DX2                !
 ! D188  D(23,21,57,83)       -142.713          estimate D2E/DX2                !
 ! D189  D(96,21,57,59)       -104.2085         estimate D2E/DX2                !
 ! D190  D(96,21,57,83)         99.9134         estimate D2E/DX2                !
 ! D191  D(20,22,24,26)         -0.6356         estimate D2E/DX2                !
 ! D192  D(20,22,24,62)        149.2454         estimate D2E/DX2                !
 ! D193  D(58,22,24,26)       -148.5853         estimate D2E/DX2                !
 ! D194  D(58,22,24,62)          1.2958         estimate D2E/DX2                !
 ! D195  D(20,22,58,60)       -147.9696         estimate D2E/DX2                !
 ! D196  D(20,22,58,84)          1.1493         estimate D2E/DX2                !
 ! D197  D(24,22,58,60)          0.2478         estimate D2E/DX2                !
 ! D198  D(24,22,58,84)        149.3667         estimate D2E/DX2                !
 ! D199  D(21,23,25,1)          -9.2763         estimate D2E/DX2                !
 ! D200  D(21,23,25,27)       -159.964          estimate D2E/DX2                !
 ! D201  D(61,23,25,1)         144.9678         estimate D2E/DX2                !
 ! D202  D(61,23,25,27)         -5.7199         estimate D2E/DX2                !
 ! D203  D(21,23,61,59)         12.1315         estimate D2E/DX2                !
 ! D204  D(21,23,61,63)        127.8654         estimate D2E/DX2                !
 ! D205  D(21,23,61,89)       -109.4547         estimate D2E/DX2                !
 ! D206  D(25,23,61,59)       -144.2602         estimate D2E/DX2                !
 ! D207  D(25,23,61,63)        -28.5263         estimate D2E/DX2                !
 ! D208  D(25,23,61,89)         94.1536         estimate D2E/DX2                !
 ! D209  D(22,24,26,3)           1.4614         estimate D2E/DX2                !
 ! D210  D(22,24,26,28)        148.651          estimate D2E/DX2                !
 ! D211  D(62,24,26,3)        -145.4162         estimate D2E/DX2                !
 ! D212  D(62,24,26,28)          1.7733         estimate D2E/DX2                !
 ! D213  D(22,24,62,60)         -2.1567         estimate D2E/DX2                !
 ! D214  D(22,24,62,64)       -117.7814         estimate D2E/DX2                !
 ! D215  D(22,24,62,90)        119.983          estimate D2E/DX2                !
 ! D216  D(26,24,62,60)        147.3108         estimate D2E/DX2                !
 ! D217  D(26,24,62,64)         31.686          estimate D2E/DX2                !
 ! D218  D(26,24,62,90)        -90.5496         estimate D2E/DX2                !
 ! D219  D(1,25,27,29)          -2.3398         estimate D2E/DX2                !
 ! D220  D(1,25,27,65)        -117.5026         estimate D2E/DX2                !
 ! D221  D(1,25,27,85)         120.188          estimate D2E/DX2                !
 ! D222  D(23,25,27,29)        151.1939         estimate D2E/DX2                !
 ! D223  D(23,25,27,65)         36.0311         estimate D2E/DX2                !
 ! D224  D(23,25,27,85)        -86.2783         estimate D2E/DX2                !
 ! D225  D(3,26,28,30)           1.2384         estimate D2E/DX2                !
 ! D226  D(3,26,28,66)         115.906          estimate D2E/DX2                !
 ! D227  D(3,26,28,88)        -121.5719         estimate D2E/DX2                !
 ! D228  D(24,26,28,30)       -148.3964         estimate D2E/DX2                !
 ! D229  D(24,26,28,66)        -33.7288         estimate D2E/DX2                !
 ! D230  D(24,26,28,88)         88.7932         estimate D2E/DX2                !
 ! D231  D(25,27,29,5)          -0.1482         estimate D2E/DX2                !
 ! D232  D(25,27,29,31)       -149.9369         estimate D2E/DX2                !
 ! D233  D(65,27,29,5)         115.8845         estimate D2E/DX2                !
 ! D234  D(65,27,29,31)        -33.9041         estimate D2E/DX2                !
 ! D235  D(85,27,29,5)        -121.7407         estimate D2E/DX2                !
 ! D236  D(85,27,29,31)         88.4706         estimate D2E/DX2                !
 ! D237  D(25,27,65,63)        -31.1422         estimate D2E/DX2                !
 ! D238  D(25,27,65,67)        142.5657         estimate D2E/DX2                !
 ! D239  D(29,27,65,63)       -141.2131         estimate D2E/DX2                !
 ! D240  D(29,27,65,67)         32.4947         estimate D2E/DX2                !
 ! D241  D(85,27,65,63)         93.374          estimate D2E/DX2                !
 ! D242  D(85,27,65,67)        -92.9182         estimate D2E/DX2                !
 ! D243  D(26,28,30,7)           0.2764         estimate D2E/DX2                !
 ! D244  D(26,28,30,32)        150.1617         estimate D2E/DX2                !
 ! D245  D(66,28,30,7)        -115.2742         estimate D2E/DX2                !
 ! D246  D(66,28,30,32)         34.6111         estimate D2E/DX2                !
 ! D247  D(88,28,30,7)         122.5146         estimate D2E/DX2                !
 ! D248  D(88,28,30,32)        -87.6001         estimate D2E/DX2                !
 ! D249  D(26,28,66,64)         31.7298         estimate D2E/DX2                !
 ! D250  D(26,28,66,68)       -142.9307         estimate D2E/DX2                !
 ! D251  D(30,28,66,64)        141.1928         estimate D2E/DX2                !
 ! D252  D(30,28,66,68)        -33.4678         estimate D2E/DX2                !
 ! D253  D(88,28,66,64)        -93.42           estimate D2E/DX2                !
 ! D254  D(88,28,66,68)         91.9194         estimate D2E/DX2                !
 ! D255  D(5,29,31,33)           0.3139         estimate D2E/DX2                !
 ! D256  D(5,29,31,69)        -147.7957         estimate D2E/DX2                !
 ! D257  D(27,29,31,33)        147.6395         estimate D2E/DX2                !
 ! D258  D(27,29,31,69)         -0.4701         estimate D2E/DX2                !
 ! D259  D(7,30,32,34)          -0.6343         estimate D2E/DX2                !
 ! D260  D(7,30,32,70)         147.8905         estimate D2E/DX2                !
 ! D261  D(28,30,32,34)       -148.2923         estimate D2E/DX2                !
 ! D262  D(28,30,32,70)          0.2325         estimate D2E/DX2                !
 ! D263  D(29,31,33,35)         -7.3062         estimate D2E/DX2                !
 ! D264  D(29,31,33,73)       -155.3629         estimate D2E/DX2                !
 ! D265  D(69,31,33,35)        143.6594         estimate D2E/DX2                !
 ! D266  D(69,31,33,73)         -4.3973         estimate D2E/DX2                !
 ! D267  D(29,31,69,67)         35.1827         estimate D2E/DX2                !
 ! D268  D(29,31,69,71)        151.4318         estimate D2E/DX2                !
 ! D269  D(29,31,69,86)        -86.0201         estimate D2E/DX2                !
 ! D270  D(33,31,69,67)       -115.5529         estimate D2E/DX2                !
 ! D271  D(33,31,69,71)          0.6961         estimate D2E/DX2                !
 ! D272  D(33,31,69,86)        123.2443         estimate D2E/DX2                !
 ! D273  D(30,32,34,36)          6.5644         estimate D2E/DX2                !
 ! D274  D(30,32,34,74)        155.1057         estimate D2E/DX2                !
 ! D275  D(70,32,34,36)       -144.5385         estimate D2E/DX2                !
 ! D276  D(70,32,34,74)          4.0028         estimate D2E/DX2                !
 ! D277  D(30,32,70,68)        -35.2305         estimate D2E/DX2                !
 ! D278  D(30,32,70,72)       -151.4989         estimate D2E/DX2                !
 ! D279  D(30,32,70,87)         86.037          estimate D2E/DX2                !
 ! D280  D(34,32,70,68)        115.6525         estimate D2E/DX2                !
 ! D281  D(34,32,70,72)         -0.616          estimate D2E/DX2                !
 ! D282  D(34,32,70,87)       -123.08           estimate D2E/DX2                !
 ! D283  D(31,33,35,9)           9.3657         estimate D2E/DX2                !
 ! D284  D(31,33,35,37)       -145.6368         estimate D2E/DX2                !
 ! D285  D(73,33,35,9)         152.9832         estimate D2E/DX2                !
 ! D286  D(73,33,35,37)         -2.0192         estimate D2E/DX2                !
 ! D287  D(31,33,73,71)          6.4492         estimate D2E/DX2                !
 ! D288  D(31,33,73,75)        152.1674         estimate D2E/DX2                !
[...]
 Alpha virt. eigenvalues --    1.43007   1.44055   1.44091   1.44836   1.45322
 Alpha virt. eigenvalues --    1.45854   1.46313   1.46569   1.47193   1.47558
 Alpha virt. eigenvalues --    1.48211   1.48251   1.49045   1.49348   1.49883
 Alpha virt. eigenvalues --    1.50604   1.50974   1.51138   1.52088   1.52477
 Alpha virt. eigenvalues --    1.53208   1.53625   1.53991   1.54741   1.55312
 Alpha virt. eigenvalues --    1.56269   1.56872   1.57144   1.57377   1.57745
 Alpha virt. eigenvalues --    1.58770   1.59501   1.59710   1.60001   1.60278
 Alpha virt. eigenvalues --    1.60926   1.61631   1.61945   1.62284   1.62631
 Alpha virt. eigenvalues --    1.62854   1.63168   1.63384   1.63602   1.63944
 Alpha virt. eigenvalues --    1.64238   1.64512   1.64951   1.65124   1.65227
 Alpha virt. eigenvalues --    1.65532   1.65850   1.66143   1.66227   1.66350
 Alpha virt. eigenvalues --    1.66641   1.66903   1.67059   1.67361   1.67483
 Alpha virt. eigenvalues --    1.67585   1.67831   1.68388   1.68457   1.68524
 Alpha virt. eigenvalues --    1.68656   1.69139   1.69350   1.69528   1.69863
 Alpha virt. eigenvalues --    1.69920   1.70141   1.70418   1.70696   1.70768
 Alpha virt. eigenvalues --    1.71044   1.71698   1.71732   1.72142   1.72273
 Alpha virt. eigenvalues --    1.72496   1.72683   1.72900   1.72943   1.73380
 Alpha virt. eigenvalues --    1.73834   1.74066   1.74563   1.74727   1.74918
 Alpha virt. eigenvalues --    1.75202   1.75296   1.75629   1.75765   1.76193
 Alpha virt. eigenvalues --    1.76330   1.76588   1.76835   1.76885   1.77083
 Alpha virt. eigenvalues --    1.77364   1.77637   1.77996   1.78153   1.78272
 Alpha virt. eigenvalues --    1.78605   1.78743   1.78791   1.79092   1.79365
 Alpha virt. eigenvalues --    1.79555   1.79582   1.79949   1.80113   1.80216
 Alpha virt. eigenvalues --    1.80707   1.81156   1.81213   1.81600   1.81906
 Alpha virt. eigenvalues --    1.82054   1.82267   1.82554   1.83045   1.83239
 Alpha virt. eigenvalues --    1.83696   1.84123   1.84452   1.84618   1.85089
 Alpha virt. eigenvalues --    1.85258   1.85384   1.85680   1.85806   1.86514
 Alpha virt. eigenvalues --    1.86680   1.87412   1.87565   1.88005   1.88168
 Alpha virt. eigenvalues --    1.88528   1.88600   1.88825   1.88913   1.89780
 Alpha virt. eigenvalues --    1.90074   1.90186   1.90677   1.91183   1.91278
 Alpha virt. eigenvalues --    1.91963   1.92095   1.92569   1.93025   1.93308
 Alpha virt. eigenvalues --    1.93488   1.94163   1.94467   1.94517   1.94745
 Alpha virt. eigenvalues --    1.95184   1.95496   1.96294   1.96663   1.97091
 Alpha virt. eigenvalues --    1.97250   1.97949   1.98138   1.98755   1.99080
 Alpha virt. eigenvalues --    1.99180   1.99248   1.99504   1.99831   2.00051
 Alpha virt. eigenvalues --    2.00339   2.00437   2.00943   2.01253   2.01445
 Alpha virt. eigenvalues --    2.01939   2.01971   2.02175   2.02376   2.02940
 Alpha virt. eigenvalues --    2.03329   2.03489   2.03821   2.04196   2.04628
 Alpha virt. eigenvalues --    2.05435   2.05612   2.06252   2.06715   2.06856
 Alpha virt. eigenvalues --    2.06947   2.07272   2.07518   2.08105   2.08522
 Alpha virt. eigenvalues --    2.08722   2.09114   2.09424   2.09754   2.10472
 Alpha virt. eigenvalues --    2.10586   2.10798   2.11126   2.11808   2.11901
 Alpha virt. eigenvalues --    2.12435   2.12718   2.12995   2.13929   2.14243
 Alpha virt. eigenvalues --    2.14405   2.14957   2.15359   2.15670   2.16220
 Alpha virt. eigenvalues --    2.16835   2.17372   2.17438   2.17732   2.17911
 Alpha virt. eigenvalues --    2.18311   2.18362   2.19074   2.19493   2.19720
 Alpha virt. eigenvalues --    2.20566   2.20699   2.21305   2.21583   2.22048
 Alpha virt. eigenvalues --    2.22443   2.22788   2.23521   2.23818   2.23926
 Alpha virt. eigenvalues --    2.24194   2.24700   2.24864   2.25293   2.25684
 Alpha virt. eigenvalues --    2.26317   2.26637   2.27222   2.27537   2.27782
 Alpha virt. eigenvalues --    2.28044   2.28993   2.29287   2.29656   2.29804
 Alpha virt. eigenvalues --    2.30034   2.30735   2.31073   2.31436   2.32183
 Alpha virt. eigenvalues --    2.32973   2.33537   2.33927   2.34488   2.34726
 Alpha virt. eigenvalues --    2.35165   2.35704   2.35995   2.36317   2.37376
 Alpha virt. eigenvalues --    2.38186   2.38635   2.39303   2.39321   2.39935
 Alpha virt. eigenvalues --    2.40047   2.40396   2.41257   2.41336   2.42037
 Alpha virt. eigenvalues --    2.42791   2.42971   2.43382   2.43970   2.44525
 Alpha virt. eigenvalues --    2.45217   2.45291   2.45817   2.46341   2.46739
 Alpha virt. eigenvalues --    2.47215   2.48123   2.48704   2.48817   2.49821
 Alpha virt. eigenvalues --    2.49902   2.50455   2.50714   2.51498   2.51913
 Alpha virt. eigenvalues --    2.52370   2.52593   2.52965   2.53442   2.53907
 Alpha virt. eigenvalues --    2.54032   2.54911   2.55168   2.55453   2.55812
 Alpha virt. eigenvalues --    2.55934   2.56255   2.56389   2.56756   2.57216
 Alpha virt. eigenvalues --    2.57252   2.57639   2.58357   2.58450   2.58727
 Alpha virt. eigenvalues --    2.58996   2.59589   2.59681   2.59961   2.60527
 Alpha virt. eigenvalues --    2.60899   2.61210   2.62116   2.62192   2.62557
 Alpha virt. eigenvalues --    2.62975   2.63192   2.63603   2.63969   2.64299
 Alpha virt. eigenvalues --    2.64611   2.64747   2.65407   2.65579   2.65886
 Alpha virt. eigenvalues --    2.66120   2.66743   2.67245   2.67392   2.67844
 Alpha virt. eigenvalues --    2.68222   2.68517   2.68925   2.69366   2.69838
 Alpha virt. eigenvalues --    2.70101   2.70331   2.70745   2.71085   2.71258
 Alpha virt. eigenvalues --    2.71555   2.71750   2.72461   2.72751   2.73273
 Alpha virt. eigenvalues --    2.73633   2.73959   2.74123   2.74639   2.75066
 Alpha virt. eigenvalues --    2.75390   2.75537   2.76127   2.76411   2.76806
 Alpha virt. eigenvalues --    2.77189   2.77361   2.77985   2.78090   2.78713
 Alpha virt. eigenvalues --    2.78843   2.79490   2.79953   2.80642   2.81162
 Alpha virt. eigenvalues --    2.81389   2.81734   2.82193   2.82978   2.83615
 Alpha virt. eigenvalues --    2.84274   2.84630   2.85851   2.86009   2.86851
 Alpha virt. eigenvalues --    2.87285   2.87846   2.87978   2.88410   2.88657
 Alpha virt. eigenvalues --    2.89355   2.89742   2.89979   2.90412   2.90832
 Alpha virt. eigenvalues --    2.91115   2.91624   2.91919   2.92606   2.92763
 Alpha virt. eigenvalues --    2.93745   2.94121   2.94265   2.94898   2.95337
 Alpha virt. eigenvalues --    2.97217   2.97537   2.98975   2.99968   3.00776
 Alpha virt. eigenvalues --    3.01748   3.02475   3.03543   3.04896   3.07941
 Alpha virt. eigenvalues --    3.08869   3.09872   3.10294   3.10599   3.11986
 Alpha virt. eigenvalues --    3.13752   3.14167   3.15160   3.16286   3.18214
 Alpha virt. eigenvalues --    3.19906   3.20400   3.21510   3.23326   3.24369
 Alpha virt. eigenvalues --    3.26238   3.28459   3.28709   3.29976   3.31599
 Alpha virt. eigenvalues --    3.33920   3.35311   3.38506   3.39638   3.42415
 Alpha virt. eigenvalues --    3.43764   3.46101   3.47029   3.49024   3.49218
 Alpha virt. eigenvalues --    3.53102   3.55596   3.65861   4.00641   4.01394
 Alpha virt. eigenvalues --    4.01625   4.02089   4.03031   4.03559   4.03951
 Alpha virt. eigenvalues --    4.05190   4.05876   4.06512   4.06971   4.08024
 Alpha virt. eigenvalues --    4.08507   4.09035   4.09307   4.09931   4.10467
 Alpha virt. eigenvalues --    4.11548   4.12050   4.12265   4.12724   4.15562
 Alpha virt. eigenvalues --    4.16270   4.16445   4.16552   4.17884   4.18831
 Alpha virt. eigenvalues --    4.19237   4.19904   4.20325   4.20751   4.22082
 Alpha virt. eigenvalues --    4.22822   4.23621   4.24546   4.25355   4.25837
 Alpha virt. eigenvalues --    4.26429   4.26762   4.26978   4.27529   4.27921
 Alpha virt. eigenvalues --    4.28441   4.28907   4.29281   4.29669   4.30915
 Alpha virt. eigenvalues --    4.32002   4.33650   4.34352   4.34874   4.36305
 Alpha virt. eigenvalues --    4.37380   4.38478   4.39506   4.39577   4.40780
 Alpha virt. eigenvalues --    4.41480   4.42096   4.43314   4.44238   4.44919
 Alpha virt. eigenvalues --    4.46949   4.47862   4.48552   4.50903   4.51559
 Alpha virt. eigenvalues --    4.53173   4.54381   4.56588   4.57714   4.58301
 Alpha virt. eigenvalues --    4.59298   4.60471   4.62029   4.64007   4.64982
 Alpha virt. eigenvalues --    4.66915   4.68352   4.72937   4.77500   4.78813
 Alpha virt. eigenvalues --    4.80291   4.80778   4.85680   4.86135   4.87655
 Alpha virt. eigenvalues --    4.91531   4.92546   4.98283   5.02775   5.04146
 Alpha virt. eigenvalues --    5.07279   5.13640   5.15816   5.25797
          Condensed to atoms (all electrons):
 Mulliken charges:
               1
     1  C   -0.019338
     2  C   -0.386744
     3  C    0.010124
     4  C   -0.372390
     5  C    0.014007
     6  C    0.091085
     7  C    0.007329
     8  C    0.092596
     9  C    0.040871
    10  C    0.090557
    11  C    0.091573
    12  C    0.045732
    13  C    0.004268
    14  C    0.012306
    15  C    0.010839
    16  C    0.006780
    17  C    0.072334
    18  C    0.043065
    19  C    0.095159
    20  C    0.044262
    21  C   -0.327251
    22  C    0.009890
    23  C    0.157309
    24  C    0.091100
    25  C    0.108509
    26  C    0.088770
    27  C   -0.380432
    28  C   -0.378996
    29  C    0.088898
    30  C    0.086823
    31  C    0.088839
    32  C    0.092230
    33  C    0.001378
    34  C    0.005707
    35  C    0.032347
    36  C    0.032098
    37  C    0.077180
    38  C    0.046351
    39  C    0.116931
    40  C    0.084392
    41  C    0.038822
    42  C    0.061027
    43  C    0.080456
    44  C    0.151901
    45  C    0.122988
    46  C    0.046593
    47  C    0.116787
    48  C    0.125963
    49  C   -0.378894
    50  C   -0.382545
    51  C    0.096471
    52  C    0.087690
    53  C    0.044197
    54  C    0.009551
    55  C   -0.014250
    56  C    0.010643
    57  C    0.081776
    58  C    0.009258
    59  C    0.131832
    60  C    0.080141
    61  C   -0.363208
    62  C   -0.381069
    63  C    0.124621
    64  C    0.126434
    65  C    0.129513
    66  C    0.127914
    67  C    0.125774
    68  C    0.122618
    69  C   -0.372971
    70  C   -0.373851
    71  C    0.092872
    72  C    0.089738
    73  C    0.025392
    74  C    0.026692
    75  C   -0.012356
    76  C   -0.014321
    77  C   -0.045351
    78  C   -0.019020
    79  C   -0.371285
    80  C   -0.007813
    81  C    0.005767
    82  C    0.075912
    83  C    0.060860
    84  C    0.047856
    85  Cl   0.024824
    86  Cl   0.021042
    87  Cl   0.020071
    88  Cl   0.026973
    89  Cl   0.017737
    90  Cl   0.029401
    91  Cl   0.014202
    92  Cl   0.019705
    93  Cl   0.020726
    94  Cl   0.002522
    95  Cl   0.004197
    96  Cl  -0.059011
 Sum of Mulliken charges =  -0.00000
 Mulliken charges with hydrogens summed into heavy atoms:
               1
     1  C   -0.019338
     2  C   -0.386744
     3  C    0.010124
     4  C   -0.372390
     5  C    0.014007
     6  C    0.091085
     7  C    0.007329
     8  C    0.092596
     9  C    0.040871
    10  C    0.090557
    11  C    0.091573
    12  C    0.045732
    13  C    0.004268
    14  C    0.012306
    15  C    0.010839
    16  C    0.006780
    17  C    0.072334
    18  C    0.043065
    19  C    0.095159
    20  C    0.044262
    21  C   -0.327251
    22  C    0.009890
    23  C    0.157309
    24  C    0.091100
    25  C    0.108509
    26  C    0.088770
    27  C   -0.380432
    28  C   -0.378996
    29  C    0.088898
    30  C    0.086823
    31  C    0.088839
    32  C    0.092230
    33  C    0.001378
    34  C    0.005707
    35  C    0.032347
    36  C    0.032098
    37  C    0.077180
    38  C    0.046351
    39  C    0.116931
    40  C    0.084392
    41  C    0.038822
    42  C    0.061027
    43  C    0.080456
    44  C    0.151901
    45  C    0.122988
    46  C    0.046593
    47  C    0.116787
    48  C    0.125963
    49  C   -0.378894
    50  C   -0.382545
    51  C    0.096471
    52  C    0.087690
    53  C    0.044197
    54  C    0.009551
    55  C   -0.014250
    56  C    0.010643
    57  C    0.081776
    58  C    0.009258
    59  C    0.131832
    60  C    0.080141
    61  C   -0.363208
    62  C   -0.381069
    63  C    0.124621
    64  C    0.126434
    65  C    0.129513
    66  C    0.127914
    67  C    0.125774
    68  C    0.122618
    69  C   -0.372971
    70  C   -0.373851
    71  C    0.092872
    72  C    0.089738
    73  C    0.025392
    74  C    0.026692
    75  C   -0.012356
    76  C   -0.014321
    77  C   -0.045351
    78  C   -0.019020
    79  C   -0.371285
    80  C   -0.007813
    81  C    0.005767
    82  C    0.075912
    83  C    0.060860
    84  C    0.047856
    85  Cl   0.024824
    86  Cl   0.021042
    87  Cl   0.020071
    88  Cl   0.026973
    89  Cl   0.017737
    90  Cl   0.029401
    91  Cl   0.014202
    92  Cl   0.019705
    93  Cl   0.020726
    94  Cl   0.002522
    95  Cl   0.004197
    96  Cl  -0.059011
 Electronic spatial extent (au):  <R**2>=          61660.4385
 Charge=             -0.0000 electrons
 Dipole moment (field-independent basis, Debye):
    X=             -1.1097    Y=             -3.7585    Z=              1.4892  Tot=              4.1923
 Quadrupole moment (field-independent basis, Debye-Ang):
   XX=           -670.4095   YY=           -629.4172   ZZ=           -608.3629
   XY=             -7.7327   XZ=             -1.0902   YZ=              3.1005
 Traceless Quadrupole moment (field-independent basis, Debye-Ang):
   XX=            -34.3463   YY=              6.6460   ZZ=             27.7003
   XY=             -7.7327   XZ=             -1.0902   YZ=              3.1005
 Octapole moment (field-independent basis, Debye-Ang**2):
  XXX=             51.3580  YYY=            -98.8470  ZZZ=             14.1533  XYY=            -19.8724
  XXY=             16.4655  XXZ=              2.7550  XZZ=             22.9412  YZZ=             28.0319
  YYZ=             26.6761  XYZ=              5.3144
 Hexadecapole moment (field-independent basis, Debye-Ang**3):
 XXXX=         -37189.1056 YYYY=         -26716.2389 ZZZZ=         -23689.4887 XXXY=            131.2545
 XXXZ=             77.1725 YYYX=           -147.4652 YYYZ=             66.3059 ZZZX=              4.9873
 ZZZY=            -53.2721 XXYY=         -10713.6541 XXZZ=         -10413.8450 YYZZ=          -8308.6155
 XXYZ=             -7.3404 YYXZ=             18.9567 ZZXY=            -62.5468
 N-N= 2.412857679487D+04 E-N=-6.877626440864D+04  KE= 8.676607937582D+03
 No NMR shielding tensors so no spin-rotation constants.
 Leave Link  601 at Tue Jun 28 10:05:35 2022, MaxMem=  1342177280 cpu:              25.9 elap:               1.3
 (Enter /home/mkliu/g16/l9999.exe)
 1\1\GINC-NODE03\FOpt\RB3LYP\6-31G(d,p)\C84Cl12\MKLIU\28-Jun-2022\0\\#P
  opt b3lyp/6-31G(d, p) empiricaldispersion=GD3\\force\\0,1\C,8.2802766
 689,18.8920648,10.5307256444\C,12.5154762947,20.0026500446,8.899736560
 1\C,8.2728072373,26.856844615,10.5298161256\C,12.4858288118,25.7692800
 65,8.9191600443\C,7.9641082978,18.9613965012,9.1562598258\C,11.9010224
 372,19.5612243179,10.2060228394\C,7.9543846569,26.8030495729,9.1137737
 192\C,11.8917077254,26.2363092555,10.2316449685\C,8.9710463719,19.1306
 519693,8.1473848742\C,12.1511966059,20.1928065986,11.3848389394\C,12.1
 536413651,25.5827247264,11.4168565095\C,8.9560927047,26.6442737139,8.1
 241898338\C,10.3029603502,19.0787404825,8.5990815867\C,10.3085152539,2
 6.691987826,8.5909235197\C,10.6273369713,18.9701383801,9.9868829625\C,
 10.6333144914,26.821321708,10.007536464\C,9.6214276089,18.9718211184,1
 0.9935393742\C,9.6159927346,26.8060431972,10.9976876392\C,9.9001491157
 ,19.6228731453,12.2385115987\C,9.8842377133,26.1237937894,12.239269027
 5\C,8.770466379,20.0525836123,13.14712982\C,8.7876999812,25.520179327,
 12.9188406185\C,7.4434643195,20.1511524667,12.4410602963\C,7.478277670
 9,25.5883152286,12.4176029954\C,7.2184030413,19.5343369121,11.27420573
 49\C,7.2201659329,26.2609199473,11.244763708\C,6.1023748211,19.9556544
 849,10.3384419674\C,6.1040977835,25.8283772559,10.3169457339\C,6.66790
 89433,19.547805054,8.9994049654\C,6.6739944492,26.2252592524,8.9720438
 602\C,6.3616084143,20.205234169,7.8613631798\C,6.3659214452,25.5484872
 124,7.8292612528\C,7.3224488929,20.3211738675,6.7998280934\C,7.3143257
 144,25.4382236142,6.7810261031\C,8.6686741841,19.8787454347,6.95253532
 46\C,8.6583058771,25.9049443615,6.9247926283\C,9.7319991282,20.6113906
 646,6.2730094523\C,9.7251217482,25.17878431,6.2451113869\C,11.07493307
 58,20.5770446512,6.8349165453\C,12.7519519869,22.1844564364,7.78113456
 79\C,12.6941684269,23.5842852775,7.7964335461\C,11.0616903598,25.19779
 53441,6.8133969247\C,11.340035042,19.7974408051,7.9302560823\C,12.9052
 401302,21.4708715156,8.9570434785\C,12.8561770757,24.3009967377,8.9798
 987958\C,11.3275053608,26.0088185423,7.9446723114\C,13.0858307504,22.1
 749729521,10.178789953\C,13.0725054228,23.5935016576,10.1843695644\C,1
 3.0762718318,21.3898947863,11.4928903291\C,13.074293303,24.3695370079,
 11.5034229684\C,12.3991165516,22.1801274062,12.5958404731\C,12.4048197
 438,23.561736359,12.5979310015\C,11.1405491777,20.2365045416,12.396333
 7506\C,11.1588295794,25.5164326506,12.414357786\C,11.3198534849,21.468
 1976055,13.1468174109\C,11.3086158807,24.2619190151,13.130326608\C,8.9
 415478639,21.4641780131,13.6454277291\C,8.940545466,24.2570781493,13.6
 205533932\C,7.745889811,22.1744773869,13.5308006823\C,7.7318881475,23.
 5549073531,13.5502367632\C,6.6766047639,21.3948789369,12.8128834845\C,
 6.6812973216,24.3574435587,12.8113548498\C,6.1978974311,22.1769281975,
 11.5663673272\C,6.2067165162,23.5925574805,11.5611332354\C,5.901033110
 3,21.4798384629,10.3787932267\C,5.9163468162,24.297048363,10.369807754
 8\C,5.5928287912,22.1803051012,9.189967352\C,5.5990133158,23.591131531
 6,9.1837879101\C,5.4204365589,21.3970299856,7.8674729827\C,5.422184118
 3,24.358863103,7.8528914862\C,5.9403906592,22.1918447798,6.689056036\C
 ,5.9355611651,23.5508062086,6.6804090212\C,7.0047612773,21.4753544052,
 6.0384116438\C,7.0022905315,24.2591259677,6.0254744478\C,8.0194447929,
 22.1490701745,5.3525411946\C,8.0103128656,23.5891410891,5.3531064115\C
 ,9.3719285287,21.7005322328,5.4361431017\C,9.3711056149,24.0533700161,
 5.4473946292\C,12.0964747305,21.6532550948,6.5055666088\C,11.882214717
 8,24.0466668056,6.6661127873\C,10.2104683595,22.8934381314,5.374686058
 4\C,11.4583876419,22.9152895437,5.9661363881\C,10.1884413547,22.139714
 6796,13.6965410931\C,10.189225606,23.580813456,13.685635977\Cl,4.52970
 19643,19.0940180406,10.7389901812\Cl,3.6563485944,20.9278305066,7.6512
 581932\Cl,3.6594477915,24.8384703854,7.6419445187\Cl,4.5263260196,26.6
 812158917,10.7075981755\Cl,5.2240842222,21.0526049172,13.9029991439\Cl
 ,5.2450540111,24.7840827297,13.8736412945\Cl,14.796886167,20.903527172
 7,11.9444973364\Cl,14.7955557851,24.8548590174,11.9390807218\Cl,13.959
 2395913,18.9590375861,8.4371484295\Cl,13.354187554,21.0022824897,5.311
 5711789\Cl,13.9658099609,26.7767689243,8.449864389\Cl,8.6724492019,18.
 8478248028,14.6142909463\\Version=ES64L-G16RevA.03\State=1-A\HF=-8723.
 4319946\RMSD=3.894e-09\RMSF=4.412e-05\Dipole=0.3741571,1.2634406,-0.99
 20646\Quadrupole=-24.0078579,14.2660694,9.7417885,-0.141808,9.4451109,
 7.9184501\PG=C01 [X(C84Cl12)]\\@


 IT PROBABLY IS NOT POSSIBLE FOR A SCIENTIST TO INTERROGATE NATURE 
 FROM A WHOLLY DISINTERESTED VIEWPOINT.
 EVEN IF HE HAS NO PARTICULAR AXE TO GRIND, HE IS LIKELY TO HAVE 
 A DISTINCTIVE WAY OF VIEWING NATURE.

                                                   -- JOHN LOSEE
 Job cpu time:       1 days 12 hours 31 minutes 59.8 seconds.
 Elapsed time:       0 days  1 hours 31 minutes 27.6 seconds.
 File lengths (MBytes):  RWF=   1359 Int=      0 D2E=      0 Chk=    170 Scr=      1
 Normal termination of Gaussian 16 at Tue Jun 28 10:05:37 2022.
