 Entering Gaussian System, Link 0=g16
 Input=12_addons_C84_14_Cl22_rank_1.gjf
 Output=12_addons_C84_14_Cl22_rank_1.log
 Initial command:
 /home/mkliu/g16/l1.exe "/data/scratch/Gau-204816.inp" -scrdir="/data/scratch/"
 Entering Link 1 = /home/mkliu/g16/l1.exe PID=    204817.
  
 Copyright (c) 1988,1990,1992,1993,1995,1998,2003,2009,2016,
            Gaussian, Inc.  All Rights Reserved.
  
 This is part of the Gaussian(R) 16 program.  It is based on
 the Gaussian(R) 09 system (copyright 2009, Gaussian, Inc.),
 the Gaussian(R) 03 system (copyright 2003, Gaussian, Inc.),
 the Gaussian(R) 98 system (copyright 1998, Gaussian, Inc.),
 the Gaussian(R) 94 system (copyright 1995, Gaussian, Inc.),
 the Gaussian 92(TM) system (copyright 1992, Gaussian, Inc.),
 the Gaussian 90(TM) system (copyright 1990, Gaussian, Inc.),
 the Gaussian 88(TM) system (copyright 1988, Gaussian, Inc.),
 the Gaussian 86(TM) system (copyright 1986, Carnegie Mellon
 University), and the Gaussian 82(TM) system (copyright 1983,
 Carnegie Mellon University). Gaussian is a federally registered
 trademark of Gaussian, Inc.
  
 This software contains proprietary and confidential information,
 including trade secrets, belonging to Gaussian, Inc.
  
 This software is provided under written license and may be
 used, copied, transmitted, or stored only in accord with that
 written license.
  
 The following legend is applicable only to US Government
 contracts under FAR:
  
                    RESTRICTED RIGHTS LEGEND
  
 Use, reproduction and disclosure by the US Government is
 subject to restrictions as set forth in subparagraphs (a)
 and (c) of the Commercial Computer Software - Restricted
 Rights clause in FAR 52.227-19.
  
 Gaussian, Inc.
 340 Quinnipiac St., Bldg. 40, Wallingford CT 06492
  
  
 ---------------------------------------------------------------
 Warning -- This program may not be used in any manner that
 competes with the business of Gaussian, Inc. or will provide
 assistance to any competitor of Gaussian, Inc.  The licensee
 of this program is prohibited from giving any competitor of
 Gaussian, Inc. access to this program.  By using this program,
 the user acknowledges that Gaussian, Inc. is engaged in the
 business of creating and licensing software in the field of
 computational chemistry and represents and warrants to the
 licensee that it is not a competitor of Gaussian, Inc. and that
 it will not use this program in any manner prohibited above.
 ---------------------------------------------------------------
  

 Cite this work as:
 Gaussian 16, Revision A.03,
 M. J. Frisch, G. W. Trucks, H. B. Schlegel, G. E. Scuseria, 
 M. A. Robb, J. R. Cheeseman, G. Scalmani, V. Barone, 
 G. A. Petersson, H. Nakatsuji, X. Li, M. Caricato, A. V. Marenich, 
 J. Bloino, B. G. Janesko, R. Gomperts, B. Mennucci, H. P. Hratchian, 
 J. V. Ortiz, A. F. Izmaylov, J. L. Sonnenberg, D. Williams-Young, 
 F. Ding, F. Lipparini, F. Egidi, J. Goings, B. Peng, A. Petrone, 
 T. Henderson, D. Ranasinghe, V. G. Zakrzewski, J. Gao, N. Rega, 
 G. Zheng, W. Liang, M. Hada, M. Ehara, K. Toyota, R. Fukuda, 
 J. Hasegawa, M. Ishida, T. Nakajima, Y. Honda, O. Kitao, H. Nakai, 
 T. Vreven, K. Throssell, J. A. Montgomery, Jr., J. E. Peralta, 
 F. Ogliaro, M. J. Bearpark, J. J. Heyd, E. N. Brothers, K. N. Kudin, 
 V. N. Staroverov, T. A. Keith, R. Kobayashi, J. Normand, 
 K. Raghavachari, A. P. Rendell, J. C. Burant, S. S. Iyengar, 
 J. Tomasi, M. Cossi, J. M. Millam, M. Klene, C. Adamo, R. Cammi, 
 J. W. Ochterski, R. L. Martin, K. Morokuma, O. Farkas, 
 J. B. Foresman, and D. J. Fox, Gaussian, Inc., Wallingford CT, 2016.
 
 ******************************************
 Gaussian 16:  ES64L-G16RevA.03 25-Dec-2016
                27-Jun-2022 
 ******************************************
 %mem=10GB
 %chk=12_addons_C84_14_Cl22_rank_1.chk
 %nprocshared=24
 Will use up to   24 processors via shared memory.
 ------------------------------------------------
 #P opt b3lyp/6-31G(d, p) empiricaldispersion=GD3
 ------------------------------------------------
 1/18=20,19=15,26=3,38=1/1,3;
 2/9=110,12=2,17=6,18=5,40=1/2;
 3/5=1,6=6,7=101,11=2,25=1,30=1,71=1,74=-5,124=31/1,2,3;
 4//1;
 5/5=2,38=5/2;
 6/7=2,8=2,9=2,10=2,28=1/1;
 7//1,2,3,16;
 1/18=20,19=15,26=3/3(2);
 2/9=110/2;
 99//99;
 2/9=110/2;
 3/5=1,6=6,7=101,11=2,25=1,30=1,71=1,74=-5,124=31/1,2,3;
 4/5=5,16=3,69=1/1;
 5/5=2,38=5/2;
 7//1,2,3,16;
 1/18=20,19=15,26=3/3(-5);
 2/9=110/2;
 6/7=2,8=2,9=2,10=2,19=2,28=1/1;
 99/9=1/99;
 Leave Link    1 at Mon Jun 27 14:43:10 2022, MaxMem=  1342177280 cpu:               0.7 elap:               0.1
 (Enter /home/mkliu/g16/l101.exe)
 -----
 force
 -----
 Symbolic Z-matrix:
 Charge =  0 Multiplicity = 1
 C                     8.28437   18.92493   10.54168 
 C                     12.4777   20.01071   8.92171 
 C                     8.27838   26.83312   10.54458 
 C                     12.46385   25.7474   8.93344 
 C                     7.96519   18.98456   9.13945 
 C                     11.88188   19.56276   10.22558 
 C                     7.96175   26.78607   9.14002 
 C                     11.87467   26.20343   10.23536 
 C                     8.96626   19.17217   8.1598 
 C                     12.14775   20.20597   11.40771 
 C                     12.14257   25.5574   11.41331 
 C                     8.95359   26.6232   8.15577 
 C                     10.29333   19.11907   8.62186 
 C                     10.29532   26.6673   8.61996 
 C                     10.62548   18.9714   10.01621 
 C                     10.6178   26.7949   10.01972 
 C                     9.61728   18.9794   11.00515 
 C                     9.6102    26.77962   11.00923 
 C                     9.88561   19.65584   12.23571 
 C                     9.88039   26.10141   12.2392 
 C                     8.7993    20.25568   12.91447 
 C                     8.79506   25.49794   12.91736 
 C                     7.48461   20.19058   12.41616 
 C                     7.48204   25.56111   12.41767 
 C                     7.2283    19.52298   11.25013 
 C                     7.22476   26.23078   11.25233 
 C                     6.12691   19.95768   10.32532 
 C                     6.12087   25.79773   10.33211 
 C                     6.6965    19.55609   8.998 
 C                     6.68637   26.20389   9.00429 
 C                     6.39374   20.23022   7.84428 
 C                     6.37614   25.53518   7.86096 
 C                     7.33004   20.32587   6.80768 
 C                     7.32693   25.43269   6.82272 
 C                     8.67912   19.91671   6.97409 
 C                     8.65771   25.88437   6.96707 
 C                     9.73273   20.63179   6.32055 
 C                     9.71243   25.15247   6.30305 
 C                     11.02309   20.60972   6.86173 
 C                     12.6795   22.17338   7.81127 
 C                     12.63754   23.57071   7.82542 
 C                     11.03715   25.17282   6.85533 
 C                     11.30829   19.81711   7.97167 
 C                     12.83569   21.47111   8.98686 
 C                     12.8107   24.28473   9.00281 
 C                     11.31555   25.9858   7.97283 
 C                     13.03552   22.1757   10.19198 
 C                     13.03121   23.58289   10.19568 
 C                     13.0624   21.40022   11.49679 
 C                     13.05864   24.36183   11.50006 
 C                     12.39725   22.19582   12.58582 
 C                     12.39527   23.56464   12.58734 
 C                     11.1519   20.26313   12.40419 
 C                     11.14668   25.49681   12.41092 
 C                     11.30377   21.49263   13.12848 
 C                     11.30039   24.2657   13.13116 
 C                     8.95048   21.49188   13.62664 
 C                     8.94803   24.26144   13.6287 
 C                     7.73091   22.19284   13.55447 
 C                     7.72954   23.5588   13.55581 
 C                     6.69485   21.40991   12.79942 
 C                     6.69292   24.34125   12.80118 
 C                     6.28118   22.17443   11.54256 
 C                     6.27913   23.5777   11.54428 
 C                     5.99286   21.4777   10.35975 
 C                     5.98697   24.27632   10.36406 
 C                     5.68397   22.1764   9.18064 
 C                     5.6787    23.57861   9.18455 
 C                     5.45965   21.40827   7.87499 
 C                     5.44575   24.35254   7.88515 
 C                     5.96433   22.20256   6.70573 
 C                     5.95245   23.56411   6.71195 
 C                     7.01376   21.50713   6.04266 
 C                     7.00582   24.26001   6.06813 
 C                     7.99852   22.16454   5.35075 
 C                     8.01399   23.57688   5.40886 
 C                     9.39642   21.62648   5.22564 
 C                     9.36827   24.02941   5.51879 
 C                     12.06637   21.64615   6.53155 
 C                     11.84731   24.03034   6.70311 
 C                     10.20167   22.88953   5.39395 
 C                     11.42962   22.89441   5.99422 
 C                     10.19262   22.16255   13.6919 
 C                     10.19105   23.59247   13.69384 
 Cl                    4.53525   19.22005   10.70534 
 Cl                    3.71776   20.98199   7.75946 
 Cl                    3.70391   24.77727   7.77779 
 Cl                    4.52954   26.53419   10.71771 
 Cl                    5.21944   21.05012   13.7596 
 Cl                    5.21832   24.70107   13.76264 
 Cl                    14.76636   20.95707   11.88233 
 Cl                    14.76148   24.80643   11.87857 
 Cl                    13.91122   19.03648   8.43527 
 Cl                    13.30716   20.95483   5.42395 
 Cl                    13.93232   26.69273   8.46786 
 Cl                    9.67752   20.82777   3.61511 
 
 ITRead=  0  0  0  0  0  0  0  0  0  0  0  0  0  0  0  0  0  0  0  0
 ITRead=  0  0  0  0  0  0  0  0  0  0  0  0  0  0  0  0  0  0  0  0
 ITRead=  0  0  0  0  0  0  0  0  0  0  0  0  0  0  0  0  0  0  0  0
 ITRead=  0  0  0  0  0  0  0  0  0  0  0  0  0  0  0  0  0  0  0  0
 ITRead=  0  0  0  0  0  0  0  0  0  0  0  0  0  0  0  0
 MicOpt= -1 -1 -1 -1 -1 -1 -1 -1 -1 -1 -1 -1 -1 -1 -1 -1 -1 -1 -1 -1
 MicOpt= -1 -1 -1 -1 -1 -1 -1 -1 -1 -1 -1 -1 -1 -1 -1 -1 -1 -1 -1 -1
 MicOpt= -1 -1 -1 -1 -1 -1 -1 -1 -1 -1 -1 -1 -1 -1 -1 -1 -1 -1 -1 -1
 MicOpt= -1 -1 -1 -1 -1 -1 -1 -1 -1 -1 -1 -1 -1 -1 -1 -1 -1 -1 -1 -1
 MicOpt= -1 -1 -1 -1 -1 -1 -1 -1 -1 -1 -1 -1 -1 -1 -1 -1
 NAtoms=     96 NQM=       96 NQMF=       0 NMMI=      0 NMMIF=      0
                NMic=       0 NMicF=      0.
                    Isotopes and Nuclear Properties:
 (Nuclear quadrupole moments (NQMom) in fm**2, nuclear magnetic moments (NMagM)
  in nuclear magnetons)

  Atom         1           2           3           4           5           6           7           8           9          10
 IAtWgt=          12          12          12          12          12          12          12          12          12          12
 AtmWgt=  12.0000000  12.0000000  12.0000000  12.0000000  12.0000000  12.0000000  12.0000000  12.0000000  12.0000000  12.0000000
 NucSpn=           0           0           0           0           0           0           0           0           0           0
 AtZEff=  -0.0000000  -0.0000000  -0.0000000  -0.0000000  -0.0000000  -0.0000000  -0.0000000  -0.0000000  -0.0000000  -0.0000000
 NQMom=    0.0000000   0.0000000   0.0000000   0.0000000   0.0000000   0.0000000   0.0000000   0.0000000   0.0000000   0.0000000
 NMagM=    0.0000000   0.0000000   0.0000000   0.0000000   0.0000000   0.0000000   0.0000000   0.0000000   0.0000000   0.0000000
 AtZNuc=   6.0000000   6.0000000   6.0000000   6.0000000   6.0000000   6.0000000   6.0000000   6.0000000   6.0000000   6.0000000

  Atom        11          12          13          14          15          16          17          18          19          20
 IAtWgt=          12          12          12          12          12          12          12          12          12          12
 AtmWgt=  12.0000000  12.0000000  12.0000000  12.0000000  12.0000000  12.0000000  12.0000000  12.0000000  12.0000000  12.0000000
 NucSpn=           0           0           0           0           0           0           0           0           0           0
 AtZEff=  -0.0000000  -0.0000000  -0.0000000  -0.0000000  -0.0000000  -0.0000000  -0.0000000  -0.0000000  -0.0000000  -0.0000000
 NQMom=    0.0000000   0.0000000   0.0000000   0.0000000   0.0000000   0.0000000   0.0000000   0.0000000   0.0000000   0.0000000
 NMagM=    0.0000000   0.0000000   0.0000000   0.0000000   0.0000000   0.0000000   0.0000000   0.0000000   0.0000000   0.0000000
 AtZNuc=   6.0000000   6.0000000   6.0000000   6.0000000   6.0000000   6.0000000   6.0000000   6.0000000   6.0000000   6.0000000

  Atom        21          22          23          24          25          26          27          28          29          30
 IAtWgt=          12          12          12          12          12          12          12          12          12          12
 AtmWgt=  12.0000000  12.0000000  12.0000000  12.0000000  12.0000000  12.0000000  12.0000000  12.0000000  12.0000000  12.0000000
 NucSpn=           0           0           0           0           0           0           0           0           0           0
 AtZEff=  -0.0000000  -0.0000000  -0.0000000  -0.0000000  -0.0000000  -0.0000000  -0.0000000  -0.0000000  -0.0000000  -0.0000000
 NQMom=    0.0000000   0.0000000   0.0000000   0.0000000   0.0000000   0.0000000   0.0000000   0.0000000   0.0000000   0.0000000
 NMagM=    0.0000000   0.0000000   0.0000000   0.0000000   0.0000000   0.0000000   0.0000000   0.0000000   0.0000000   0.0000000
 AtZNuc=   6.0000000   6.0000000   6.0000000   6.0000000   6.0000000   6.0000000   6.0000000   6.0000000   6.0000000   6.0000000

  Atom        31          32          33          34          35          36          37          38          39          40
 IAtWgt=          12          12          12          12          12          12          12          12          12          12
 AtmWgt=  12.0000000  12.0000000  12.0000000  12.0000000  12.0000000  12.0000000  12.0000000  12.0000000  12.0000000  12.0000000
 NucSpn=           0           0           0           0           0           0           0           0           0           0
 AtZEff=  -0.0000000  -0.0000000  -0.0000000  -0.0000000  -0.0000000  -0.0000000  -0.0000000  -0.0000000  -0.0000000  -0.0000000
 NQMom=    0.0000000   0.0000000   0.0000000   0.0000000   0.0000000   0.0000000   0.0000000   0.0000000   0.0000000   0.0000000
 NMagM=    0.0000000   0.0000000   0.0000000   0.0000000   0.0000000   0.0000000   0.0000000   0.0000000   0.0000000   0.0000000
 AtZNuc=   6.0000000   6.0000000   6.0000000   6.0000000   6.0000000   6.0000000   6.0000000   6.0000000   6.0000000   6.0000000

  Atom        41          42          43          44          45          46          47          48          49          50
 IAtWgt=          12          12          12          12          12          12          12          12          12          12
 AtmWgt=  12.0000000  12.0000000  12.0000000  12.0000000  12.0000000  12.0000000  12.0000000  12.0000000  12.0000000  12.0000000
 NucSpn=           0           0           0           0           0           0           0           0           0           0
 AtZEff=  -0.0000000  -0.0000000  -0.0000000  -0.0000000  -0.0000000  -0.0000000  -0.0000000  -0.0000000  -0.0000000  -0.0000000
 NQMom=    0.0000000   0.0000000   0.0000000   0.0000000   0.0000000   0.0000000   0.0000000   0.0000000   0.0000000   0.0000000
 NMagM=    0.0000000   0.0000000   0.0000000   0.0000000   0.0000000   0.0000000   0.0000000   0.0000000   0.0000000   0.0000000
 AtZNuc=   6.0000000   6.0000000   6.0000000   6.0000000   6.0000000   6.0000000   6.0000000   6.0000000   6.0000000   6.0000000

  Atom        51          52          53          54          55          56          57          58          59          60
 IAtWgt=          12          12          12          12          12          12          12          12          12          12
 AtmWgt=  12.0000000  12.0000000  12.0000000  12.0000000  12.0000000  12.0000000  12.0000000  12.0000000  12.0000000  12.0000000
 NucSpn=           0           0           0           0           0           0           0           0           0           0
 AtZEff=  -0.0000000  -0.0000000  -0.0000000  -0.0000000  -0.0000000  -0.0000000  -0.0000000  -0.0000000  -0.0000000  -0.0000000
 NQMom=    0.0000000   0.0000000   0.0000000   0.0000000   0.0000000   0.0000000   0.0000000   0.0000000   0.0000000   0.0000000
 NMagM=    0.0000000   0.0000000   0.0000000   0.0000000   0.0000000   0.0000000   0.0000000   0.0000000   0.0000000   0.0000000
 AtZNuc=   6.0000000   6.0000000   6.0000000   6.0000000   6.0000000   6.0000000   6.0000000   6.0000000   6.0000000   6.0000000

  Atom        61          62          63          64          65          66          67          68          69          70
 IAtWgt=          12          12          12          12          12          12          12          12          12          12
 AtmWgt=  12.0000000  12.0000000  12.0000000  12.0000000  12.0000000  12.0000000  12.0000000  12.0000000  12.0000000  12.0000000
 NucSpn=           0           0           0           0           0           0           0           0           0           0
 AtZEff=  -0.0000000  -0.0000000  -0.0000000  -0.0000000  -0.0000000  -0.0000000  -0.0000000  -0.0000000  -0.0000000  -0.0000000
 NQMom=    0.0000000   0.0000000   0.0000000   0.0000000   0.0000000   0.0000000   0.0000000   0.0000000   0.0000000   0.0000000
 NMagM=    0.0000000   0.0000000   0.0000000   0.0000000   0.0000000   0.0000000   0.0000000   0.0000000   0.0000000   0.0000000
 AtZNuc=   6.0000000   6.0000000   6.0000000   6.0000000   6.0000000   6.0000000   6.0000000   6.0000000   6.0000000   6.0000000

  Atom        71          72          73          74          75          76          77          78          79          80
 IAtWgt=          12          12          12          12          12          12          12          12          12          12
 AtmWgt=  12.0000000  12.0000000  12.0000000  12.0000000  12.0000000  12.0000000  12.0000000  12.0000000  12.0000000  12.0000000
 NucSpn=           0           0           0           0           0           0           0           0           0           0
 AtZEff=  -0.0000000  -0.0000000  -0.0000000  -0.0000000  -0.0000000  -0.0000000  -0.0000000  -0.0000000  -0.0000000  -0.0000000
 NQMom=    0.0000000   0.0000000   0.0000000   0.0000000   0.0000000   0.0000000   0.0000000   0.0000000   0.0000000   0.0000000
 NMagM=    0.0000000   0.0000000   0.0000000   0.0000000   0.0000000   0.0000000   0.0000000   0.0000000   0.0000000   0.0000000
 AtZNuc=   6.0000000   6.0000000   6.0000000   6.0000000   6.0000000   6.0000000   6.0000000   6.0000000   6.0000000   6.0000000

  Atom        81          82          83          84          85          86          87          88          89          90
 IAtWgt=          12          12          12          12          35          35          35          35          35          35
 AtmWgt=  12.0000000  12.0000000  12.0000000  12.0000000  34.9688527  34.9688527  34.9688527  34.9688527  34.9688527  34.9688527
 NucSpn=           0           0           0           0           3           3           3           3           3           3
 AtZEff=  -0.0000000  -0.0000000  -0.0000000  -0.0000000  -0.0000000  -0.0000000  -0.0000000  -0.0000000  -0.0000000  -0.0000000
 NQMom=    0.0000000   0.0000000   0.0000000   0.0000000  -8.1650000  -8.1650000  -8.1650000  -8.1650000  -8.1650000  -8.1650000
 NMagM=    0.0000000   0.0000000   0.0000000   0.0000000   0.8218740   0.8218740   0.8218740   0.8218740   0.8218740   0.8218740
 AtZNuc=   6.0000000   6.0000000   6.0000000   6.0000000  17.0000000  17.0000000  17.0000000  17.0000000  17.0000000  17.0000000

  Atom        91          92          93          94          95          96
 IAtWgt=          35          35          35          35          35          35
 AtmWgt=  34.9688527  34.9688527  34.9688527  34.9688527  34.9688527  34.9688527
 NucSpn=           3           3           3           3           3           3
 AtZEff=  -0.0000000  -0.0000000  -0.0000000  -0.0000000  -0.0000000  -0.0000000
 NQMom=   -8.1650000  -8.1650000  -8.1650000  -8.1650000  -8.1650000  -8.1650000
 NMagM=    0.8218740   0.8218740   0.8218740   0.8218740   0.8218740   0.8218740
 AtZNuc=  17.0000000  17.0000000  17.0000000  17.0000000  17.0000000  17.0000000
 Leave Link  101 at Mon Jun 27 14:43:10 2022, MaxMem=  1342177280 cpu:               6.6 elap:               0.3
 (Enter /home/mkliu/g16/l103.exe)

 GradGradGradGradGradGradGradGradGradGradGradGradGradGradGradGradGradGrad
 Berny optimization.
 Initialization pass.
                           ----------------------------
                           !    Initial Parameters    !
                           ! (Angstroms and Degrees)  !
 --------------------------                            --------------------------
 ! Name  Definition              Value          Derivative Info.                !
 --------------------------------------------------------------------------------
 ! R1    R(1,5)                  1.4393         estimate D2E/DX2                !
 ! R2    R(1,17)                 1.4122         estimate D2E/DX2                !
 ! R3    R(1,25)                 1.4053         estimate D2E/DX2                !
 ! R4    R(2,6)                  1.5019         estimate D2E/DX2                !
 ! R5    R(2,43)                 1.5191         estimate D2E/DX2                !
 ! R6    R(2,44)                 1.505          estimate D2E/DX2                !
 ! R7    R(2,93)                 1.8002         estimate D2E/DX2                !
 ! R8    R(3,7)                  1.4406         estimate D2E/DX2                !
 ! R9    R(3,18)                 1.4116         estimate D2E/DX2                !
 ! R10   R(3,26)                 1.4049         estimate D2E/DX2                !
 ! R11   R(4,8)                  1.5            estimate D2E/DX2                !
 ! R12   R(4,45)                 1.5048         estimate D2E/DX2                !
 ! R13   R(4,46)                 1.516          estimate D2E/DX2                !
 ! R14   R(4,95)                 1.8074         estimate D2E/DX2                !
 ! R15   R(5,9)                  1.4132         estimate D2E/DX2                !
 ! R16   R(5,29)                 1.3987         estimate D2E/DX2                !
 ! R17   R(6,10)                 1.3718         estimate D2E/DX2                !
 ! R18   R(6,15)                 1.4043         estimate D2E/DX2                !
 ! R19   R(7,12)                 1.4068         estimate D2E/DX2                !
 ! R20   R(7,30)                 1.4085         estimate D2E/DX2                !
 ! R21   R(8,11)                 1.3699         estimate D2E/DX2                !
 ! R22   R(8,16)                 1.4057         estimate D2E/DX2                !
 ! R23   R(9,13)                 1.4062         estimate D2E/DX2                !
 ! R24   R(9,35)                 1.4292         estimate D2E/DX2                !
 ! R25   R(10,49)                1.5069         estimate D2E/DX2                !
 ! R26   R(10,53)                1.4099         estimate D2E/DX2                !
 ! R27   R(11,50)                1.5087         estimate D2E/DX2                !
 ! R28   R(11,54)                1.4109         estimate D2E/DX2                !
 ! R29   R(12,14)                1.4204         estimate D2E/DX2                !
 ! R30   R(12,36)                1.4305         estimate D2E/DX2                !
 ! R31   R(13,15)                1.4409         estimate D2E/DX2                !
 ! R32   R(13,43)                1.3929         estimate D2E/DX2                !
 ! R33   R(14,16)                1.4421         estimate D2E/DX2                !
 ! R34   R(14,46)                1.3871         estimate D2E/DX2                !
 ! R35   R(15,17)                1.4123         estimate D2E/DX2                !
 ! R36   R(16,18)                1.4123         estimate D2E/DX2                !
 ! R37   R(17,19)                1.4296         estimate D2E/DX2                !
 ! R38   R(18,20)                1.4303         estimate D2E/DX2                !
 ! R39   R(19,21)                1.4144         estimate D2E/DX2                !
 ! R40   R(19,53)                1.4145         estimate D2E/DX2                !
 ! R41   R(20,22)                1.4149         estimate D2E/DX2                !
 ! R42   R(20,54)                1.4137         estimate D2E/DX2                !
 ! R43   R(21,23)                1.4075         estimate D2E/DX2                !
 ! R44   R(21,57)                1.4347         estimate D2E/DX2                !
 ! R45   R(22,24)                1.4063         estimate D2E/DX2                !
 ! R46   R(22,58)                1.4347         estimate D2E/DX2                !
 ! R47   R(23,25)                1.3678         estimate D2E/DX2                !
 ! R48   R(23,61)                1.5025         estimate D2E/DX2                !
 ! R49   R(24,26)                1.3685         estimate D2E/DX2                !
 ! R50   R(24,62)                1.5026         estimate D2E/DX2                !
 ! R51   R(25,27)                1.5024         estimate D2E/DX2                !
 ! R52   R(26,28)                1.501          estimate D2E/DX2                !
 ! R53   R(27,29)                1.4992         estimate D2E/DX2                !
 ! R54   R(27,65)                1.5263         estimate D2E/DX2                !
 ! R55   R(27,85)                1.795          estimate D2E/DX2                !
 ! R56   R(28,30)                1.4993         estimate D2E/DX2                !
 ! R57   R(28,66)                1.5276         estimate D2E/DX2                !
 ! R58   R(28,88)                1.7954         estimate D2E/DX2                !
 ! R59   R(29,31)                1.3701         estimate D2E/DX2                !
 ! R60   R(30,32)                1.3604         estimate D2E/DX2                !
 ! R61   R(31,33)                1.4001         estimate D2E/DX2                !
 ! R62   R(31,69)                1.5038         estimate D2E/DX2                !
 ! R63   R(32,34)                1.4115         estimate D2E/DX2                !
 ! R64   R(32,70)                1.5049         estimate D2E/DX2                !
 ! R65   R(33,35)                1.4196         estimate D2E/DX2                !
 ! R66   R(33,73)                1.4424         estimate D2E/DX2                !
 ! R67   R(34,36)                1.4127         estimate D2E/DX2                !
 ! R68   R(34,74)                1.431          estimate D2E/DX2                !
 ! R69   R(35,37)                1.4313         estimate D2E/DX2                !
 ! R70   R(36,38)                1.4453         estimate D2E/DX2                !
 ! R71   R(37,39)                1.3994         estimate D2E/DX2                !
 ! R72   R(37,77)                1.517          estimate D2E/DX2                !
 ! R73   R(38,42)                1.4354         estimate D2E/DX2                !
 ! R74   R(38,78)                1.4124         estimate D2E/DX2                !
 ! R75   R(39,43)                1.3934         estimate D2E/DX2                !
 ! R76   R(39,79)                1.5072         estimate D2E/DX2                !
 ! R77   R(40,41)                1.398          estimate D2E/DX2                !
 ! R78   R(40,44)                1.3783         estimate D2E/DX2                !
 ! R79   R(40,79)                1.5138         estimate D2E/DX2                !
 ! R80   R(41,45)                1.3878         estimate D2E/DX2                !
 ! R81   R(41,80)                1.4475         estimate D2E/DX2                !
 ! R82   R(42,46)                1.4097         estimate D2E/DX2                !
 ! R83   R(42,80)                1.4088         estimate D2E/DX2                !
 ! R84   R(44,47)                1.4102         estimate D2E/DX2                !
 ! R85   R(45,48)                1.4015         estimate D2E/DX2                !
 ! R86   R(47,48)                1.4072         estimate D2E/DX2                !
 ! R87   R(47,49)                1.5181         estimate D2E/DX2                !
 ! R88   R(48,50)                1.5195         estimate D2E/DX2                !
 ! R89   R(49,51)                1.5038         estimate D2E/DX2                !
 ! R90   R(49,91)                1.8024         estimate D2E/DX2                !
 ! R91   R(50,52)                1.5026         estimate D2E/DX2                !
 ! R92   R(50,92)                1.8002         estimate D2E/DX2                !
 ! R93   R(51,52)                1.3688         estimate D2E/DX2                !
 ! R94   R(51,55)                1.4088         estimate D2E/DX2                !
 ! R95   R(52,56)                1.4093         estimate D2E/DX2                !
 ! R96   R(53,55)                1.435          estimate D2E/DX2                !
 ! R97   R(54,56)                1.4346         estimate D2E/DX2                !
 ! R98   R(55,83)                1.4145         estimate D2E/DX2                !
 ! R99   R(56,84)                1.4144         estimate D2E/DX2                !
 ! R100  R(57,59)                1.4085         estimate D2E/DX2                !
 ! R101  R(57,83)                1.4131         estimate D2E/DX2                !
 ! R102  R(58,60)                1.4085         estimate D2E/DX2                !
 ! R103  R(58,84)                1.4131         estimate D2E/DX2                !
 ! R104  R(59,60)                1.366          estimate D2E/DX2                !
 ! R105  R(59,61)                1.5022         estimate D2E/DX2                !
 ! R106  R(60,62)                1.5021         estimate D2E/DX2                !
 ! R107  R(61,63)                1.5282         estimate D2E/DX2                !
 ! R108  R(61,89)                1.7967         estimate D2E/DX2                !
 ! R109  R(62,64)                1.5277         estimate D2E/DX2                !
 ! R110  R(62,90)                1.7967         estimate D2E/DX2                !
 ! R111  R(63,64)                1.4033         estimate D2E/DX2                !
 ! R112  R(63,65)                1.4027         estimate D2E/DX2                !
 ! R113  R(64,66)                1.4023         estimate D2E/DX2                !
 ! R114  R(65,67)                1.4049         estimate D2E/DX2                !
 ! R115  R(66,68)                1.4047         estimate D2E/DX2                !
 ! R116  R(67,68)                1.4022         estimate D2E/DX2                !
 ! R117  R(67,69)                1.5314         estimate D2E/DX2                !
 ! R118  R(68,70)                1.5303         estimate D2E/DX2                !
 ! R119  R(69,71)                1.5009         estimate D2E/DX2                !
 ! R120  R(69,86)                1.797          estimate D2E/DX2                !
 ! R121  R(70,72)                1.5016         estimate D2E/DX2                !
 ! R122  R(70,87)                1.7961         estimate D2E/DX2                !
 ! R123  R(71,72)                1.3616         estimate D2E/DX2                !
 ! R124  R(71,73)                1.4229         estimate D2E/DX2                !
 ! R125  R(72,74)                1.4172         estimate D2E/DX2                !
 ! R126  R(73,75)                1.3714         estimate D2E/DX2                !
 ! R127  R(74,76)                1.3848         estimate D2E/DX2                !
 ! R128  R(75,76)                1.4136         estimate D2E/DX2                !
 ! R129  R(75,77)                1.5031         estimate D2E/DX2                !
 ! R130  R(76,78)                1.4321         estimate D2E/DX2                !
 ! R131  R(77,81)                1.5073         estimate D2E/DX2                !
 ! R132  R(77,96)                1.8195         estimate D2E/DX2                !
 ! R133  R(78,81)                1.4175         estimate D2E/DX2                !
 ! R134  R(79,82)                1.5008         estimate D2E/DX2                !
 ! R135  R(79,94)                1.8012         estimate D2E/DX2                !
 ! R136  R(80,82)                1.4026         estimate D2E/DX2                !
 ! R137  R(81,82)                1.3668         estimate D2E/DX2                !
 ! R138  R(83,84)                1.4299         estimate D2E/DX2                !
 ! A1    A(5,1,17)             121.8311         estimate D2E/DX2                !
 ! A2    A(5,1,25)             107.8701         estimate D2E/DX2                !
 ! A3    A(17,1,25)            121.8318         estimate D2E/DX2                !
 ! A4    A(6,2,43)             101.51           estimate D2E/DX2                !
 ! A5    A(6,2,44)             110.2542         estimate D2E/DX2                !
 ! A6    A(6,2,93)             112.8973         estimate D2E/DX2                !
 ! A7    A(43,2,44)            109.5022         estimate D2E/DX2                !
 ! A8    A(43,2,93)            112.0277         estimate D2E/DX2                !
 ! A9    A(44,2,93)            110.3289         estimate D2E/DX2                !
 ! A10   A(7,3,18)             121.8083         estimate D2E/DX2                !
 ! A11   A(7,3,26)             108.1998         estimate D2E/DX2                !
 ! A12   A(18,3,26)            121.7021         estimate D2E/DX2                !
 ! A13   A(8,4,45)             110.2439         estimate D2E/DX2                !
 ! A14   A(8,4,46)             101.8088         estimate D2E/DX2                !
 ! A15   A(8,4,95)             112.562          estimate D2E/DX2                !
 ! A16   A(45,4,46)            110.8949         estimate D2E/DX2                !
 ! A17   A(45,4,95)            109.4491         estimate D2E/DX2                !
 ! A18   A(46,4,95)            111.7119         estimate D2E/DX2                !
 ! A19   A(1,5,9)              121.5857         estimate D2E/DX2                !
 ! A20   A(1,5,29)             108.4572         estimate D2E/DX2                !
 ! A21   A(9,5,29)             121.212          estimate D2E/DX2                !
 ! A22   A(2,6,10)             122.0989         estimate D2E/DX2                !
 ! A23   A(2,6,15)             110.5538         estimate D2E/DX2                !
 ! A24   A(10,6,15)            119.955          estimate D2E/DX2                !
 ! A25   A(3,7,12)             122.0718         estimate D2E/DX2                !
 ! A26   A(3,7,30)             107.8465         estimate D2E/DX2                !
 ! A27   A(12,7,30)            121.5416         estimate D2E/DX2                !
 ! A28   A(4,8,11)             121.7442         estimate D2E/DX2                !
 ! A29   A(4,8,16)             110.2406         estimate D2E/DX2                !
 ! A30   A(11,8,16)            120.3428         estimate D2E/DX2                !
 ! A31   A(5,9,13)             115.8308         estimate D2E/DX2                !
 ! A32   A(5,9,35)             120.1292         estimate D2E/DX2                !
 ! A33   A(13,9,35)            118.8079         estimate D2E/DX2                !
 ! A34   A(6,10,49)            122.6954         estimate D2E/DX2                !
 ! A35   A(6,10,53)            119.4165         estimate D2E/DX2                !
 ! A36   A(49,10,53)           110.781          estimate D2E/DX2                !
 ! A37   A(8,11,50)            122.8128         estimate D2E/DX2                !
 ! A38   A(8,11,54)            119.3536         estimate D2E/DX2                !
 ! A39   A(50,11,54)           110.726          estimate D2E/DX2                !
 ! A40   A(7,12,14)            115.7049         estimate D2E/DX2                !
 ! A41   A(7,12,36)            119.6926         estimate D2E/DX2                !
 ! A42   A(14,12,36)           118.8787         estimate D2E/DX2                !
 ! A43   A(9,13,15)            122.6407         estimate D2E/DX2                !
 ! A44   A(9,13,43)            121.0213         estimate D2E/DX2                !
 ! A45   A(15,13,43)           109.5775         estimate D2E/DX2                !
 ! A46   A(12,14,16)           122.0849         estimate D2E/DX2                !
 ! A47   A(12,14,46)           121.805          estimate D2E/DX2                !
 ! A48   A(16,14,46)           109.3809         estimate D2E/DX2                !
 ! A49   A(6,15,13)            107.8994         estimate D2E/DX2                !
 ! A50   A(6,15,17)            122.1344         estimate D2E/DX2                !
 ! A51   A(13,15,17)           120.8277         estimate D2E/DX2                !
 ! A52   A(8,16,14)            108.1558         estimate D2E/DX2                !
 ! A53   A(8,16,18)            121.7265         estimate D2E/DX2                !
 ! A54   A(14,16,18)           121.3039         estimate D2E/DX2                !
 ! A55   A(1,17,15)            116.344          estimate D2E/DX2                !
 ! A56   A(1,17,19)            118.5469         estimate D2E/DX2                !
 ! A57   A(15,17,19)           118.1267         estimate D2E/DX2                !
 ! A58   A(3,18,16)            116.2377         estimate D2E/DX2                !
 ! A59   A(3,18,20)            118.6375         estimate D2E/DX2                !
 ! A60   A(16,18,20)           118.2198         estimate D2E/DX2                !
 ! A61   A(17,19,21)           118.0062         estimate D2E/DX2                !
 ! A62   A(17,19,53)           118.2754         estimate D2E/DX2                !
 ! A63   A(21,19,53)           116.6367         estimate D2E/DX2                !
 ! A64   A(18,20,22)           118.0015         estimate D2E/DX2                !
 ! A65   A(18,20,54)           118.4539         estimate D2E/DX2                !
 ! A66   A(22,20,54)           116.5165         estimate D2E/DX2                !
 ! A67   A(19,21,23)           121.8626         estimate D2E/DX2                !
 ! A68   A(19,21,57)           121.5142         estimate D2E/DX2                !
 ! A69   A(23,21,57)           108.3022         estimate D2E/DX2                !
 ! A70   A(20,22,24)           121.7838         estimate D2E/DX2                !
 ! A71   A(20,22,58)           121.5633         estimate D2E/DX2                !
 ! A72   A(24,22,58)           108.3264         estimate D2E/DX2                !
 ! A73   A(21,23,25)           119.961          estimate D2E/DX2                !
 ! A74   A(21,23,61)           111.2939         estimate D2E/DX2                !
 ! A75   A(25,23,61)           121.0008         estimate D2E/DX2                !
 ! A76   A(22,24,26)           120.0065         estimate D2E/DX2                !
 ! A77   A(22,24,62)           111.2959         estimate D2E/DX2                !
 ! A78   A(26,24,62)           121.0561         estimate D2E/DX2                !
 ! A79   A(1,25,23)            119.7777         estimate D2E/DX2                !
 ! A80   A(1,25,27)            111.3284         estimate D2E/DX2                !
 ! A81   A(23,25,27)           121.3912         estimate D2E/DX2                !
 ! A82   A(3,26,24)            119.8544         estimate D2E/DX2                !
 ! A83   A(3,26,28)            111.4937         estimate D2E/DX2                !
 ! A84   A(24,26,28)           121.2768         estimate D2E/DX2                !
 ! A85   A(25,27,29)           100.8925         estimate D2E/DX2                !
 ! A86   A(25,27,65)           109.7934         estimate D2E/DX2                !
 ! A87   A(25,27,85)           113.6295         estimate D2E/DX2                !
 ! A88   A(29,27,65)           108.6697         estimate D2E/DX2                !
 ! A89   A(29,27,85)           114.4735         estimate D2E/DX2                !
 ! A90   A(65,27,85)           109.0624         estimate D2E/DX2                !
 ! A91   A(26,28,30)           100.8016         estimate D2E/DX2                !
 ! A92   A(26,28,66)           109.8147         estimate D2E/DX2                !
 ! A93   A(26,28,88)           113.6939         estimate D2E/DX2                !
 ! A94   A(30,28,66)           108.7463         estimate D2E/DX2                !
 ! A95   A(30,28,88)           114.4189         estimate D2E/DX2                !
 ! A96   A(66,28,88)           109.0468         estimate D2E/DX2                !
 ! A97   A(5,29,27)            111.3803         estimate D2E/DX2                !
 ! A98   A(5,29,31)            119.121          estimate D2E/DX2                !
 ! A99   A(27,29,31)           121.9914         estimate D2E/DX2                !
 ! A100  A(7,30,28)            111.6016         estimate D2E/DX2                !
 ! A101  A(7,30,32)            119.3837         estimate D2E/DX2                !
 ! A102  A(28,30,32)           121.6786         estimate D2E/DX2                !
 ! A103  A(29,31,33)           120.6159         estimate D2E/DX2                !
 ! A104  A(29,31,69)           120.3658         estimate D2E/DX2                !
 ! A105  A(33,31,69)           112.1478         estimate D2E/DX2                !
 ! A106  A(30,32,34)           120.0177         estimate D2E/DX2                !
 ! A107  A(30,32,70)           120.915          estimate D2E/DX2                !
 ! A108  A(34,32,70)           111.7887         estimate D2E/DX2                !
 ! A109  A(31,33,35)           121.9412         estimate D2E/DX2                !
 ! A110  A(31,33,73)           107.5768         estimate D2E/DX2                !
 ! A111  A(35,33,73)           120.4372         estimate D2E/DX2                !
 ! A112  A(32,34,36)           122.4209         estimate D2E/DX2                !
 ! A113  A(32,34,74)           107.2307         estimate D2E/DX2                !
 ! A114  A(36,34,74)           121.8212         estimate D2E/DX2                !
 ! A115  A(9,35,33)            115.998          estimate D2E/DX2                !
 ! A116  A(9,35,37)            119.4184         estimate D2E/DX2                !
 ! A117  A(33,35,37)           120.1362         estimate D2E/DX2                !
 ! A118  A(12,36,34)           116.4146         estimate D2E/DX2                !
 ! A119  A(12,36,38)           119.4949         estimate D2E/DX2                !
 ! A120  A(34,36,38)           118.5915         estimate D2E/DX2                !
 ! A121  A(35,37,39)           119.6241         estimate D2E/DX2                !
 ! A122  A(35,37,77)           119.6009         estimate D2E/DX2                !
 ! A123  A(39,37,77)           119.595          estimate D2E/DX2                !
 ! A124  A(36,38,42)           119.3101         estimate D2E/DX2                !
 ! A125  A(36,38,78)           118.6815         estimate D2E/DX2                !
 ! A126  A(42,38,78)           116.7317         estimate D2E/DX2                !
 ! A127  A(37,39,43)           120.3809         estimate D2E/DX2                !
 ! A128  A(37,39,79)           122.8671         estimate D2E/DX2                !
 ! A129  A(43,39,79)           115.0865         estimate D2E/DX2                !
 ! A130  A(41,40,44)           120.2685         estimate D2E/DX2                !
 ! A131  A(41,40,79)           110.1518         estimate D2E/DX2                !
 ! A132  A(44,40,79)           126.1211         estimate D2E/DX2                !
 ! A133  A(40,41,45)           121.27           estimate D2E/DX2                !
 ! A134  A(40,41,80)           109.0209         estimate D2E/DX2                !
 ! A135  A(45,41,80)           124.2305         estimate D2E/DX2                !
 ! A136  A(38,42,46)           119.6991         estimate D2E/DX2                !
 ! A137  A(38,42,80)           118.5327         estimate D2E/DX2                !
 ! A138  A(46,42,80)           116.0889         estimate D2E/DX2                !
 ! A139  A(2,43,13)            109.4438         estimate D2E/DX2                !
 ! A140  A(2,43,39)            125.6801         estimate D2E/DX2                !
 ! A141  A(13,43,39)           120.5144         estimate D2E/DX2                !
 ! A142  A(2,44,40)            115.5022         estimate D2E/DX2                !
 ! A143  A(2,44,47)            123.7457         estimate D2E/DX2                !
 ! A144  A(40,44,47)           119.3657         estimate D2E/DX2                !
 ! A145  A(4,45,41)            115.6075         estimate D2E/DX2                !
 ! A146  A(4,45,48)            124.2119         estimate D2E/DX2                !
 ! A147  A(41,45,48)           118.952          estimate D2E/DX2                !
 ! A148  A(4,46,14)            109.8011         estimate D2E/DX2                !
 ! A149  A(4,46,42)            124.1394         estimate D2E/DX2                !
 ! A150  A(14,46,42)           120.5255         estimate D2E/DX2                !
 ! A151  A(44,47,48)           120.0954         estimate D2E/DX2                !
 ! A152  A(44,47,49)           118.8026         estimate D2E/DX2                !
 ! A153  A(48,47,49)           120.5712         estimate D2E/DX2                !
 ! A154  A(45,48,47)           119.9354         estimate D2E/DX2                !
 ! A155  A(45,48,50)           118.4748         estimate D2E/DX2                !
 ! A156  A(47,48,50)           120.9858         estimate D2E/DX2                !
 ! A157  A(10,49,47)           110.0769         estimate D2E/DX2                !
 ! A158  A(10,49,51)           101.1648         estimate D2E/DX2                !
 ! A159  A(10,49,91)           113.0553         estimate D2E/DX2                !
 ! A160  A(47,49,51)           110.1426         estimate D2E/DX2                !
 ! A161  A(47,49,91)           109.0374         estimate D2E/DX2                !
 ! A162  A(51,49,91)           113.1625         estimate D2E/DX2                !
 ! A163  A(11,50,48)           110.2379         estimate D2E/DX2                !
 ! A164  A(11,50,52)           101.1851         estimate D2E/DX2                !
 ! A165  A(11,50,92)           113.001          estimate D2E/DX2                !
 ! A166  A(48,50,52)           109.9512         estimate D2E/DX2                !
 ! A167  A(48,50,92)           108.9154         estimate D2E/DX2                !
 ! A168  A(52,50,92)           113.3596         estimate D2E/DX2                !
 ! A169  A(49,51,52)           122.0397         estimate D2E/DX2                !
 ! A170  A(49,51,55)           110.9892         estimate D2E/DX2                !
 ! A171  A(52,51,55)           119.8415         estimate D2E/DX2                !
 ! A172  A(50,52,51)           121.9451         estimate D2E/DX2                !
 ! A173  A(50,52,56)           110.9961         estimate D2E/DX2                !
 ! A174  A(51,52,56)           119.9351         estimate D2E/DX2                !
 ! A175  A(10,53,19)           122.0546         estimate D2E/DX2                !
 ! A176  A(10,53,55)           108.4633         estimate D2E/DX2                !
 ! A177  A(19,53,55)           121.5146         estimate D2E/DX2                !
 ! A178  A(11,54,20)           121.8702         estimate D2E/DX2                !
 ! A179  A(11,54,56)           108.4341         estimate D2E/DX2                !
 ! A180  A(20,54,56)           121.5994         estimate D2E/DX2                !
 ! A181  A(51,55,53)           108.3842         estimate D2E/DX2                !
 ! A182  A(51,55,83)           121.7859         estimate D2E/DX2                !
 ! A183  A(53,55,83)           121.5788         estimate D2E/DX2                !
 ! A184  A(52,56,54)           108.4464         estimate D2E/DX2                !
 ! A185  A(52,56,84)           121.7419         estimate D2E/DX2                !
 ! A186  A(54,56,84)           121.6128         estimate D2E/DX2                !
 ! A187  A(21,57,59)           108.1886         estimate D2E/DX2                !
 ! A188  A(21,57,83)           121.6342         estimate D2E/DX2                !
 ! A189  A(59,57,83)           121.8207         estimate D2E/DX2                !
 ! A190  A(22,58,60)           108.1833         estimate D2E/DX2                !
 ! A191  A(22,58,84)           121.6446         estimate D2E/DX2                !
 ! A192  A(60,58,84)           121.8177         estimate D2E/DX2                !
 ! A193  A(57,59,60)           119.8994         estimate D2E/DX2                !
 ! A194  A(57,59,61)           111.3193         estimate D2E/DX2                !
 ! A195  A(60,59,61)           121.3993         estimate D2E/DX2                !
 ! A196  A(58,60,59)           119.8714         estimate D2E/DX2                !
 ! A197  A(58,60,62)           111.2952         estimate D2E/DX2                !
 ! A198  A(59,60,62)           121.4066         estimate D2E/DX2                !
 ! A199  A(23,61,59)           100.8744         estimate D2E/DX2                !
 ! A200  A(23,61,63)           109.7854         estimate D2E/DX2                !
 ! A201  A(23,61,89)           113.9192         estimate D2E/DX2                !
 ! A202  A(59,61,63)           109.8378         estimate D2E/DX2                !
 ! A203  A(59,61,89)           113.7111         estimate D2E/DX2                !
 ! A204  A(63,61,89)           108.507          estimate D2E/DX2                !
 ! A205  A(24,62,60)           100.8755         estimate D2E/DX2                !
 ! A206  A(24,62,64)           109.7553         estimate D2E/DX2                !
 ! A207  A(24,62,90)           113.8915         estimate D2E/DX2                !
 ! A208  A(60,62,64)           109.8702         estimate D2E/DX2                !
 ! A209  A(60,62,90)           113.6949         estimate D2E/DX2                !
 ! A210  A(64,62,90)           108.5448         estimate D2E/DX2                !
 ! A211  A(61,63,64)           119.9779         estimate D2E/DX2                !
 ! A212  A(61,63,65)           120.0445         estimate D2E/DX2                !
 ! A213  A(64,63,65)           119.8306         estimate D2E/DX2                !
 ! A214  A(62,64,63)           120.0267         estimate D2E/DX2                !
 ! A215  A(62,64,66)           119.9915         estimate D2E/DX2                !
 ! A216  A(63,64,66)           119.833          estimate D2E/DX2                !
 ! A217  A(27,65,63)           119.7111         estimate D2E/DX2                !
 ! A218  A(27,65,67)           119.7117         estimate D2E/DX2                !
 ! A219  A(63,65,67)           120.3885         estimate D2E/DX2                !
 ! A220  A(28,66,64)           119.7038         estimate D2E/DX2                !
 ! A221  A(28,66,68)           119.7599         estimate D2E/DX2                !
 ! A222  A(64,66,68)           120.3317         estimate D2E/DX2                !
 ! A223  A(65,67,68)           119.7218         estimate D2E/DX2                !
 ! A224  A(65,67,69)           119.8885         estimate D2E/DX2                !
 ! A225  A(68,67,69)           120.2264         estimate D2E/DX2                !
 ! A226  A(66,68,67)           119.8825         estimate D2E/DX2                !
 ! A227  A(66,68,70)           119.6848         estimate D2E/DX2                !
 ! A228  A(67,68,70)           120.2617         estimate D2E/DX2                !
 ! A229  A(31,69,67)           108.6252         estimate D2E/DX2                !
 ! A230  A(31,69,71)           100.9408         estimate D2E/DX2                !
 ! A231  A(31,69,86)           114.5173         estimate D2E/DX2                !
 ! A232  A(67,69,71)           110.457          estimate D2E/DX2                !
 ! A233  A(67,69,86)           108.4089         estimate D2E/DX2                !
 ! A234  A(71,69,86)           113.6651         estimate D2E/DX2                !
 ! A235  A(32,70,68)           108.4802         estimate D2E/DX2                !
 ! A236  A(32,70,72)           101.037          estimate D2E/DX2                !
 ! A237  A(32,70,87)           114.378          estimate D2E/DX2                !
 ! A238  A(68,70,72)           110.2749         estimate D2E/DX2                !
 ! A239  A(68,70,87)           108.541          estimate D2E/DX2                !
 ! A240  A(72,70,87)           113.8732         estimate D2E/DX2                !
 ! A241  A(69,71,72)           121.5123         estimate D2E/DX2                !
 ! A242  A(69,71,73)           110.6333         estimate D2E/DX2                !
 ! A243  A(72,71,73)           119.8209         estimate D2E/DX2                !
 ! A244  A(70,72,71)           122.1101         estimate D2E/DX2                !
 ! A245  A(70,72,74)           110.3611         estimate D2E/DX2                !
 ! A246  A(71,72,74)           118.8463         estimate D2E/DX2                !
 ! A247  A(33,73,71)           108.3493         estimate D2E/DX2                !
 ! A248  A(33,73,75)           120.1798         estimate D2E/DX2                !
 ! A249  A(71,73,75)           122.0346         estimate D2E/DX2                !
 ! A250  A(34,74,72)           109.2472         estimate D2E/DX2                !
 ! A251  A(34,74,76)           119.4681         estimate D2E/DX2                !
 ! A252  A(72,74,76)           121.0091         estimate D2E/DX2                !
 ! A253  A(73,75,76)           117.7791         estimate D2E/DX2                !
 ! A254  A(73,75,77)           122.5624         estimate D2E/DX2                !
 ! A255  A(76,75,77)           110.5421         estimate D2E/DX2                !
 ! A256  A(74,76,75)           120.2955         estimate D2E/DX2                !
 ! A257  A(74,76,78)           119.7379         estimate D2E/DX2                !
 ! A258  A(75,76,78)           109.2201         estimate D2E/DX2                !
 ! A259  A(37,77,75)           112.3842         estimate D2E/DX2                !
 ! A260  A(37,77,81)           110.5116         estimate D2E/DX2                !
 ! A261  A(37,77,96)           108.468          estimate D2E/DX2                !
 ! A262  A(75,77,81)           100.8117         estimate D2E/DX2                !
 ! A263  A(75,77,96)           111.9928         estimate D2E/DX2                !
 ! A264  A(81,77,96)           112.5893         estimate D2E/DX2                !
 ! A265  A(38,78,76)           121.6221         estimate D2E/DX2                !
 ! A266  A(38,78,81)           123.0275         estimate D2E/DX2                !
 ! A267  A(76,78,81)           107.1647         estimate D2E/DX2                !
 ! A268  A(39,79,40)           109.5521         estimate D2E/DX2                !
 ! A269  A(39,79,82)           110.8977         estimate D2E/DX2                !
 ! A270  A(39,79,94)           110.3419         estimate D2E/DX2                !
 ! A271  A(40,79,82)           100.6511         estimate D2E/DX2                !
 ! A272  A(40,79,94)           111.9936         estimate D2E/DX2                !
 ! A273  A(82,79,94)           113.0386         estimate D2E/DX2                !
 ! A274  A(41,80,42)           119.1871         estimate D2E/DX2                !
 ! A275  A(41,80,82)           107.2937         estimate D2E/DX2                !
 ! A276  A(42,80,82)           122.6914         estimate D2E/DX2                !
 ! A277  A(77,81,78)           111.688          estimate D2E/DX2                !
 ! A278  A(77,81,82)           122.1387         estimate D2E/DX2                !
 ! A279  A(78,81,82)           119.1198         estimate D2E/DX2                !
 ! A280  A(79,82,80)           111.4879         estimate D2E/DX2                !
 ! A281  A(79,82,81)           122.3739         estimate D2E/DX2                !
 ! A282  A(80,82,81)           119.4975         estimate D2E/DX2                !
 ! A283  A(55,83,57)           116.5712         estimate D2E/DX2                !
 ! A284  A(55,83,84)           118.3594         estimate D2E/DX2                !
 ! A285  A(57,83,84)           118.2742         estimate D2E/DX2                !
 ! A286  A(56,84,58)           116.5034         estimate D2E/DX2                !
 ! A287  A(56,84,83)           118.3325         estimate D2E/DX2                !
 ! A288  A(58,84,83)           118.314          estimate D2E/DX2                !
 ! D1    D(17,1,5,9)            -3.4169         estimate D2E/DX2                !
 ! D2    D(17,1,5,29)         -151.2534         estimate D2E/DX2                !
 ! D3    D(25,1,5,9)           145.0574         estimate D2E/DX2                !
 ! D4    D(25,1,5,29)           -2.779          estimate D2E/DX2                !
 ! D5    D(5,1,17,15)           -5.6295         estimate D2E/DX2                !
 ! D6    D(5,1,17,19)          144.6267         estimate D2E/DX2                !
 ! D7    D(25,1,17,15)        -149.7734         estimate D2E/DX2                !
 ! D8    D(25,1,17,19)           0.4828         estimate D2E/DX2                !
 ! D9    D(5,1,25,23)         -147.851          estimate D2E/DX2                !
 ! D10   D(5,1,25,27)            2.3365         estimate D2E/DX2                !
 ! D11   D(17,1,25,23)           0.623          estimate D2E/DX2                !
 ! D12   D(17,1,25,27)         150.8105         estimate D2E/DX2                !
 ! D13   D(43,2,6,10)         -140.6451         estimate D2E/DX2                !
 ! D14   D(43,2,6,15)            9.2026         estimate D2E/DX2                !
 ! D15   D(44,2,6,10)          -24.6503         estimate D2E/DX2                !
 ! D16   D(44,2,6,15)          125.1975         estimate D2E/DX2                !
 ! D17   D(93,2,6,10)           99.2557         estimate D2E/DX2                !
 ! D18   D(93,2,6,15)         -110.8965         estimate D2E/DX2                !
 ! D19   D(6,2,43,13)           -9.9178         estimate D2E/DX2                !
 ! D20   D(6,2,43,39)          146.4847         estimate D2E/DX2                !
 ! D21   D(44,2,43,13)        -126.4635         estimate D2E/DX2                !
 ! D22   D(44,2,43,39)          29.939          estimate D2E/DX2                !
 ! D23   D(93,2,43,13)         110.794          estimate D2E/DX2                !
 ! D24   D(93,2,43,39)         -92.8035         estimate D2E/DX2                !
 ! D25   D(6,2,44,40)         -145.5731         estimate D2E/DX2                !
 ! D26   D(6,2,44,47)           20.8598         estimate D2E/DX2                !
 ! D27   D(43,2,44,40)         -34.6987         estimate D2E/DX2                !
 ! D28   D(43,2,44,47)         131.7343         estimate D2E/DX2                !
 ! D29   D(93,2,44,40)          89.048          estimate D2E/DX2                !
 ! D30   D(93,2,44,47)        -104.519          estimate D2E/DX2                !
 ! D31   D(18,3,7,12)            2.9537         estimate D2E/DX2                !
 ! D32   D(18,3,7,30)          151.1964         estimate D2E/DX2                !
 ! D33   D(26,3,7,12)         -145.79           estimate D2E/DX2                !
 ! D34   D(26,3,7,30)            2.4527         estimate D2E/DX2                !
 ! D35   D(7,3,18,16)            5.3168         estimate D2E/DX2                !
 ! D36   D(7,3,18,20)         -145.1179         estimate D2E/DX2                !
 ! D37   D(26,3,18,16)         149.9116         estimate D2E/DX2                !
 ! D38   D(26,3,18,20)          -0.5231         estimate D2E/DX2                !
 ! D39   D(7,3,26,24)          148.189          estimate D2E/DX2                !
 ! D40   D(7,3,26,28)           -2.1967         estimate D2E/DX2                !
 ! D41   D(18,3,26,24)          -0.5945         estimate D2E/DX2                !
 ! D42   D(18,3,26,28)        -150.9802         estimate D2E/DX2                !
 ! D43   D(45,4,8,11)           24.6564         estimate D2E/DX2                !
 ! D44   D(45,4,8,16)         -124.8021         estimate D2E/DX2                !
 ! D45   D(46,4,8,11)          142.3965         estimate D2E/DX2                !
 ! D46   D(46,4,8,16)           -7.0621         estimate D2E/DX2                !
 ! D47   D(95,4,8,11)          -97.8594         estimate D2E/DX2                !
 ! D48   D(95,4,8,16)          112.682          estimate D2E/DX2                !
 ! D49   D(8,4,45,41)          145.132          estimate D2E/DX2                !
 ! D50   D(8,4,45,48)          -22.0271         estimate D2E/DX2                !
 ! D51   D(46,4,45,41)          33.153          estimate D2E/DX2                !
 ! D52   D(46,4,45,48)        -134.0061         estimate D2E/DX2                !
 ! D53   D(95,4,45,41)         -90.5406         estimate D2E/DX2                !
 ! D54   D(95,4,45,48)         102.3003         estimate D2E/DX2                !
 ! D55   D(8,4,46,14)            7.7746         estimate D2E/DX2                !
 ! D56   D(8,4,46,42)         -145.9096         estimate D2E/DX2                !
 ! D57   D(45,4,46,14)         125.0455         estimate D2E/DX2                !
 ! D58   D(45,4,46,42)         -28.6387         estimate D2E/DX2                !
 ! D59   D(95,4,46,14)        -112.5674         estimate D2E/DX2                !
 ! D60   D(95,4,46,42)          93.7484         estimate D2E/DX2                !
 ! D61   D(1,5,9,13)             8.0602         estimate D2E/DX2                !
 ! D62   D(1,5,9,35)          -146.0894         estimate D2E/DX2                !
 ! D63   D(29,5,9,13)          151.8739         estimate D2E/DX2                !
 ! D64   D(29,5,9,35)           -2.2757         estimate D2E/DX2                !
 ! D65   D(1,5,29,27)            2.212          estimate D2E/DX2                !
 ! D66   D(1,5,29,31)          152.5968         estimate D2E/DX2                !
 ! D67   D(9,5,29,27)         -145.7675         estimate D2E/DX2                !
 ! D68   D(9,5,29,31)            4.6173         estimate D2E/DX2                !
 ! D69   D(2,6,10,49)           -0.5124         estimate D2E/DX2                !
 ! D70   D(2,6,10,53)          147.258          estimate D2E/DX2                !
 ! D71   D(15,6,10,49)        -147.6354         estimate D2E/DX2                !
 ! D72   D(15,6,10,53)           0.1351         estimate D2E/DX2                !
 ! D73   D(2,6,15,13)           -5.3853         estimate D2E/DX2                !
 ! D74   D(2,6,15,17)         -152.4013         estimate D2E/DX2                !
 ! D75   D(10,6,15,13)         145.2006         estimate D2E/DX2                !
 ! D76   D(10,6,15,17)          -1.8155         estimate D2E/DX2                !
 ! D77   D(3,7,12,14)           -7.1716         estimate D2E/DX2                !
 ! D78   D(3,7,12,36)          145.8911         estimate D2E/DX2                !
 ! D79   D(30,7,12,14)        -151.1674         estimate D2E/DX2                !
 ! D80   D(30,7,12,36)           1.8953         estimate D2E/DX2                !
 ! D81   D(3,7,30,28)           -1.8353         estimate D2E/DX2                !
 ! D82   D(3,7,30,32)         -152.4313         estimate D2E/DX2                !
 ! D83   D(12,7,30,28)         146.6101         estimate D2E/DX2                !
 ! D84   D(12,7,30,32)          -3.9858         estimate D2E/DX2                !
 ! D85   D(4,8,11,50)            0.9891         estimate D2E/DX2                !
 ! D86   D(4,8,11,54)         -146.7617         estimate D2E/DX2                !
 ! D87   D(16,8,11,50)         147.4533         estimate D2E/DX2                !
 ! D88   D(16,8,11,54)          -0.2976         estimate D2E/DX2                !
 ! D89   D(4,8,16,14)            4.0303         estimate D2E/DX2                !
 ! D90   D(4,8,16,18)          151.7675         estimate D2E/DX2                !
 ! D91   D(11,8,16,14)        -145.9211         estimate D2E/DX2                !
 ! D92   D(11,8,16,18)           1.8161         estimate D2E/DX2                !
 ! D93   D(5,9,13,15)           -3.9491         estimate D2E/DX2                !
 ! D94   D(5,9,13,43)         -152.1096         estimate D2E/DX2                !
 ! D95   D(35,9,13,15)         150.5593         estimate D2E/DX2                !
 ! D96   D(35,9,13,43)           2.3989         estimate D2E/DX2                !
 ! D97   D(5,9,35,33)           -5.5646         estimate D2E/DX2                !
 ! D98   D(5,9,35,37)          150.8226         estimate D2E/DX2                !
 ! D99   D(13,9,35,33)        -158.9563         estimate D2E/DX2                !
 ! D100  D(13,9,35,37)          -2.5691         estimate D2E/DX2                !
 ! D101  D(6,10,49,47)          29.1929         estimate D2E/DX2                !
 ! D102  D(6,10,49,51)         145.6704         estimate D2E/DX2                !
 ! D103  D(6,10,49,91)         -93.0151         estimate D2E/DX2                !
 ! D104  D(53,10,49,47)       -121.0134         estimate D2E/DX2                !
 ! D105  D(53,10,49,51)         -4.5358         estimate D2E/DX2                !
 ! D106  D(53,10,49,91)        116.7786         estimate D2E/DX2                !
 ! D107  D(6,10,53,19)           1.1145         estimate D2E/DX2                !
 ! D108  D(6,10,53,55)        -148.1223         estimate D2E/DX2                !
 ! D109  D(49,10,53,19)        152.4264         estimate D2E/DX2                !
 ! D110  D(49,10,53,55)          3.1896         estimate D2E/DX2                !
 ! D111  D(8,11,50,48)         -29.3465         estimate D2E/DX2                !
 ! D112  D(8,11,50,52)        -145.6811         estimate D2E/DX2                !
 ! D113  D(8,11,50,92)          92.7836         estimate D2E/DX2                !
 ! D114  D(54,11,50,48)        120.8336         estimate D2E/DX2                !
 ! D115  D(54,11,50,52)          4.499          estimate D2E/DX2                !
 ! D116  D(54,11,50,92)       -117.0362         estimate D2E/DX2                !
 ! D117  D(8,11,54,20)          -0.9026         estimate D2E/DX2                !
 ! D118  D(8,11,54,56)         148.1447         estimate D2E/DX2                !
 ! D119  D(50,11,54,20)       -152.2502         estimate D2E/DX2                !
 ! D120  D(50,11,54,56)         -3.2029         estimate D2E/DX2                !
 ! D121  D(7,12,14,16)           3.3742         estimate D2E/DX2                !
 ! D122  D(7,12,14,46)         151.5489         estimate D2E/DX2                !
 ! D123  D(36,12,14,16)       -149.9194         estimate D2E/DX2                !
 ! D124  D(36,12,14,46)         -1.7446         estimate D2E/DX2                !
 ! D125  D(7,12,36,34)           4.1155         estimate D2E/DX2                !
 ! D126  D(7,12,36,38)        -149.3782         estimate D2E/DX2                !
 ! D127  D(14,12,36,34)        156.3306         estimate D2E/DX2                !
 ! D128  D(14,12,36,38)          2.8369         estimate D2E/DX2                !
 ! D129  D(9,13,15,6)         -152.634          estimate D2E/DX2                !
 ! D130  D(9,13,15,17)          -5.1037         estimate D2E/DX2                !
 ! D131  D(43,13,15,6)          -1.3083         estimate D2E/DX2                !
 ! D132  D(43,13,15,17)        146.222          estimate D2E/DX2                !
 ! D133  D(9,13,43,2)          159.2392         estimate D2E/DX2                !
 ! D134  D(9,13,43,39)           1.4144         estimate D2E/DX2                !
 ! D135  D(15,13,43,2)           7.3699         estimate D2E/DX2                !
 ! D136  D(15,13,43,39)       -150.4549         estimate D2E/DX2                !
 ! D137  D(12,14,16,8)         152.8097         estimate D2E/DX2                !
 ! D138  D(12,14,16,18)          4.9095         estimate D2E/DX2                !
 ! D139  D(46,14,16,8)           1.1737         estimate D2E/DX2                !
 ! D140  D(46,14,16,18)       -146.7266         estimate D2E/DX2                !
 ! D141  D(12,14,46,4)        -157.5776         estimate D2E/DX2                !
 ! D142  D(12,14,46,42)         -2.789          estimate D2E/DX2                !
 ! D143  D(16,14,46,4)          -5.8475         estimate D2E/DX2                !
 ! D144  D(16,14,46,42)        148.9411         estimate D2E/DX2                !
 ! D145  D(6,15,17,1)          152.5708         estimate D2E/DX2                !
 ! D146  D(6,15,17,19)           2.1854         estimate D2E/DX2                !
 ! D147  D(13,15,17,1)           9.6768         estimate D2E/DX2                !
 ! D148  D(13,15,17,19)       -140.7086         estimate D2E/DX2                !
 ! D149  D(8,16,18,3)         -152.6352         estimate D2E/DX2                !
 ! D150  D(8,16,18,20)          -2.0726         estimate D2E/DX2                !
 ! D151  D(14,16,18,3)          -9.0516         estimate D2E/DX2                !
 ! D152  D(14,16,18,20)        141.5111         estimate D2E/DX2                !
 ! D153  D(1,17,19,21)          -1.0202         estimate D2E/DX2                !
 ! D154  D(1,17,19,53)        -150.638          estimate D2E/DX2                !
 ! D155  D(15,17,19,21)        148.706          estimate D2E/DX2                !
 ! D156  D(15,17,19,53)         -0.9118         estimate D2E/DX2                !
 ! D157  D(3,18,20,22)           1.0202         estimate D2E/DX2                !
 ! D158  D(3,18,20,54)         150.7076         estimate D2E/DX2                !
 ! D159  D(16,18,20,22)       -148.829          estimate D2E/DX2                !
 ! D160  D(16,18,20,54)          0.8584         estimate D2E/DX2                !
 ! D161  D(17,19,21,23)          0.5177         estimate D2E/DX2                !
 ! D162  D(17,19,21,57)       -144.0501         estimate D2E/DX2                !
 ! D163  D(53,19,21,23)        150.6298         estimate D2E/DX2                !
 ! D164  D(53,19,21,57)          6.062          estimate D2E/DX2                !
 ! D165  D(17,19,53,10)         -0.701          estimate D2E/DX2                !
 ! D166  D(17,19,53,55)        144.6114         estimate D2E/DX2                !
 ! D167  D(21,19,53,10)       -150.7302         estimate D2E/DX2                !
 ! D168  D(21,19,53,55)         -5.4178         estimate D2E/DX2                !
 ! D169  D(18,20,22,24)         -0.4634         estimate D2E/DX2                !
 ! D170  D(18,20,22,58)        144.1021         estimate D2E/DX2                !
 ! D171  D(54,20,22,24)       -150.7332         estimate D2E/DX2                !
 ! D172  D(54,20,22,58)         -6.1678         estimate D2E/DX2                !
 ! D173  D(18,20,54,11)          0.6014         estimate D2E/DX2                !
 ! D174  D(18,20,54,56)       -144.4474         estimate D2E/DX2                !
 ! D175  D(22,20,54,11)        150.7322         estimate D2E/DX2                !
 ! D176  D(22,20,54,56)          5.6833         estimate D2E/DX2                !
 ! D177  D(19,21,23,25)          0.5843         estimate D2E/DX2                !
 ! D178  D(19,21,23,61)       -149.0402         estimate D2E/DX2                !
 ! D179  D(57,21,23,25)        149.214          estimate D2E/DX2                !
 ! D180  D(57,21,23,61)         -0.4106         estimate D2E/DX2                !
 ! D181  D(19,21,57,59)        148.1947         estimate D2E/DX2                !
 ! D182  D(19,21,57,83)         -0.4827         estimate D2E/DX2                !
 ! D183  D(23,21,57,59)         -0.5657         estimate D2E/DX2                !
 ! D184  D(23,21,57,83)       -149.2431         estimate D2E/DX2                !
 ! D185  D(20,22,24,26)         -0.6509         estimate D2E/DX2                !
 ! D186  D(20,22,24,62)        149.174          estimate D2E/DX2                !
 ! D187  D(58,22,24,26)       -149.292          estimate D2E/DX2                !
 ! D188  D(58,22,24,62)          0.5328         estimate D2E/DX2                !
 ! D189  D(20,22,58,60)       -148.23           estimate D2E/DX2                !
 ! D190  D(20,22,58,84)          0.4492         estimate D2E/DX2                !
 ! D191  D(24,22,58,60)          0.4939         estimate D2E/DX2                !
 ! D192  D(24,22,58,84)        149.1731         estimate D2E/DX2                !
 ! D193  D(21,23,25,1)          -1.1476         estimate D2E/DX2                !
 ! D194  D(21,23,25,27)       -148.2921         estimate D2E/DX2                !
 ! D195  D(61,23,25,1)         145.509          estimate D2E/DX2                !
 ! D196  D(61,23,25,27)         -1.6355         estimate D2E/DX2                !
 ! D197  D(21,23,61,59)          1.1254         estimate D2E/DX2                !
 ! D198  D(21,23,61,63)        116.9967         estimate D2E/DX2                !
 ! D199  D(21,23,61,89)       -121.0935         estimate D2E/DX2                !
 ! D200  D(25,23,61,59)       -148.1378         estimate D2E/DX2                !
 ! D201  D(25,23,61,63)        -32.2665         estimate D2E/DX2                !
 ! D202  D(25,23,61,89)         89.6433         estimate D2E/DX2                !
 ! D203  D(22,24,26,3)           1.1736         estimate D2E/DX2                !
 ! D204  D(22,24,26,28)        148.6274         estimate D2E/DX2                !
 ! D205  D(62,24,26,3)        -145.6867         estimate D2E/DX2                !
 ! D206  D(62,24,26,28)          1.7672         estimate D2E/DX2                !
 ! D207  D(22,24,62,60)         -1.2427         estimate D2E/DX2                !
 ! D208  D(22,24,62,64)       -117.1395         estimate D2E/DX2                !
 ! D209  D(22,24,62,90)        120.9434         estimate D2E/DX2                !
 ! D210  D(26,24,62,60)        148.2196         estimate D2E/DX2                !
 ! D211  D(26,24,62,64)         32.3228         estimate D2E/DX2                !
 ! D212  D(26,24,62,90)        -89.5943         estimate D2E/DX2                !
 ! D213  D(1,25,27,29)          -0.9861         estimate D2E/DX2                !
 ! D214  D(1,25,27,65)        -115.5501         estimate D2E/DX2                !
 ! D215  D(1,25,27,85)         122.0162         estimate D2E/DX2                !
 ! D216  D(23,25,27,29)        148.6488         estimate D2E/DX2                !
 ! D217  D(23,25,27,65)         34.0848         estimate D2E/DX2                !
 ! D218  D(23,25,27,85)        -88.349          estimate D2E/DX2                !
 ! D219  D(3,26,28,30)           1.0456         estimate D2E/DX2                !
 ! D220  D(3,26,28,66)         115.66           estimate D2E/DX2                !
 ! D221  D(3,26,28,88)        -121.8651         estimate D2E/DX2                !
 ! D222  D(24,26,28,30)       -148.8579         estimate D2E/DX2                !
 ! D223  D(24,26,28,66)        -34.2435         estimate D2E/DX2                !
 ! D224  D(24,26,28,88)         88.2314         estimate D2E/DX2                !
 ! D225  D(25,27,29,5)          -0.777          estimate D2E/DX2                !
 ! D226  D(25,27,29,31)       -150.1791         estimate D2E/DX2                !
 ! D227  D(65,27,29,5)         114.6282         estimate D2E/DX2                !
 ! D228  D(65,27,29,31)        -34.7738         estimate D2E/DX2                !
 ! D229  D(85,27,29,5)        -123.1928         estimate D2E/DX2                !
 ! D230  D(85,27,29,31)         87.4052         estimate D2E/DX2                !
 ! D231  D(25,27,65,63)        -31.8932         estimate D2E/DX2                !
 ! D232  D(25,27,65,67)        143.1355         estimate D2E/DX2                !
 ! D233  D(29,27,65,63)       -141.3801         estimate D2E/DX2                !
 ! D234  D(29,27,65,67)         33.6486         estimate D2E/DX2                !
 ! D235  D(85,27,65,63)         93.2108         estimate D2E/DX2                !
 ! D236  D(85,27,65,67)        -91.7604         estimate D2E/DX2                !
 ! D237  D(26,28,30,7)           0.5166         estimate D2E/DX2                !
 ! D238  D(26,28,30,32)        150.3376         estimate D2E/DX2                !
 ! D239  D(66,28,30,7)        -114.8987         estimate D2E/DX2                !
 ! D240  D(66,28,30,32)         34.9222         estimate D2E/DX2                !
 ! D241  D(88,28,30,7)         122.9224         estimate D2E/DX2                !
 ! D242  D(88,28,30,32)        -87.2567         estimate D2E/DX2                !
 ! D243  D(26,28,66,64)         31.9379         estimate D2E/DX2                !
 ! D244  D(26,28,66,68)       -142.884          estimate D2E/DX2                !
 ! D245  D(30,28,66,64)        141.3675         estimate D2E/DX2                !
 ! D246  D(30,28,66,68)        -33.4545         estimate D2E/DX2                !
 ! D247  D(88,28,66,64)        -93.251          estimate D2E/DX2                !
 ! D248  D(88,28,66,68)         91.9271         estimate D2E/DX2                !
 ! D249  D(5,29,31,33)           1.2262         estimate D2E/DX2                !
 ! D250  D(5,29,31,69)        -147.4705         estimate D2E/DX2                !
 ! D251  D(27,29,31,33)        148.3678         estimate D2E/DX2                !
 ! D252  D(27,29,31,69)         -0.3289         estimate D2E/DX2                !
 ! D253  D(7,30,32,34)          -0.1757         estimate D2E/DX2                !
 ! D254  D(7,30,32,70)         147.5672         estimate D2E/DX2                !
 ! D255  D(28,30,32,34)       -147.7365         estimate D2E/DX2                !
 ! D256  D(28,30,32,70)          0.0064         estimate D2E/DX2                !
 ! D257  D(29,31,33,35)         -9.648          estimate D2E/DX2                !
 ! D258  D(29,31,33,73)       -155.1057         estimate D2E/DX2                !
 ! D259  D(69,31,33,35)        141.4047         estimate D2E/DX2                !
 ! D260  D(69,31,33,73)         -4.0529         estimate D2E/DX2                !
 ! D261  D(29,31,69,67)         35.5802         estimate D2E/DX2                !
 ! D262  D(29,31,69,71)        151.735          estimate D2E/DX2                !
 ! D263  D(29,31,69,86)        -85.7513         estimate D2E/DX2                !
 ! D264  D(33,31,69,67)       -115.5539         estimate D2E/DX2                !
 ! D265  D(33,31,69,71)          0.601          estimate D2E/DX2                !
 ! D266  D(33,31,69,86)        123.1146         estimate D2E/DX2                !
 ! D267  D(30,32,34,36)          6.5993         estimate D2E/DX2                !
 ! D268  D(30,32,34,74)        154.9154         estimate D2E/DX2                !
 ! D269  D(70,32,34,36)       -143.8546         estimate D2E/DX2                !
 ! D270  D(70,32,34,74)          4.4615         estimate D2E/DX2                !
 ! D271  D(30,32,70,68)        -35.4777         estimate D2E/DX2                !
 ! D272  D(30,32,70,72)       -151.4183         estimate D2E/DX2                !
 ! D273  D(30,32,70,87)         85.8238         estimate D2E/DX2                !
 ! D274  D(34,32,70,68)        114.6752         estimate D2E/DX2                !
 ! D275  D(34,32,70,72)         -1.2654         estimate D2E/DX2                !
 ! D276  D(34,32,70,87)       -124.0233         estimate D2E/DX2                !
 ! D277  D(31,33,35,9)          11.5209         estimate D2E/DX2                !
 ! D278  D(31,33,35,37)       -144.6859         estimate D2E/DX2                !
 ! D279  D(73,33,35,9)         152.6958         estimate D2E/DX2                !
 ! D280  D(73,33,35,37)         -3.5111         estimate D2E/DX2                !
 ! D281  D(31,33,73,71)          5.99           estimate D2E/DX2                !
 ! D282  D(31,33,73,75)        153.062          estimate D2E/DX2                !
 ! D283  D(35,33,73,71)       -140.0873         estimate D2E/DX2                !
 ! D284  D(35,33,73,75)          6.9848         estimate D2E/DX2                !
 ! D285  D(32,34,36,12)         -8.4045         estimate D2E/DX2                !
 ! D286  D(32,34,36,38)        145.3381         estimate D2E/DX2                !
 ! D287  D(74,34,36,12)       -152.2192         estimate D2E/DX2                !
 ! D288  D(74,34,36,38)          1.5233         estimate D2E/DX2                !
[...]
 Alpha virt. eigenvalues --    1.38265   1.38641   1.39338   1.39903   1.40440
 Alpha virt. eigenvalues --    1.40687   1.41149   1.41314   1.42085   1.42505
 Alpha virt. eigenvalues --    1.43546   1.43847   1.44930   1.45053   1.45431
 Alpha virt. eigenvalues --    1.46130   1.46594   1.46720   1.47520   1.47731
 Alpha virt. eigenvalues --    1.48478   1.48699   1.49051   1.49572   1.50108
 Alpha virt. eigenvalues --    1.50280   1.50803   1.51637   1.52285   1.52614
 Alpha virt. eigenvalues --    1.53173   1.53527   1.53944   1.54830   1.55172
 Alpha virt. eigenvalues --    1.55908   1.56142   1.57135   1.58256   1.58444
 Alpha virt. eigenvalues --    1.58698   1.58988   1.59892   1.60367   1.61099
 Alpha virt. eigenvalues --    1.61145   1.61517   1.61923   1.62080   1.62510
 Alpha virt. eigenvalues --    1.62988   1.63258   1.63521   1.64227   1.64394
 Alpha virt. eigenvalues --    1.64593   1.64846   1.65043   1.65456   1.65621
 Alpha virt. eigenvalues --    1.65764   1.66006   1.66098   1.66291   1.66631
 Alpha virt. eigenvalues --    1.66941   1.67208   1.67421   1.67556   1.67699
 Alpha virt. eigenvalues --    1.67863   1.68013   1.68215   1.68420   1.68563
 Alpha virt. eigenvalues --    1.68765   1.68918   1.69287   1.69638   1.69690
 Alpha virt. eigenvalues --    1.69779   1.70544   1.70574   1.70883   1.71181
 Alpha virt. eigenvalues --    1.71550   1.71783   1.71949   1.72143   1.72401
 Alpha virt. eigenvalues --    1.72713   1.72926   1.73054   1.73436   1.73897
 Alpha virt. eigenvalues --    1.74392   1.74544   1.74656   1.74795   1.75004
 Alpha virt. eigenvalues --    1.75158   1.75323   1.75730   1.75986   1.76117
 Alpha virt. eigenvalues --    1.76469   1.76690   1.77118   1.77176   1.77397
 Alpha virt. eigenvalues --    1.77562   1.77823   1.78066   1.78317   1.78378
 Alpha virt. eigenvalues --    1.78571   1.78653   1.78930   1.79157   1.79301
 Alpha virt. eigenvalues --    1.79694   1.79890   1.80147   1.80211   1.80501
 Alpha virt. eigenvalues --    1.80686   1.80912   1.81117   1.81420   1.81542
 Alpha virt. eigenvalues --    1.82020   1.82124   1.82460   1.82628   1.83492
 Alpha virt. eigenvalues --    1.83614   1.83919   1.84188   1.84678   1.84959
 Alpha virt. eigenvalues --    1.85171   1.85555   1.85908   1.86229   1.86403
 Alpha virt. eigenvalues --    1.86650   1.86970   1.87353   1.87571   1.87846
 Alpha virt. eigenvalues --    1.88186   1.88496   1.88777   1.88957   1.89364
 Alpha virt. eigenvalues --    1.89780   1.90044   1.90270   1.90759   1.91307
 Alpha virt. eigenvalues --    1.91521   1.92243   1.92595   1.92900   1.93402
 Alpha virt. eigenvalues --    1.93613   1.93907   1.94171   1.94397   1.94870
 Alpha virt. eigenvalues --    1.95427   1.95887   1.95907   1.96380   1.96990
 Alpha virt. eigenvalues --    1.97126   1.97866   1.98273   1.98350   1.98523
 Alpha virt. eigenvalues --    1.98990   1.99423   1.99804   2.00100   2.00348
 Alpha virt. eigenvalues --    2.00437   2.00799   2.01200   2.01530   2.01653
 Alpha virt. eigenvalues --    2.02052   2.02276   2.02534   2.02840   2.03228
 Alpha virt. eigenvalues --    2.03856   2.04219   2.04465   2.04662   2.04809
 Alpha virt. eigenvalues --    2.05088   2.05700   2.05971   2.06803   2.07100
 Alpha virt. eigenvalues --    2.07398   2.07641   2.08086   2.08414   2.08481
 Alpha virt. eigenvalues --    2.08706   2.09382   2.09554   2.10265   2.10459
 Alpha virt. eigenvalues --    2.10750   2.10895   2.11256   2.11514   2.12158
 Alpha virt. eigenvalues --    2.12316   2.12854   2.13551   2.13691   2.13962
 Alpha virt. eigenvalues --    2.14219   2.15075   2.15580   2.16118   2.16225
 Alpha virt. eigenvalues --    2.16476   2.17136   2.17409   2.17553   2.17917
 Alpha virt. eigenvalues --    2.18207   2.18628   2.19160   2.19534   2.19982
 Alpha virt. eigenvalues --    2.20354   2.20811   2.20963   2.21443   2.22010
 Alpha virt. eigenvalues --    2.22523   2.22693   2.23200   2.23678   2.24132
 Alpha virt. eigenvalues --    2.24148   2.24805   2.25340   2.25621   2.25937
 Alpha virt. eigenvalues --    2.26475   2.26874   2.27714   2.27797   2.28100
 Alpha virt. eigenvalues --    2.28471   2.28762   2.29221   2.29393   2.30061
 Alpha virt. eigenvalues --    2.30482   2.30993   2.31170   2.31843   2.32159
 Alpha virt. eigenvalues --    2.32784   2.33248   2.33879   2.34601   2.35092
 Alpha virt. eigenvalues --    2.35366   2.35781   2.36340   2.37193   2.38011
 Alpha virt. eigenvalues --    2.38512   2.38895   2.38934   2.39705   2.39816
 Alpha virt. eigenvalues --    2.40095   2.40336   2.41132   2.41569   2.41622
 Alpha virt. eigenvalues --    2.42735   2.42900   2.43045   2.43248   2.43996
 Alpha virt. eigenvalues --    2.44198   2.44684   2.45383   2.46290   2.46858
 Alpha virt. eigenvalues --    2.46923   2.47799   2.48241   2.49056   2.49925
 Alpha virt. eigenvalues --    2.50361   2.50642   2.51278   2.51605   2.51845
 Alpha virt. eigenvalues --    2.52282   2.52486   2.53080   2.53149   2.53457
 Alpha virt. eigenvalues --    2.54372   2.54614   2.54969   2.55497   2.55639
 Alpha virt. eigenvalues --    2.56123   2.56392   2.56728   2.56979   2.57282
 Alpha virt. eigenvalues --    2.57496   2.57698   2.58007   2.58571   2.58940
 Alpha virt. eigenvalues --    2.59200   2.59568   2.60193   2.60485   2.60640
 Alpha virt. eigenvalues --    2.61121   2.61323   2.61984   2.62441   2.62820
 Alpha virt. eigenvalues --    2.63116   2.63537   2.63694   2.63971   2.64449
 Alpha virt. eigenvalues --    2.64511   2.64931   2.65468   2.65902   2.66412
 Alpha virt. eigenvalues --    2.66488   2.67083   2.67833   2.68049   2.68300
 Alpha virt. eigenvalues --    2.69105   2.69238   2.69335   2.69870   2.70266
 Alpha virt. eigenvalues --    2.70445   2.70685   2.70886   2.71331   2.71685
 Alpha virt. eigenvalues --    2.71917   2.72153   2.72408   2.72893   2.72957
 Alpha virt. eigenvalues --    2.73466   2.74104   2.74450   2.74666   2.74843
 Alpha virt. eigenvalues --    2.75259   2.75351   2.76499   2.76766   2.76776
 Alpha virt. eigenvalues --    2.77149   2.77254   2.77692   2.78276   2.78494
 Alpha virt. eigenvalues --    2.79089   2.79588   2.80269   2.80697   2.81148
 Alpha virt. eigenvalues --    2.81564   2.81816   2.82239   2.82766   2.83127
 Alpha virt. eigenvalues --    2.84755   2.85080   2.85509   2.86114   2.86573
 Alpha virt. eigenvalues --    2.87141   2.87817   2.88249   2.88707   2.89064
 Alpha virt. eigenvalues --    2.89923   2.90188   2.90503   2.90875   2.91135
 Alpha virt. eigenvalues --    2.91568   2.91902   2.92454   2.92689   2.92922
 Alpha virt. eigenvalues --    2.93475   2.93858   2.94111   2.94739   2.95775
 Alpha virt. eigenvalues --    2.97066   2.98369   2.98846   2.99544   3.00733
 Alpha virt. eigenvalues --    3.01480   3.02320   3.03273   3.05317   3.07337
 Alpha virt. eigenvalues --    3.07924   3.09574   3.10469   3.11189   3.12975
 Alpha virt. eigenvalues --    3.13755   3.14355   3.15258   3.17404   3.18968
 Alpha virt. eigenvalues --    3.19787   3.20920   3.22288   3.23278   3.25276
 Alpha virt. eigenvalues --    3.25994   3.28439   3.29088   3.29928   3.32766
 Alpha virt. eigenvalues --    3.34171   3.35832   3.38015   3.40665   3.42855
 Alpha virt. eigenvalues --    3.43803   3.47110   3.48832   3.49040   3.51142
 Alpha virt. eigenvalues --    3.53161   3.56115   3.73691   4.00807   4.01486
 Alpha virt. eigenvalues --    4.01695   4.02298   4.02948   4.03347   4.03904
 Alpha virt. eigenvalues --    4.04720   4.06159   4.06723   4.07019   4.07743
 Alpha virt. eigenvalues --    4.08410   4.09047   4.09599   4.10349   4.10813
 Alpha virt. eigenvalues --    4.11647   4.12091   4.12666   4.13315   4.13937
 Alpha virt. eigenvalues --    4.16015   4.16843   4.16880   4.17692   4.18228
 Alpha virt. eigenvalues --    4.19246   4.19529   4.20500   4.20607   4.22293
 Alpha virt. eigenvalues --    4.22526   4.23419   4.24961   4.25637   4.26068
 Alpha virt. eigenvalues --    4.26199   4.26964   4.27130   4.27557   4.27707
 Alpha virt. eigenvalues --    4.28220   4.28856   4.29146   4.29524   4.30996
 Alpha virt. eigenvalues --    4.31735   4.32228   4.33919   4.35473   4.36520
 Alpha virt. eigenvalues --    4.37304   4.39117   4.39478   4.40099   4.41002
 Alpha virt. eigenvalues --    4.42019   4.42492   4.43482   4.44001   4.44980
 Alpha virt. eigenvalues --    4.46719   4.47681   4.48212   4.50886   4.51862
 Alpha virt. eigenvalues --    4.53142   4.54681   4.57246   4.57453   4.58989
 Alpha virt. eigenvalues --    4.59154   4.61300   4.61613   4.63919   4.65014
 Alpha virt. eigenvalues --    4.67062   4.67399   4.73927   4.78143   4.79502
 Alpha virt. eigenvalues --    4.80089   4.80945   4.84899   4.85983   4.89108
 Alpha virt. eigenvalues --    4.92222   4.93108   4.98509   5.02980   5.05282
 Alpha virt. eigenvalues --    5.06678   5.13344   5.17200   5.29727
          Condensed to atoms (all electrons):
 Mulliken charges:
               1
     1  C    0.007660
     2  C   -0.388148
     3  C    0.008751
     4  C   -0.372735
     5  C    0.007009
     6  C    0.088594
     7  C    0.002245
     8  C    0.090931
     9  C    0.047951
    10  C    0.090216
    11  C    0.091654
    12  C    0.046025
    13  C    0.002156
    14  C    0.013518
    15  C    0.009417
    16  C    0.004456
    17  C    0.039753
    18  C    0.040903
    19  C    0.049709
    20  C    0.047675
    21  C    0.006796
    22  C    0.008562
    23  C    0.088385
    24  C    0.087549
    25  C    0.087355
    26  C    0.087302
    27  C   -0.378041
    28  C   -0.377648
    29  C    0.085520
    30  C    0.086830
    31  C    0.093959
    32  C    0.091026
    33  C   -0.020176
    34  C    0.004379
    35  C    0.059708
    36  C    0.035594
    37  C    0.098603
    38  C    0.040838
    39  C    0.149507
    40  C    0.081344
    41  C    0.040188
    42  C    0.061898
    43  C    0.077720
    44  C    0.151816
    45  C    0.125997
    46  C    0.043586
    47  C    0.117467
    48  C    0.124930
    49  C   -0.379390
    50  C   -0.381708
    51  C    0.089885
    52  C    0.088633
    53  C    0.006261
    54  C    0.006698
    55  C    0.008362
    56  C    0.009051
    57  C    0.007659
    58  C    0.007185
    59  C    0.088134
    60  C    0.088894
    61  C   -0.376565
    62  C   -0.377303
    63  C    0.123891
    64  C    0.123398
    65  C    0.128457
    66  C    0.129263
    67  C    0.123158
    68  C    0.123428
    69  C   -0.372251
    70  C   -0.374144
    71  C    0.090555
    72  C    0.092838
    73  C    0.042923
    74  C    0.013689
    75  C    0.062384
    76  C    0.016521
    77  C   -0.348441
    78  C    0.002595
    79  C   -0.384221
    80  C   -0.015318
    81  C    0.089530
    82  C    0.092303
    83  C    0.044143
    84  C    0.045584
    85  Cl   0.025765
    86  Cl   0.020098
    87  Cl   0.021956
    88  Cl   0.025460
    89  Cl   0.024898
    90  Cl   0.025847
    91  Cl   0.012136
    92  Cl   0.018953
    93  Cl   0.019809
    94  Cl   0.019996
    95  Cl   0.000013
    96  Cl  -0.039745
 Sum of Mulliken charges =  -0.00000
 Mulliken charges with hydrogens summed into heavy atoms:
               1
     1  C    0.007660
     2  C   -0.388148
     3  C    0.008751
     4  C   -0.372735
     5  C    0.007009
     6  C    0.088594
     7  C    0.002245
     8  C    0.090931
     9  C    0.047951
    10  C    0.090216
    11  C    0.091654
    12  C    0.046025
    13  C    0.002156
    14  C    0.013518
    15  C    0.009417
    16  C    0.004456
    17  C    0.039753
    18  C    0.040903
    19  C    0.049709
    20  C    0.047675
    21  C    0.006796
    22  C    0.008562
    23  C    0.088385
    24  C    0.087549
    25  C    0.087355
    26  C    0.087302
    27  C   -0.378041
    28  C   -0.377648
    29  C    0.085520
    30  C    0.086830
    31  C    0.093959
    32  C    0.091026
    33  C   -0.020176
    34  C    0.004379
    35  C    0.059708
    36  C    0.035594
    37  C    0.098603
    38  C    0.040838
    39  C    0.149507
    40  C    0.081344
    41  C    0.040188
    42  C    0.061898
    43  C    0.077720
    44  C    0.151816
    45  C    0.125997
    46  C    0.043586
    47  C    0.117467
    48  C    0.124930
    49  C   -0.379390
    50  C   -0.381708
    51  C    0.089885
    52  C    0.088633
    53  C    0.006261
    54  C    0.006698
    55  C    0.008362
    56  C    0.009051
    57  C    0.007659
    58  C    0.007185
    59  C    0.088134
    60  C    0.088894
    61  C   -0.376565
    62  C   -0.377303
    63  C    0.123891
    64  C    0.123398
    65  C    0.128457
    66  C    0.129263
    67  C    0.123158
    68  C    0.123428
    69  C   -0.372251
    70  C   -0.374144
    71  C    0.090555
    72  C    0.092838
    73  C    0.042923
    74  C    0.013689
    75  C    0.062384
    76  C    0.016521
    77  C   -0.348441
    78  C    0.002595
    79  C   -0.384221
    80  C   -0.015318
    81  C    0.089530
    82  C    0.092303
    83  C    0.044143
    84  C    0.045584
    85  Cl   0.025765
    86  Cl   0.020098
    87  Cl   0.021956
    88  Cl   0.025460
    89  Cl   0.024898
    90  Cl   0.025847
    91  Cl   0.012136
    92  Cl   0.018953
    93  Cl   0.019809
    94  Cl   0.019996
    95  Cl   0.000013
    96  Cl  -0.039745
 Electronic spatial extent (au):  <R**2>=          61749.4086
 Charge=             -0.0000 electrons
 Dipole moment (field-independent basis, Debye):
    X=             -0.2992    Y=             -2.8029    Z=              0.3747  Tot=              2.8436
 Quadrupole moment (field-independent basis, Debye-Ang):
   XX=           -671.0106   YY=           -627.8182   ZZ=           -607.7933
   XY=             -4.7345   XZ=             -3.6378   YZ=              1.1835
 Traceless Quadrupole moment (field-independent basis, Debye-Ang):
   XX=            -35.4699   YY=              7.7225   ZZ=             27.7474
   XY=             -4.7345   XZ=             -3.6378   YZ=              1.1835
 Octapole moment (field-independent basis, Debye-Ang**2):
  XXX=            -34.0327  YYY=           -119.5025  ZZZ=            -15.6693  XYY=            -37.4787
  XXY=             21.3657  XXZ=              2.3588  XZZ=             -6.3841  YZZ=             14.6530
  YYZ=            -10.4681  XYZ=              7.7057
 Hexadecapole moment (field-independent basis, Debye-Ang**3):
 XXXX=         -37085.2334 YYYY=         -27876.8030 ZZZZ=         -22680.1480 XXXY=            171.6687
 XXXZ=            103.9457 YYYX=           -152.7252 YYYZ=           -106.6349 ZZZX=            -83.0245
 ZZZY=             -3.8884 XXYY=         -10973.0340 XXZZ=         -10184.6878 YYZZ=          -8285.2772
 XXYZ=             29.6010 YYXZ=            -32.2401 ZZXY=             39.7083
 N-N= 2.412708386082D+04 E-N=-6.877360612923D+04  KE= 8.676607241415D+03
 No NMR shielding tensors so no spin-rotation constants.
 Leave Link  601 at Mon Jun 27 16:18:52 2022, MaxMem=  1342177280 cpu:              26.2 elap:               1.3
 (Enter /home/mkliu/g16/l9999.exe)
 1\1\GINC-NODE03\FOpt\RB3LYP\6-31G(d,p)\C84Cl12\MKLIU\27-Jun-2022\0\\#P
  opt b3lyp/6-31G(d, p) empiricaldispersion=GD3\\force\\0,1\C,8.2770928
 549,18.8970874519,10.551862509\C,12.4914110313,19.9930307556,8.9200930
 853\C,8.2718374746,26.8598375946,10.5515790423\C,12.4790623007,25.7626
 669643,8.9290494831\C,7.9535784376,18.9619237084,9.1352673748\C,11.887
 6912997,19.5392364814,10.2333233238\C,7.9512791248,26.8117623245,9.132
 6419667\C,11.8888682091,26.2325599107,10.2425215167\C,8.9654156065,19.
 1436430263,8.1476029537\C,12.1595250027,20.18121799,11.4238063757\C,12
 .1558075128,25.5844535064,11.4265122952\C,8.9516739656,26.6473879664,8
 .1446355332\C,10.3018516787,19.0879078955,8.6072386659\C,10.3048564351
 ,26.6894916194,8.6078504174\C,10.6361782863,18.9423827234,10.017325289
 2\C,10.6315277275,26.8246684494,10.0209541863\C,9.6197049939,18.955987
 4452,11.0121063807\C,9.6144479376,26.8042691979,11.0142976881\C,9.8899
 398922,19.6367603606,12.2536443948\C,9.8852634895,26.1221102352,12.255
 7676089\C,8.7944299056,20.236499187,12.9395438969\C,8.7894412747,25.51
 84328719,12.941053379\C,7.4796042465,20.1645469174,12.4401070831\C,7.4
 779709851,25.5872263042,12.4392616926\C,7.226158738,19.4974712416,11.2
 65457661\C,7.2226023589,26.2569538587,11.2647489735\C,6.1150751022,19.
 932016783,10.3289334429\C,6.1091708173,25.8229071713,10.3347580051\C,6
 .6836858894,19.5262464916,8.9866566412\C,6.6729590258,26.2316879427,8.
 9908320933\C,6.3799011358,20.2060103796,7.8281427897\C,6.3605029527,25
 .559502993,7.8457824926\C,7.3142787536,20.3112818807,6.7869056932\C,7.
 3101476991,25.4482601776,6.8001364466\C,8.6724674806,19.8935038492,6.9
 542840931\C,8.650739696,25.9035207044,6.9466044314\C,9.7346450414,20.6
 146585413,6.2906606188\C,9.7158390218,25.164590452,6.2727807689\C,11.0
 352813642,20.5842688794,6.8387054486\C,12.7133566065,22.1729328894,7.7
 962298978\C,12.6669013317,23.5729412073,7.8082518515\C,11.0518825527,2
 5.1877457195,6.8323105699\C,11.3196547102,19.7798706958,7.9494875265\C
 ,12.8667689657,21.4619659581,8.9744509748\C,12.838496585,24.2919286781
 ,8.9905003188\C,11.3239537026,26.0084435795,7.956323781\C,13.062230090
 6,22.1680005366,10.1938813779\C,13.0563720613,23.5874765997,10.1948728
 915\C,13.0773539419,21.3902178375,11.5095520311\C,13.0734495675,24.370
 7442587,11.511115574\C,12.4140049701,22.1921703728,12.6160248573\C,12.
 4113608039,23.5685905336,12.6146368669\C,11.1674421867,20.2440256921,1
 2.4252700385\C,11.1612438861,25.5177516305,12.4294338843\C,11.32419149
 18,21.482795088,13.1602115555\C,11.3181817723,24.2762266526,13.1573299
 639\C,8.9487847698,21.4835087817,13.6613825913\C,8.9453125332,24.27072
 1455,13.6607895549\C,7.7311633458,22.1907621054,13.5895717441\C,7.7286
 080114,23.5621829889,13.5917108252\C,6.6869778046,21.3973827593,12.827
 8614624\C,6.6847780831,24.3544180345,12.8287608078\C,6.235614606,22.16
 81905302,11.5668811405\C,6.2331108816,23.5836445504,11.5683855235\C,5.
 9435391875,21.4648237776,10.3749778104\C,5.9368660284,24.2881788615,10
 .3792491578\C,5.6305831829,22.1704720525,9.1871277131\C,5.6247903069,2
 3.5834016269,9.1912292653\C,5.4399835021,21.3977609003,7.857386998\C,5
 .4259692313,24.3619081634,7.8682839986\C,5.9490855177,22.2021606041,6.
 6818883679\C,5.9381553431,23.5648155344,6.6872669758\C,7.002654015,21.
 5000696462,6.0151516778\C,6.9925861429,24.270021046,6.0371128586\C,7.9
 857543852,22.1620246986,5.3194853835\C,8.0017277773,23.5835461606,5.37
 53514077\C,9.3955113793,21.6232742253,5.1979169734\C,9.3654892625,24.0
 36431703,5.4805473823\C,12.0752633649,21.6431268934,6.5100311563\C,11.
 8665618048,24.0381327297,6.677597107\C,10.2088289681,22.8951372636,5.3
 585210793\C,11.4386476877,22.9045242119,5.9669206264\C,10.200280664,22
 .1572120452,13.7216078068\C,10.1981579071,23.5990051222,13.7218138685\
 Cl,4.5271310015,19.1007950162,10.7240786738\Cl,3.6707408065,20.9370036
 96,7.6646068817\Cl,3.65644833,24.817139517,7.6773069568\Cl,4.521622911
 6,26.6546110053,10.7310684317\Cl,5.2265988627,20.9993241679,13.8687463
 51\Cl,5.2255134451,24.7574170459,13.8687129063\Cl,14.8055556673,20.913
 318584,11.9443200823\Cl,14.800713247,24.8458910582,11.9315819253\Cl,13
 .9536530053,18.9666850407,8.4731551381\Cl,13.3391307733,20.9687700747,
 5.3528886942\Cl,13.9705971625,26.7580442896,8.4609630871\Cl,9.66365792
 27,20.8261594889,3.517383521\\Version=ES64L-G16RevA.03\State=1-A\HF=-8
 723.4293225\RMSD=7.127e-09\RMSF=4.207e-05\Dipole=0.0518995,0.5649824,0
 .9642368\Quadrupole=-24.6692275,17.7658412,6.9033863,1.1996864,8.31915
 2,-6.3945746\PG=C01 [X(C84Cl12)]\\@


 THERE'S A SUCKER BORN EVERY MINUTE

              -- PHINEAS TAYLOR (P.T.) BARNUM
 Job cpu time:       1 days 14 hours  4 minutes 47.3 seconds.
 Elapsed time:       0 days  1 hours 35 minutes 19.9 seconds.
 File lengths (MBytes):  RWF=   1359 Int=      0 D2E=      0 Chk=    170 Scr=      1
 Normal termination of Gaussian 16 at Mon Jun 27 16:18:55 2022.
