 Entering Gaussian System, Link 0=g16
 Input=12_addons_C84_14_Cl22_rank_5.gjf
 Output=12_addons_C84_14_Cl22_rank_5.log
 Initial command:
 /home/mkliu/g16/l1.exe "/data/scratch/Gau-11077.inp" -scrdir="/data/scratch/"
 Entering Link 1 = /home/mkliu/g16/l1.exe PID=     11078.
  
 Copyright (c) 1988,1990,1992,1993,1995,1998,2003,2009,2016,
            Gaussian, Inc.  All Rights Reserved.
  
 This is part of the Gaussian(R) 16 program.  It is based on
 the Gaussian(R) 09 system (copyright 2009, Gaussian, Inc.),
 the Gaussian(R) 03 system (copyright 2003, Gaussian, Inc.),
 the Gaussian(R) 98 system (copyright 1998, Gaussian, Inc.),
 the Gaussian(R) 94 system (copyright 1995, Gaussian, Inc.),
 the Gaussian 92(TM) system (copyright 1992, Gaussian, Inc.),
 the Gaussian 90(TM) system (copyright 1990, Gaussian, Inc.),
 the Gaussian 88(TM) system (copyright 1988, Gaussian, Inc.),
 the Gaussian 86(TM) system (copyright 1986, Carnegie Mellon
 University), and the Gaussian 82(TM) system (copyright 1983,
 Carnegie Mellon University). Gaussian is a federally registered
 trademark of Gaussian, Inc.
  
 This software contains proprietary and confidential information,
 including trade secrets, belonging to Gaussian, Inc.
  
 This software is provided under written license and may be
 used, copied, transmitted, or stored only in accord with that
 written license.
  
 The following legend is applicable only to US Government
 contracts under FAR:
  
                    RESTRICTED RIGHTS LEGEND
  
 Use, reproduction and disclosure by the US Government is
 subject to restrictions as set forth in subparagraphs (a)
 and (c) of the Commercial Computer Software - Restricted
 Rights clause in FAR 52.227-19.
  
 Gaussian, Inc.
 340 Quinnipiac St., Bldg. 40, Wallingford CT 06492
  
  
 ---------------------------------------------------------------
 Warning -- This program may not be used in any manner that
 competes with the business of Gaussian, Inc. or will provide
 assistance to any competitor of Gaussian, Inc.  The licensee
 of this program is prohibited from giving any competitor of
 Gaussian, Inc. access to this program.  By using this program,
 the user acknowledges that Gaussian, Inc. is engaged in the
 business of creating and licensing software in the field of
 computational chemistry and represents and warrants to the
 licensee that it is not a competitor of Gaussian, Inc. and that
 it will not use this program in any manner prohibited above.
 ---------------------------------------------------------------
  

 Cite this work as:
 Gaussian 16, Revision A.03,
 M. J. Frisch, G. W. Trucks, H. B. Schlegel, G. E. Scuseria, 
 M. A. Robb, J. R. Cheeseman, G. Scalmani, V. Barone, 
 G. A. Petersson, H. Nakatsuji, X. Li, M. Caricato, A. V. Marenich, 
 J. Bloino, B. G. Janesko, R. Gomperts, B. Mennucci, H. P. Hratchian, 
 J. V. Ortiz, A. F. Izmaylov, J. L. Sonnenberg, D. Williams-Young, 
 F. Ding, F. Lipparini, F. Egidi, J. Goings, B. Peng, A. Petrone, 
 T. Henderson, D. Ranasinghe, V. G. Zakrzewski, J. Gao, N. Rega, 
 G. Zheng, W. Liang, M. Hada, M. Ehara, K. Toyota, R. Fukuda, 
 J. Hasegawa, M. Ishida, T. Nakajima, Y. Honda, O. Kitao, H. Nakai, 
 T. Vreven, K. Throssell, J. A. Montgomery, Jr., J. E. Peralta, 
 F. Ogliaro, M. J. Bearpark, J. J. Heyd, E. N. Brothers, K. N. Kudin, 
 V. N. Staroverov, T. A. Keith, R. Kobayashi, J. Normand, 
 K. Raghavachari, A. P. Rendell, J. C. Burant, S. S. Iyengar, 
 J. Tomasi, M. Cossi, J. M. Millam, M. Klene, C. Adamo, R. Cammi, 
 J. W. Ochterski, R. L. Martin, K. Morokuma, O. Farkas, 
 J. B. Foresman, and D. J. Fox, Gaussian, Inc., Wallingford CT, 2016.
 
 ******************************************
 Gaussian 16:  ES64L-G16RevA.03 25-Dec-2016
                27-Jun-2022 
 ******************************************
 %mem=10GB
 %chk=12_addons_C84_14_Cl22_rank_5.chk
 %nprocshared=24
 Will use up to   24 processors via shared memory.
 ------------------------------------------------
 #P opt b3lyp/6-31G(d, p) empiricaldispersion=GD3
 ------------------------------------------------
 1/18=20,19=15,26=3,38=1/1,3;
 2/9=110,12=2,17=6,18=5,40=1/2;
 3/5=1,6=6,7=101,11=2,25=1,30=1,71=1,74=-5,124=31/1,2,3;
 4//1;
 5/5=2,38=5/2;
 6/7=2,8=2,9=2,10=2,28=1/1;
 7//1,2,3,16;
 1/18=20,19=15,26=3/3(2);
 2/9=110/2;
 99//99;
 2/9=110/2;
 3/5=1,6=6,7=101,11=2,25=1,30=1,71=1,74=-5,124=31/1,2,3;
 4/5=5,16=3,69=1/1;
 5/5=2,38=5/2;
 7//1,2,3,16;
 1/18=20,19=15,26=3/3(-5);
 2/9=110/2;
 6/7=2,8=2,9=2,10=2,19=2,28=1/1;
 99/9=1/99;
 Leave Link    1 at Mon Jun 27 19:44:59 2022, MaxMem=  1342177280 cpu:               0.7 elap:               0.0
 (Enter /home/mkliu/g16/l101.exe)
 -----
 force
 -----
 Symbolic Z-matrix:
 Charge =  0 Multiplicity = 1
 C                     8.27444   18.92372   10.54348 
 C                     12.48943   20.00038   8.91401 
 C                     8.26975   26.84297   10.54896 
 C                     12.29335   25.59949   8.96291 
 C                     7.95675   18.96894   9.16188 
 C                     11.88723   19.57046   10.21857 
 C                     7.95691   26.7882   9.16123 
 C                     11.86627   26.16821   10.20953 
 C                     8.95752   19.14013   8.1767 
 C                     12.15085   20.20852   11.38637 
 C                     12.13677   25.53711   11.39115 
 C                     8.96062   26.61378   8.17834 
 C                     10.28884   19.08793   8.6328 
 C                     10.28112   26.68396   8.6448 
 C                     10.61176   18.97341   10.00601 
 C                     10.60058   26.82288   10.0156 
 C                     9.60729   18.98455   11.00138 
 C                     9.60394   26.80073   11.01299 
 C                     9.87885   19.6652   12.22953 
 C                     9.87581   26.10517   12.23861 
 C                     8.79759   20.26721   12.91281 
 C                     8.79744   25.49471   12.91312 
 C                     7.46554   20.19741   12.41536 
 C                     7.46369   25.55989   12.41581 
 C                     7.20684   19.53018   11.26574 
 C                     7.20622   26.22586   11.26391 
 C                     6.09973   19.95421   10.34489 
 C                     6.10602   25.79439   10.33709 
 C                     6.6692    19.55174   9.0178 
 C                     6.68212   26.1937   9.01238 
 C                     6.36819   20.21904   7.8819 
 C                     6.39068   25.52427   7.86865 
 C                     7.33392   20.32921   6.8402 
 C                     7.35037   25.42728   6.82919 
 C                     8.66524   19.88485   6.99362 
 C                     8.67654   25.85654   6.99493 
 C                     9.72264   20.61294   6.33554 
 C                     9.74871   25.13558   6.34051 
 C                     11.05762   20.56839   6.87139 
 C                     12.68003   22.17479   7.78979 
 C                     12.6898   23.55811   7.77857 
 C                     11.02412   25.14378   6.86167 
 C                     11.32716   19.79354   7.96238 
 C                     12.84662   21.46235   8.96826 
 C                     12.85669   24.28011   8.9614 
 C                     11.31847   25.92506   8.00574 
 C                     13.06421   22.16696   10.16623 
 C                     13.07542   23.56705   10.16631 
 C                     13.07321   21.39492   11.47757 
 C                     13.05831   24.34706   11.47013 
 C                     12.40359   22.1957   12.5599 
 C                     12.40144   23.55126   12.55893 
 C                     11.14471   20.27217   12.39642 
 C                     11.14397   25.48887   12.40406 
 C                     11.29814   21.48598   13.11118 
 C                     11.29489   24.26359   13.10604 
 C                     8.94968   21.48951   13.61576 
 C                     8.94952   24.2654   13.60805 
 C                     7.71925   22.20104   13.54728 
 C                     7.71773   23.55634   13.54703 
 C                     6.67569   21.41298   12.80905 
 C                     6.67531   24.34274   12.80675 
 C                     6.24349   22.17536   11.55702 
 C                     6.2446    23.57784   11.55554 
 C                     5.95443   21.47594   10.37762 
 C                     5.95959   24.27513   10.37387 
 C                     5.65244   22.17433   9.1976 
 C                     5.65818   23.57602   9.19418 
 C                     5.43814   21.40176   7.8944 
 C                     5.45867   24.34538   7.88585 
 C                     5.96119   22.19191   6.72898 
 C                     5.97948   23.55059   6.72569 
 C                     7.0197    21.48954   6.09295 
 C                     7.03828   24.24676   6.06749 
 C                     8.04316   22.17261   5.43393 
 C                     8.02273   23.5859   5.38047 
 C                     9.37926   21.70945   5.53129 
 C                     9.41647   24.12556   5.26321 
 C                     12.07196   21.62591   6.5252 
 C                     12.07442   24.11343   6.5187 
 C                     10.2383   22.86911   5.43388 
 C                     11.47061   22.87127   5.94522 
 C                     10.19109   22.16052   13.67579 
 C                     10.18965   23.5912   13.67427 
 Cl                    4.5132    19.20631   10.73013 
 Cl                    3.69849   20.97456   7.76145 
 Cl                    3.71707   24.77205   7.73971 
 Cl                    4.51536   26.5422   10.70844 
 Cl                    5.21675   21.04815   13.79382 
 Cl                    5.21109   24.70465   13.78652 
 Cl                    14.7699   20.94351   11.88067 
 Cl                    14.74844   24.83974   11.88334 
 Cl                    13.92894   19.01739   8.44712 
 Cl                    13.33958   20.92521   5.43212 
 Cl                    9.71093   24.89625   3.64725 
 Cl                    13.32508   24.86261   5.44111 
 
 ITRead=  0  0  0  0  0  0  0  0  0  0  0  0  0  0  0  0  0  0  0  0
 ITRead=  0  0  0  0  0  0  0  0  0  0  0  0  0  0  0  0  0  0  0  0
 ITRead=  0  0  0  0  0  0  0  0  0  0  0  0  0  0  0  0  0  0  0  0
 ITRead=  0  0  0  0  0  0  0  0  0  0  0  0  0  0  0  0  0  0  0  0
 ITRead=  0  0  0  0  0  0  0  0  0  0  0  0  0  0  0  0
 MicOpt= -1 -1 -1 -1 -1 -1 -1 -1 -1 -1 -1 -1 -1 -1 -1 -1 -1 -1 -1 -1
 MicOpt= -1 -1 -1 -1 -1 -1 -1 -1 -1 -1 -1 -1 -1 -1 -1 -1 -1 -1 -1 -1
 MicOpt= -1 -1 -1 -1 -1 -1 -1 -1 -1 -1 -1 -1 -1 -1 -1 -1 -1 -1 -1 -1
 MicOpt= -1 -1 -1 -1 -1 -1 -1 -1 -1 -1 -1 -1 -1 -1 -1 -1 -1 -1 -1 -1
 MicOpt= -1 -1 -1 -1 -1 -1 -1 -1 -1 -1 -1 -1 -1 -1 -1 -1
 NAtoms=     96 NQM=       96 NQMF=       0 NMMI=      0 NMMIF=      0
                NMic=       0 NMicF=      0.
                    Isotopes and Nuclear Properties:
 (Nuclear quadrupole moments (NQMom) in fm**2, nuclear magnetic moments (NMagM)
  in nuclear magnetons)

  Atom         1           2           3           4           5           6           7           8           9          10
 IAtWgt=          12          12          12          12          12          12          12          12          12          12
 AtmWgt=  12.0000000  12.0000000  12.0000000  12.0000000  12.0000000  12.0000000  12.0000000  12.0000000  12.0000000  12.0000000
 NucSpn=           0           0           0           0           0           0           0           0           0           0
 AtZEff=  -0.0000000  -0.0000000  -0.0000000  -0.0000000  -0.0000000  -0.0000000  -0.0000000  -0.0000000  -0.0000000  -0.0000000
 NQMom=    0.0000000   0.0000000   0.0000000   0.0000000   0.0000000   0.0000000   0.0000000   0.0000000   0.0000000   0.0000000
 NMagM=    0.0000000   0.0000000   0.0000000   0.0000000   0.0000000   0.0000000   0.0000000   0.0000000   0.0000000   0.0000000
 AtZNuc=   6.0000000   6.0000000   6.0000000   6.0000000   6.0000000   6.0000000   6.0000000   6.0000000   6.0000000   6.0000000

  Atom        11          12          13          14          15          16          17          18          19          20
 IAtWgt=          12          12          12          12          12          12          12          12          12          12
 AtmWgt=  12.0000000  12.0000000  12.0000000  12.0000000  12.0000000  12.0000000  12.0000000  12.0000000  12.0000000  12.0000000
 NucSpn=           0           0           0           0           0           0           0           0           0           0
 AtZEff=  -0.0000000  -0.0000000  -0.0000000  -0.0000000  -0.0000000  -0.0000000  -0.0000000  -0.0000000  -0.0000000  -0.0000000
 NQMom=    0.0000000   0.0000000   0.0000000   0.0000000   0.0000000   0.0000000   0.0000000   0.0000000   0.0000000   0.0000000
 NMagM=    0.0000000   0.0000000   0.0000000   0.0000000   0.0000000   0.0000000   0.0000000   0.0000000   0.0000000   0.0000000
 AtZNuc=   6.0000000   6.0000000   6.0000000   6.0000000   6.0000000   6.0000000   6.0000000   6.0000000   6.0000000   6.0000000

  Atom        21          22          23          24          25          26          27          28          29          30
 IAtWgt=          12          12          12          12          12          12          12          12          12          12
 AtmWgt=  12.0000000  12.0000000  12.0000000  12.0000000  12.0000000  12.0000000  12.0000000  12.0000000  12.0000000  12.0000000
 NucSpn=           0           0           0           0           0           0           0           0           0           0
 AtZEff=  -0.0000000  -0.0000000  -0.0000000  -0.0000000  -0.0000000  -0.0000000  -0.0000000  -0.0000000  -0.0000000  -0.0000000
 NQMom=    0.0000000   0.0000000   0.0000000   0.0000000   0.0000000   0.0000000   0.0000000   0.0000000   0.0000000   0.0000000
 NMagM=    0.0000000   0.0000000   0.0000000   0.0000000   0.0000000   0.0000000   0.0000000   0.0000000   0.0000000   0.0000000
 AtZNuc=   6.0000000   6.0000000   6.0000000   6.0000000   6.0000000   6.0000000   6.0000000   6.0000000   6.0000000   6.0000000

  Atom        31          32          33          34          35          36          37          38          39          40
 IAtWgt=          12          12          12          12          12          12          12          12          12          12
 AtmWgt=  12.0000000  12.0000000  12.0000000  12.0000000  12.0000000  12.0000000  12.0000000  12.0000000  12.0000000  12.0000000
 NucSpn=           0           0           0           0           0           0           0           0           0           0
 AtZEff=  -0.0000000  -0.0000000  -0.0000000  -0.0000000  -0.0000000  -0.0000000  -0.0000000  -0.0000000  -0.0000000  -0.0000000
 NQMom=    0.0000000   0.0000000   0.0000000   0.0000000   0.0000000   0.0000000   0.0000000   0.0000000   0.0000000   0.0000000
 NMagM=    0.0000000   0.0000000   0.0000000   0.0000000   0.0000000   0.0000000   0.0000000   0.0000000   0.0000000   0.0000000
 AtZNuc=   6.0000000   6.0000000   6.0000000   6.0000000   6.0000000   6.0000000   6.0000000   6.0000000   6.0000000   6.0000000

  Atom        41          42          43          44          45          46          47          48          49          50
 IAtWgt=          12          12          12          12          12          12          12          12          12          12
 AtmWgt=  12.0000000  12.0000000  12.0000000  12.0000000  12.0000000  12.0000000  12.0000000  12.0000000  12.0000000  12.0000000
 NucSpn=           0           0           0           0           0           0           0           0           0           0
 AtZEff=  -0.0000000  -0.0000000  -0.0000000  -0.0000000  -0.0000000  -0.0000000  -0.0000000  -0.0000000  -0.0000000  -0.0000000
 NQMom=    0.0000000   0.0000000   0.0000000   0.0000000   0.0000000   0.0000000   0.0000000   0.0000000   0.0000000   0.0000000
 NMagM=    0.0000000   0.0000000   0.0000000   0.0000000   0.0000000   0.0000000   0.0000000   0.0000000   0.0000000   0.0000000
 AtZNuc=   6.0000000   6.0000000   6.0000000   6.0000000   6.0000000   6.0000000   6.0000000   6.0000000   6.0000000   6.0000000

  Atom        51          52          53          54          55          56          57          58          59          60
 IAtWgt=          12          12          12          12          12          12          12          12          12          12
 AtmWgt=  12.0000000  12.0000000  12.0000000  12.0000000  12.0000000  12.0000000  12.0000000  12.0000000  12.0000000  12.0000000
 NucSpn=           0           0           0           0           0           0           0           0           0           0
 AtZEff=  -0.0000000  -0.0000000  -0.0000000  -0.0000000  -0.0000000  -0.0000000  -0.0000000  -0.0000000  -0.0000000  -0.0000000
 NQMom=    0.0000000   0.0000000   0.0000000   0.0000000   0.0000000   0.0000000   0.0000000   0.0000000   0.0000000   0.0000000
 NMagM=    0.0000000   0.0000000   0.0000000   0.0000000   0.0000000   0.0000000   0.0000000   0.0000000   0.0000000   0.0000000
 AtZNuc=   6.0000000   6.0000000   6.0000000   6.0000000   6.0000000   6.0000000   6.0000000   6.0000000   6.0000000   6.0000000

  Atom        61          62          63          64          65          66          67          68          69          70
 IAtWgt=          12          12          12          12          12          12          12          12          12          12
 AtmWgt=  12.0000000  12.0000000  12.0000000  12.0000000  12.0000000  12.0000000  12.0000000  12.0000000  12.0000000  12.0000000
 NucSpn=           0           0           0           0           0           0           0           0           0           0
 AtZEff=  -0.0000000  -0.0000000  -0.0000000  -0.0000000  -0.0000000  -0.0000000  -0.0000000  -0.0000000  -0.0000000  -0.0000000
 NQMom=    0.0000000   0.0000000   0.0000000   0.0000000   0.0000000   0.0000000   0.0000000   0.0000000   0.0000000   0.0000000
 NMagM=    0.0000000   0.0000000   0.0000000   0.0000000   0.0000000   0.0000000   0.0000000   0.0000000   0.0000000   0.0000000
 AtZNuc=   6.0000000   6.0000000   6.0000000   6.0000000   6.0000000   6.0000000   6.0000000   6.0000000   6.0000000   6.0000000

  Atom        71          72          73          74          75          76          77          78          79          80
 IAtWgt=          12          12          12          12          12          12          12          12          12          12
 AtmWgt=  12.0000000  12.0000000  12.0000000  12.0000000  12.0000000  12.0000000  12.0000000  12.0000000  12.0000000  12.0000000
 NucSpn=           0           0           0           0           0           0           0           0           0           0
 AtZEff=  -0.0000000  -0.0000000  -0.0000000  -0.0000000  -0.0000000  -0.0000000  -0.0000000  -0.0000000  -0.0000000  -0.0000000
 NQMom=    0.0000000   0.0000000   0.0000000   0.0000000   0.0000000   0.0000000   0.0000000   0.0000000   0.0000000   0.0000000
 NMagM=    0.0000000   0.0000000   0.0000000   0.0000000   0.0000000   0.0000000   0.0000000   0.0000000   0.0000000   0.0000000
 AtZNuc=   6.0000000   6.0000000   6.0000000   6.0000000   6.0000000   6.0000000   6.0000000   6.0000000   6.0000000   6.0000000

  Atom        81          82          83          84          85          86          87          88          89          90
 IAtWgt=          12          12          12          12          35          35          35          35          35          35
 AtmWgt=  12.0000000  12.0000000  12.0000000  12.0000000  34.9688527  34.9688527  34.9688527  34.9688527  34.9688527  34.9688527
 NucSpn=           0           0           0           0           3           3           3           3           3           3
 AtZEff=  -0.0000000  -0.0000000  -0.0000000  -0.0000000  -0.0000000  -0.0000000  -0.0000000  -0.0000000  -0.0000000  -0.0000000
 NQMom=    0.0000000   0.0000000   0.0000000   0.0000000  -8.1650000  -8.1650000  -8.1650000  -8.1650000  -8.1650000  -8.1650000
 NMagM=    0.0000000   0.0000000   0.0000000   0.0000000   0.8218740   0.8218740   0.8218740   0.8218740   0.8218740   0.8218740
 AtZNuc=   6.0000000   6.0000000   6.0000000   6.0000000  17.0000000  17.0000000  17.0000000  17.0000000  17.0000000  17.0000000

  Atom        91          92          93          94          95          96
 IAtWgt=          35          35          35          35          35          35
 AtmWgt=  34.9688527  34.9688527  34.9688527  34.9688527  34.9688527  34.9688527
 NucSpn=           3           3           3           3           3           3
 AtZEff=  -0.0000000  -0.0000000  -0.0000000  -0.0000000  -0.0000000  -0.0000000
 NQMom=   -8.1650000  -8.1650000  -8.1650000  -8.1650000  -8.1650000  -8.1650000
 NMagM=    0.8218740   0.8218740   0.8218740   0.8218740   0.8218740   0.8218740
 AtZNuc=  17.0000000  17.0000000  17.0000000  17.0000000  17.0000000  17.0000000
 Leave Link  101 at Mon Jun 27 19:44:59 2022, MaxMem=  1342177280 cpu:               6.6 elap:               0.3
 (Enter /home/mkliu/g16/l103.exe)

 GradGradGradGradGradGradGradGradGradGradGradGradGradGradGradGradGradGrad
 Berny optimization.
 Initialization pass.
                           ----------------------------
                           !    Initial Parameters    !
                           ! (Angstroms and Degrees)  !
 --------------------------                            --------------------------
 ! Name  Definition              Value          Derivative Info.                !
 --------------------------------------------------------------------------------
 ! R1    R(1,5)                  1.4184         estimate D2E/DX2                !
 ! R2    R(1,17)                 1.4106         estimate D2E/DX2                !
 ! R3    R(1,25)                 1.4245         estimate D2E/DX2                !
 ! R4    R(2,6)                  1.4998         estimate D2E/DX2                !
 ! R5    R(2,43)                 1.5163         estimate D2E/DX2                !
 ! R6    R(2,44)                 1.5059         estimate D2E/DX2                !
 ! R7    R(2,93)                 1.8046         estimate D2E/DX2                !
 ! R8    R(3,7)                  1.4236         estimate D2E/DX2                !
 ! R9    R(3,18)                 1.4132         estimate D2E/DX2                !
 ! R10   R(3,26)                 1.4223         estimate D2E/DX2                !
 ! R11   R(4,8)                  1.4352         estimate D2E/DX2                !
 ! R12   R(4,45)                 1.4346         estimate D2E/DX2                !
 ! R13   R(4,46)                 1.4045         estimate D2E/DX2                !
 ! R14   R(5,9)                  1.4147         estimate D2E/DX2                !
 ! R15   R(5,29)                 1.4206         estimate D2E/DX2                !
 ! R16   R(6,10)                 1.3566         estimate D2E/DX2                !
 ! R17   R(6,15)                 1.4242         estimate D2E/DX2                !
 ! R18   R(7,12)                 1.4156         estimate D2E/DX2                !
 ! R19   R(7,30)                 1.4144         estimate D2E/DX2                !
 ! R20   R(8,11)                 1.3666         estimate D2E/DX2                !
 ! R21   R(8,16)                 1.4381         estimate D2E/DX2                !
 ! R22   R(9,13)                 1.4083         estimate D2E/DX2                !
 ! R23   R(9,35)                 1.4282         estimate D2E/DX2                !
 ! R24   R(10,49)                1.5055         estimate D2E/DX2                !
 ! R25   R(10,53)                1.4271         estimate D2E/DX2                !
 ! R26   R(11,50)                1.5072         estimate D2E/DX2                !
 ! R27   R(11,54)                1.4191         estimate D2E/DX2                !
 ! R28   R(12,14)                1.4022         estimate D2E/DX2                !
 ! R29   R(12,36)                1.4334         estimate D2E/DX2                !
 ! R30   R(13,15)                1.4153         estimate D2E/DX2                !
 ! R31   R(13,43)                1.4232         estimate D2E/DX2                !
 ! R32   R(14,16)                1.4144         estimate D2E/DX2                !
 ! R33   R(14,46)                1.4354         estimate D2E/DX2                !
 ! R34   R(15,17)                1.4142         estimate D2E/DX2                !
 ! R35   R(16,18)                1.4102         estimate D2E/DX2                !
 ! R36   R(17,19)                1.4302         estimate D2E/DX2                !
 ! R37   R(18,20)                1.4352         estimate D2E/DX2                !
 ! R38   R(19,21)                1.4136         estimate D2E/DX2                !
 ! R39   R(19,53)                1.4137         estimate D2E/DX2                !
 ! R40   R(20,22)                1.4108         estimate D2E/DX2                !
 ! R41   R(20,54)                1.4197         estimate D2E/DX2                !
 ! R42   R(21,23)                1.4236         estimate D2E/DX2                !
 ! R43   R(21,57)                1.4182         estimate D2E/DX2                !
 ! R44   R(22,24)                1.4249         estimate D2E/DX2                !
 ! R45   R(22,58)                1.4203         estimate D2E/DX2                !
 ! R46   R(23,25)                1.3542         estimate D2E/DX2                !
 ! R47   R(23,61)                1.5022         estimate D2E/DX2                !
 ! R48   R(24,26)                1.3552         estimate D2E/DX2                !
 ! R49   R(24,62)                1.5019         estimate D2E/DX2                !
 ! R50   R(25,27)                1.5012         estimate D2E/DX2                !
 ! R51   R(26,28)                1.5019         estimate D2E/DX2                !
 ! R52   R(27,29)                1.4991         estimate D2E/DX2                !
 ! R53   R(27,65)                1.529          estimate D2E/DX2                !
 ! R54   R(27,85)                1.7958         estimate D2E/DX2                !
 ! R55   R(28,30)                1.4987         estimate D2E/DX2                !
 ! R56   R(28,66)                1.5267         estimate D2E/DX2                !
 ! R57   R(28,88)                1.7965         estimate D2E/DX2                !
 ! R58   R(29,31)                1.3514         estimate D2E/DX2                !
 ! R59   R(30,32)                1.3569         estimate D2E/DX2                !
 ! R60   R(31,33)                1.4247         estimate D2E/DX2                !
 ! R61   R(31,69)                1.5046         estimate D2E/DX2                !
 ! R62   R(32,34)                1.4181         estimate D2E/DX2                !
 ! R63   R(32,70)                1.5029         estimate D2E/DX2                !
 ! R64   R(33,35)                1.4119         estimate D2E/DX2                !
 ! R65   R(33,73)                1.4155         estimate D2E/DX2                !
 ! R66   R(34,36)                1.4037         estimate D2E/DX2                !
 ! R67   R(34,74)                1.4392         estimate D2E/DX2                !
 ! R68   R(35,37)                1.4427         estimate D2E/DX2                !
 ! R69   R(36,38)                1.4483         estimate D2E/DX2                !
 ! R70   R(37,39)                1.4392         estimate D2E/DX2                !
 ! R71   R(37,77)                1.4025         estimate D2E/DX2                !
 ! R72   R(38,42)                1.3778         estimate D2E/DX2                !
 ! R73   R(38,78)                1.5136         estimate D2E/DX2                !
 ! R74   R(39,43)                1.365          estimate D2E/DX2                !
 ! R75   R(39,79)                1.5057         estimate D2E/DX2                !
 ! R76   R(40,41)                1.3834         estimate D2E/DX2                !
 ! R77   R(40,44)                1.3871         estimate D2E/DX2                !
 ! R78   R(40,79)                1.5067         estimate D2E/DX2                !
 ! R79   R(41,45)                1.3958         estimate D2E/DX2                !
 ! R80   R(41,80)                1.5081         estimate D2E/DX2                !
 ! R81   R(42,46)                1.4163         estimate D2E/DX2                !
 ! R82   R(42,80)                1.5108         estimate D2E/DX2                !
 ! R83   R(44,47)                1.4068         estimate D2E/DX2                !
 ! R84   R(45,48)                1.4171         estimate D2E/DX2                !
 ! R85   R(47,48)                1.4001         estimate D2E/DX2                !
 ! R86   R(47,49)                1.5218         estimate D2E/DX2                !
 ! R87   R(48,50)                1.5194         estimate D2E/DX2                !
 ! R88   R(49,51)                1.5037         estimate D2E/DX2                !
 ! R89   R(49,91)                1.8014         estimate D2E/DX2                !
 ! R90   R(50,52)                1.5001         estimate D2E/DX2                !
 ! R91   R(50,92)                1.8083         estimate D2E/DX2                !
 ! R92   R(51,52)                1.3556         estimate D2E/DX2                !
 ! R93   R(51,55)                1.4247         estimate D2E/DX2                !
 ! R94   R(52,56)                1.4252         estimate D2E/DX2                !
 ! R95   R(53,55)                1.417          estimate D2E/DX2                !
 ! R96   R(54,56)                1.4202         estimate D2E/DX2                !
 ! R97   R(55,83)                1.414          estimate D2E/DX2                !
 ! R98   R(56,84)                1.413          estimate D2E/DX2                !
 ! R99   R(57,59)                1.423          estimate D2E/DX2                !
 ! R100  R(57,83)                1.4124         estimate D2E/DX2                !
 ! R101  R(58,60)                1.4226         estimate D2E/DX2                !
 ! R102  R(58,84)                1.4131         estimate D2E/DX2                !
 ! R103  R(59,60)                1.3553         estimate D2E/DX2                !
 ! R104  R(59,61)                1.5017         estimate D2E/DX2                !
 ! R105  R(60,62)                1.501          estimate D2E/DX2                !
 ! R106  R(61,63)                1.5283         estimate D2E/DX2                !
 ! R107  R(61,89)                1.7976         estimate D2E/DX2                !
 ! R108  R(62,64)                1.5284         estimate D2E/DX2                !
 ! R109  R(62,90)                1.7986         estimate D2E/DX2                !
 ! R110  R(63,64)                1.4025         estimate D2E/DX2                !
 ! R111  R(63,65)                1.4013         estimate D2E/DX2                !
 ! R112  R(64,66)                1.4013         estimate D2E/DX2                !
 ! R113  R(65,67)                1.4041         estimate D2E/DX2                !
 ! R114  R(66,68)                1.404          estimate D2E/DX2                !
 ! R115  R(67,68)                1.4017         estimate D2E/DX2                !
 ! R116  R(67,69)                1.5301         estimate D2E/DX2                !
 ! R117  R(68,70)                1.5308         estimate D2E/DX2                !
 ! R118  R(69,71)                1.502          estimate D2E/DX2                !
 ! R119  R(69,86)                1.7963         estimate D2E/DX2                !
 ! R120  R(70,72)                1.4996         estimate D2E/DX2                !
 ! R121  R(70,87)                1.7991         estimate D2E/DX2                !
 ! R122  R(71,72)                1.3588         estimate D2E/DX2                !
 ! R123  R(71,73)                1.4207         estimate D2E/DX2                !
 ! R124  R(72,74)                1.4279         estimate D2E/DX2                !
 ! R125  R(73,75)                1.3958         estimate D2E/DX2                !
 ! R126  R(74,76)                1.3704         estimate D2E/DX2                !
 ! R127  R(75,76)                1.4144         estimate D2E/DX2                !
 ! R128  R(75,77)                1.4175         estimate D2E/DX2                !
 ! R129  R(76,78)                1.4992         estimate D2E/DX2                !
 ! R130  R(77,81)                1.4465         estimate D2E/DX2                !
 ! R131  R(78,81)                1.511          estimate D2E/DX2                !
 ! R132  R(78,95)                1.8144         estimate D2E/DX2                !
 ! R133  R(79,82)                1.4996         estimate D2E/DX2                !
 ! R134  R(79,94)                1.8146         estimate D2E/DX2                !
 ! R135  R(80,82)                1.4955         estimate D2E/DX2                !
 ! R136  R(80,96)                1.8129         estimate D2E/DX2                !
 ! R137  R(81,82)                1.3342         estimate D2E/DX2                !
 ! R138  R(83,84)                1.4307         estimate D2E/DX2                !
 ! A1    A(5,1,17)             121.7657         estimate D2E/DX2                !
 ! A2    A(5,1,25)             108.2064         estimate D2E/DX2                !
 ! A3    A(17,1,25)            121.6807         estimate D2E/DX2                !
 ! A4    A(6,2,43)             101.4798         estimate D2E/DX2                !
 ! A5    A(6,2,44)             110.0101         estimate D2E/DX2                !
 ! A6    A(6,2,93)             112.9042         estimate D2E/DX2                !
 ! A7    A(43,2,44)            109.6847         estimate D2E/DX2                !
 ! A8    A(43,2,93)            112.0099         estimate D2E/DX2                !
 ! A9    A(44,2,93)            110.422          estimate D2E/DX2                !
 ! A10   A(7,3,18)             121.7619         estimate D2E/DX2                !
 ! A11   A(7,3,26)             107.9973         estimate D2E/DX2                !
 ! A12   A(18,3,26)            121.864          estimate D2E/DX2                !
 ! A13   A(8,4,45)             118.8283         estimate D2E/DX2                !
 ! A14   A(8,4,46)             107.0706         estimate D2E/DX2                !
 ! A15   A(45,4,46)            119.0144         estimate D2E/DX2                !
 ! A16   A(1,5,9)              121.5835         estimate D2E/DX2                !
 ! A17   A(1,5,29)             108.3526         estimate D2E/DX2                !
 ! A18   A(9,5,29)             121.3902         estimate D2E/DX2                !
 ! A19   A(2,6,10)             122.4063         estimate D2E/DX2                !
 ! A20   A(2,6,15)             110.4833         estimate D2E/DX2                !
 ! A21   A(10,6,15)            119.9778         estimate D2E/DX2                !
 ! A22   A(3,7,12)             121.7191         estimate D2E/DX2                !
 ! A23   A(3,7,30)             108.47           estimate D2E/DX2                !
 ! A24   A(12,7,30)            120.9419         estimate D2E/DX2                !
 ! A25   A(4,8,11)             120.6049         estimate D2E/DX2                !
 ! A26   A(4,8,16)             108.9746         estimate D2E/DX2                !
 ! A27   A(11,8,16)            120.0673         estimate D2E/DX2                !
 ! A28   A(5,9,13)             116.0225         estimate D2E/DX2                !
 ! A29   A(5,9,35)             119.6825         estimate D2E/DX2                !
 ! A30   A(13,9,35)            118.7571         estimate D2E/DX2                !
 ! A31   A(6,10,49)            122.8089         estimate D2E/DX2                !
 ! A32   A(6,10,53)            119.5536         estimate D2E/DX2                !
 ! A33   A(49,10,53)           110.7274         estimate D2E/DX2                !
 ! A34   A(8,11,50)            122.0689         estimate D2E/DX2                !
 ! A35   A(8,11,54)            119.6271         estimate D2E/DX2                !
 ! A36   A(50,11,54)           111.3152         estimate D2E/DX2                !
 ! A37   A(7,12,14)            115.5034         estimate D2E/DX2                !
 ! A38   A(7,12,36)            119.8551         estimate D2E/DX2                !
 ! A39   A(14,12,36)           119.1915         estimate D2E/DX2                !
 ! A40   A(9,13,15)            122.2047         estimate D2E/DX2                !
 ! A41   A(9,13,43)            121.2497         estimate D2E/DX2                !
 ! A42   A(15,13,43)           109.3123         estimate D2E/DX2                !
 ! A43   A(12,14,16)           122.6859         estimate D2E/DX2                !
 ! A44   A(12,14,46)           120.3974         estimate D2E/DX2                !
 ! A45   A(16,14,46)           108.6747         estimate D2E/DX2                !
 ! A46   A(6,15,13)            108.3735         estimate D2E/DX2                !
 ! A47   A(6,15,17)            121.8536         estimate D2E/DX2                !
 ! A48   A(13,15,17)           121.3473         estimate D2E/DX2                !
 ! A49   A(8,16,14)            106.5452         estimate D2E/DX2                !
 ! A50   A(8,16,18)            121.2975         estimate D2E/DX2                !
 ! A51   A(14,16,18)           121.6225         estimate D2E/DX2                !
 ! A52   A(1,17,15)            116.2516         estimate D2E/DX2                !
 ! A53   A(1,17,19)            118.5997         estimate D2E/DX2                !
 ! A54   A(15,17,19)           118.2498         estimate D2E/DX2                !
 ! A55   A(3,18,16)            115.7552         estimate D2E/DX2                !
 ! A56   A(3,18,20)            118.2759         estimate D2E/DX2                !
 ! A57   A(16,18,20)           118.5373         estimate D2E/DX2                !
 ! A58   A(17,19,21)           118.1975         estimate D2E/DX2                !
 ! A59   A(17,19,53)           118.4061         estimate D2E/DX2                !
 ! A60   A(21,19,53)           116.4215         estimate D2E/DX2                !
 ! A61   A(18,20,22)           118.241          estimate D2E/DX2                !
 ! A62   A(18,20,54)           118.6281         estimate D2E/DX2                !
 ! A63   A(22,20,54)           116.0539         estimate D2E/DX2                !
 ! A64   A(19,21,23)           121.7288         estimate D2E/DX2                !
 ! A65   A(19,21,57)           121.6401         estimate D2E/DX2                !
 ! A66   A(23,21,57)           108.4091         estimate D2E/DX2                !
 ! A67   A(20,22,24)           121.9228         estimate D2E/DX2                !
 ! A68   A(20,22,58)           121.7748         estimate D2E/DX2                !
 ! A69   A(24,22,58)           108.0938         estimate D2E/DX2                !
 ! A70   A(21,23,25)           119.9711         estimate D2E/DX2                !
 ! A71   A(21,23,61)           111.1455         estimate D2E/DX2                !
 ! A72   A(25,23,61)           121.3834         estimate D2E/DX2                !
 ! A73   A(22,24,26)           119.7977         estimate D2E/DX2                !
 ! A74   A(22,24,62)           111.3098         estimate D2E/DX2                !
 ! A75   A(26,24,62)           121.3145         estimate D2E/DX2                !
 ! A76   A(1,25,23)            119.8039         estimate D2E/DX2                !
 ! A77   A(1,25,27)            111.2206         estimate D2E/DX2                !
 ! A78   A(23,25,27)           121.4996         estimate D2E/DX2                !
 ! A79   A(3,26,24)            119.8931         estimate D2E/DX2                !
 ! A80   A(3,26,28)            111.236          estimate D2E/DX2                !
 ! A81   A(24,26,28)           121.5012         estimate D2E/DX2                !
 ! A82   A(25,27,29)           100.7799         estimate D2E/DX2                !
 ! A83   A(25,27,65)           109.7598         estimate D2E/DX2                !
 ! A84   A(25,27,85)           113.7238         estimate D2E/DX2                !
 ! A85   A(29,27,65)           108.7982         estimate D2E/DX2                !
 ! A86   A(29,27,85)           114.4371         estimate D2E/DX2                !
 ! A87   A(65,27,85)           109.0233         estimate D2E/DX2                !
 ! A88   A(26,28,30)           100.7965         estimate D2E/DX2                !
 ! A89   A(26,28,66)           109.9547         estimate D2E/DX2                !
 ! A90   A(26,28,88)           113.6706         estimate D2E/DX2                !
 ! A91   A(30,28,66)           108.862          estimate D2E/DX2                !
 ! A92   A(30,28,88)           114.3402         estimate D2E/DX2                !
 ! A93   A(66,28,88)           108.9246         estimate D2E/DX2                !
 ! A94   A(5,29,27)            111.3854         estimate D2E/DX2                !
 ! A95   A(5,29,31)            119.3211         estimate D2E/DX2                !
 ! A96   A(27,29,31)           121.7968         estimate D2E/DX2                !
 ! A97   A(7,30,28)            111.4326         estimate D2E/DX2                !
 ! A98   A(7,30,32)            119.3167         estimate D2E/DX2                !
 ! A99   A(28,30,32)           122.0744         estimate D2E/DX2                !
 ! A100  A(29,31,33)           120.1172         estimate D2E/DX2                !
 ! A101  A(29,31,69)           121.2546         estimate D2E/DX2                !
 ! A102  A(33,31,69)           111.3629         estimate D2E/DX2                !
 ! A103  A(30,32,34)           120.4137         estimate D2E/DX2                !
 ! A104  A(30,32,70)           120.6997         estimate D2E/DX2                !
 ! A105  A(34,32,70)           111.9885         estimate D2E/DX2                !
 ! A106  A(31,33,35)           122.3689         estimate D2E/DX2                !
 ! A107  A(31,33,73)           107.3916         estimate D2E/DX2                !
 ! A108  A(35,33,73)           121.648          estimate D2E/DX2                !
 ! A109  A(32,34,36)           122.1342         estimate D2E/DX2                !
 ! A110  A(32,34,74)           107.2956         estimate D2E/DX2                !
 ! A111  A(36,34,74)           121.2119         estimate D2E/DX2                !
 ! A112  A(9,35,33)            116.5579         estimate D2E/DX2                !
 ! A113  A(9,35,37)            119.4087         estimate D2E/DX2                !
 ! A114  A(33,35,37)           118.8634         estimate D2E/DX2                !
 ! A115  A(12,36,34)           116.505          estimate D2E/DX2                !
 ! A116  A(12,36,38)           119.2954         estimate D2E/DX2                !
 ! A117  A(34,36,38)           119.5912         estimate D2E/DX2                !
 ! A118  A(35,37,39)           119.6312         estimate D2E/DX2                !
 ! A119  A(35,37,77)           118.4699         estimate D2E/DX2                !
 ! A120  A(39,37,77)           117.6976         estimate D2E/DX2                !
 ! A121  A(36,38,42)           120.7572         estimate D2E/DX2                !
 ! A122  A(36,38,78)           119.4243         estimate D2E/DX2                !
 ! A123  A(42,38,78)           118.4485         estimate D2E/DX2                !
 ! A124  A(37,39,43)           119.8883         estimate D2E/DX2                !
 ! A125  A(37,39,79)           121.1675         estimate D2E/DX2                !
 ! A126  A(43,39,79)           116.7068         estimate D2E/DX2                !
 ! A127  A(41,40,44)           121.3069         estimate D2E/DX2                !
 ! A128  A(41,40,79)           111.1191         estimate D2E/DX2                !
 ! A129  A(44,40,79)           125.0589         estimate D2E/DX2                !
 ! A130  A(40,41,45)           120.7447         estimate D2E/DX2                !
 ! A131  A(40,41,80)           111.8452         estimate D2E/DX2                !
 ! A132  A(45,41,80)           124.4902         estimate D2E/DX2                !
 ! A133  A(38,42,46)           120.0801         estimate D2E/DX2                !
 ! A134  A(38,42,80)           123.6159         estimate D2E/DX2                !
 ! A135  A(46,42,80)           114.5265         estimate D2E/DX2                !
 ! A136  A(2,43,13)            109.3426         estimate D2E/DX2                !
 ! A137  A(2,43,39)            125.1357         estimate D2E/DX2                !
 ! A138  A(13,43,39)           120.9222         estimate D2E/DX2                !
 ! A139  A(2,44,40)            116.0732         estimate D2E/DX2                !
 ! A140  A(2,44,47)            123.6155         estimate D2E/DX2                !
 ! A141  A(40,44,47)           118.9997         estimate D2E/DX2                !
 ! A142  A(4,45,41)            115.4462         estimate D2E/DX2                !
 ! A143  A(4,45,48)            121.499          estimate D2E/DX2                !
 ! A144  A(41,45,48)           118.602          estimate D2E/DX2                !
 ! A145  A(4,46,14)            108.7091         estimate D2E/DX2                !
 ! A146  A(4,46,42)            124.5345         estimate D2E/DX2                !
 ! A147  A(14,46,42)           120.0718         estimate D2E/DX2                !
 ! A148  A(44,47,48)           120.142          estimate D2E/DX2                !
 ! A149  A(44,47,49)           118.7265         estimate D2E/DX2                !
 ! A150  A(48,47,49)           120.4798         estimate D2E/DX2                !
 ! A151  A(45,48,47)           120.1254         estimate D2E/DX2                !
 ! A152  A(45,48,50)           118.0068         estimate D2E/DX2                !
 ! A153  A(47,48,50)           120.8834         estimate D2E/DX2                !
 ! A154  A(10,49,47)           110.1193         estimate D2E/DX2                !
 ! A155  A(10,49,51)           100.9783         estimate D2E/DX2                !
 ! A156  A(10,49,91)           113.1494         estimate D2E/DX2                !
 ! A157  A(47,49,51)           110.3306         estimate D2E/DX2                !
 ! A158  A(47,49,91)           108.998          estimate D2E/DX2                !
 ! A159  A(51,49,91)           113.0674         estimate D2E/DX2                !
 ! A160  A(11,50,48)           111.5461         estimate D2E/DX2                !
 ! A161  A(11,50,52)           100.9041         estimate D2E/DX2                !
 ! A162  A(11,50,92)           111.6116         estimate D2E/DX2                !
 ! A163  A(48,50,52)           110.8197         estimate D2E/DX2                !
 ! A164  A(48,50,92)           108.9912         estimate D2E/DX2                !
 ! A165  A(52,50,92)           112.827          estimate D2E/DX2                !
 ! A166  A(49,51,52)           122.1906         estimate D2E/DX2                !
 ! A167  A(49,51,55)           111.0246         estimate D2E/DX2                !
 ! A168  A(52,51,55)           119.816          estimate D2E/DX2                !
 ! A169  A(50,52,51)           122.0274         estimate D2E/DX2                !
 ! A170  A(50,52,56)           110.6997         estimate D2E/DX2                !
 ! A171  A(51,52,56)           120.0504         estimate D2E/DX2                !
 ! A172  A(10,53,19)           121.9101         estimate D2E/DX2                !
 ! A173  A(10,53,55)           108.5954         estimate D2E/DX2                !
 ! A174  A(19,53,55)           121.6201         estimate D2E/DX2                !
 ! A175  A(11,54,20)           121.8019         estimate D2E/DX2                !
 ! A176  A(11,54,56)           107.9257         estimate D2E/DX2                !
 ! A177  A(20,54,56)           121.8085         estimate D2E/DX2                !
 ! A178  A(51,55,53)           108.3956         estimate D2E/DX2                !
 ! A179  A(51,55,83)           121.6261         estimate D2E/DX2                !
 ! A180  A(53,55,83)           121.6885         estimate D2E/DX2                !
 ! A181  A(52,56,54)           108.9037         estimate D2E/DX2                !
 ! A182  A(52,56,84)           121.5911         estimate D2E/DX2                !
 ! A183  A(54,56,84)           121.7499         estimate D2E/DX2                !
 ! A184  A(21,57,59)           108.3233         estimate D2E/DX2                !
 ! A185  A(21,57,83)           121.6531         estimate D2E/DX2                !
 ! A186  A(59,57,83)           121.6327         estimate D2E/DX2                !
 ! A187  A(22,58,60)           108.5235         estimate D2E/DX2                !
 ! A188  A(22,58,84)           121.9952         estimate D2E/DX2                !
 ! A189  A(60,58,84)           121.6074         estimate D2E/DX2                !
 ! A190  A(57,59,60)           120.0664         estimate D2E/DX2                !
 ! A191  A(57,59,61)           111.2314         estimate D2E/DX2                !
 ! A192  A(60,59,61)           121.5952         estimate D2E/DX2                !
 ! A193  A(58,60,59)           119.8309         estimate D2E/DX2                !
 ! A194  A(58,60,62)           111.1837         estimate D2E/DX2                !
 ! A195  A(59,60,62)           121.6532         estimate D2E/DX2                !
 ! A196  A(23,61,59)           100.8421         estimate D2E/DX2                !
 ! A197  A(23,61,63)           109.7352         estimate D2E/DX2                !
 ! A198  A(23,61,89)           113.9595         estimate D2E/DX2                !
 ! A199  A(59,61,63)           109.7235         estimate D2E/DX2                !
 ! A200  A(59,61,89)           113.6535         estimate D2E/DX2                !
 ! A201  A(63,61,89)           108.6945         estimate D2E/DX2                !
 ! A202  A(24,62,60)           100.8591         estimate D2E/DX2                !
 ! A203  A(24,62,64)           109.9005         estimate D2E/DX2                !
 ! A204  A(24,62,90)           113.9573         estimate D2E/DX2                !
 ! A205  A(60,62,64)           109.7089         estimate D2E/DX2                !
 ! A206  A(60,62,90)           113.7118         estimate D2E/DX2                !
 ! A207  A(64,62,90)           108.4959         estimate D2E/DX2                !
 ! A208  A(61,63,64)           119.9668         estimate D2E/DX2                !
 ! A209  A(61,63,65)           119.9243         estimate D2E/DX2                !
 ! A210  A(64,63,65)           119.8928         estimate D2E/DX2                !
 ! A211  A(62,64,63)           119.9867         estimate D2E/DX2                !
 ! A212  A(62,64,66)           119.9071         estimate D2E/DX2                !
 ! A213  A(63,64,66)           119.8885         estimate D2E/DX2                !
 ! A214  A(27,65,63)           119.6796         estimate D2E/DX2                !
 ! A215  A(27,65,67)           119.8341         estimate D2E/DX2                !
 ! A216  A(63,65,67)           120.2278         estimate D2E/DX2                !
 ! A217  A(28,66,64)           119.7324         estimate D2E/DX2                !
 ! A218  A(28,66,68)           119.7251         estimate D2E/DX2                !
 ! A219  A(64,66,68)           120.292          estimate D2E/DX2                !
 ! A220  A(65,67,68)           119.9057         estimate D2E/DX2                !
 ! A221  A(65,67,69)           119.6558         estimate D2E/DX2                !
 ! A222  A(68,67,69)           120.2259         estimate D2E/DX2                !
 ! A223  A(66,68,67)           119.7854         estimate D2E/DX2                !
 ! A224  A(66,68,70)           119.7247         estimate D2E/DX2                !
 ! A225  A(67,68,70)           120.2731         estimate D2E/DX2                !
 ! A226  A(31,69,67)           108.5056         estimate D2E/DX2                !
 ! A227  A(31,69,71)           101.0581         estimate D2E/DX2                !
 ! A228  A(31,69,86)           114.2727         estimate D2E/DX2                !
 ! A229  A(67,69,71)           110.2709         estimate D2E/DX2                !
 ! A230  A(67,69,86)           108.5887         estimate D2E/DX2                !
 ! A231  A(71,69,86)           113.8867         estimate D2E/DX2                !
 ! A232  A(32,70,68)           108.8557         estimate D2E/DX2                !
 ! A233  A(32,70,72)           101.0408         estimate D2E/DX2                !
 ! A234  A(32,70,87)           114.4166         estimate D2E/DX2                !
 ! A235  A(68,70,72)           110.4607         estimate D2E/DX2                !
 ! A236  A(68,70,87)           108.3474         estimate D2E/DX2                !
 ! A237  A(72,70,87)           113.5193         estimate D2E/DX2                !
 ! A238  A(69,71,72)           122.179          estimate D2E/DX2                !
 ! A239  A(69,71,73)           110.2885         estimate D2E/DX2                !
 ! A240  A(72,71,73)           118.8968         estimate D2E/DX2                !
 ! A241  A(70,72,71)           121.5601         estimate D2E/DX2                !
 ! A242  A(70,72,74)           110.8383         estimate D2E/DX2                !
 ! A243  A(71,72,74)           119.9071         estimate D2E/DX2                !
 ! A244  A(33,73,71)           109.5322         estimate D2E/DX2                !
 ! A245  A(33,73,75)           119.1854         estimate D2E/DX2                !
 ! A246  A(71,73,75)           121.0473         estimate D2E/DX2                !
 ! A247  A(34,74,72)           108.4668         estimate D2E/DX2                !
 ! A248  A(34,74,76)           120.3405         estimate D2E/DX2                !
 ! A249  A(72,74,76)           121.9154         estimate D2E/DX2                !
 ! A250  A(73,75,76)           119.7501         estimate D2E/DX2                !
 ! A251  A(73,75,77)           119.9215         estimate D2E/DX2                !
 ! A252  A(76,75,77)           110.0411         estimate D2E/DX2                !
 ! A253  A(74,76,75)           118.2475         estimate D2E/DX2                !
 ! A254  A(74,76,78)           122.2414         estimate D2E/DX2                !
 ! A255  A(75,76,78)           110.4391         estimate D2E/DX2                !
 ! A256  A(37,77,75)           121.7105         estimate D2E/DX2                !
 ! A257  A(37,77,81)           121.3329         estimate D2E/DX2                !
 ! A258  A(75,77,81)           107.0507         estimate D2E/DX2                !
 ! A259  A(38,78,76)           112.8671         estimate D2E/DX2                !
 ! A260  A(38,78,81)           110.7984         estimate D2E/DX2                !
 ! A261  A(38,78,95)           108.3506         estimate D2E/DX2                !
 ! A262  A(76,78,81)           101.3899         estimate D2E/DX2                !
 ! A263  A(76,78,95)           111.9285         estimate D2E/DX2                !
 ! A264  A(81,78,95)           111.4403         estimate D2E/DX2                !
 ! A265  A(39,79,40)           109.5578         estimate D2E/DX2                !
 ! A266  A(39,79,82)           113.7059         estimate D2E/DX2                !
 ! A267  A(39,79,94)           109.7492         estimate D2E/DX2                !
 ! A268  A(40,79,82)           100.5977         estimate D2E/DX2                !
 ! A269  A(40,79,94)           111.3664         estimate D2E/DX2                !
 ! A270  A(82,79,94)           111.5818         estimate D2E/DX2                !
 ! A271  A(41,80,42)           110.1914         estimate D2E/DX2                !
 ! A272  A(41,80,82)           100.3266         estimate D2E/DX2                !
 ! A273  A(41,80,96)           111.5456         estimate D2E/DX2                !
 ! A274  A(42,80,82)           111.8908         estimate D2E/DX2                !
 ! A275  A(42,80,96)           109.4333         estimate D2E/DX2                !
 ! A276  A(82,80,96)           113.1944         estimate D2E/DX2                !
 ! A277  A(77,81,78)           110.563          estimate D2E/DX2                !
 ! A278  A(77,81,82)           121.6033         estimate D2E/DX2                !
 ! A279  A(78,81,82)           122.977          estimate D2E/DX2                !
 ! A280  A(79,82,80)           112.3062         estimate D2E/DX2                !
 ! A281  A(79,82,81)           121.1482         estimate D2E/DX2                !
 ! A282  A(80,82,81)           121.4162         estimate D2E/DX2                !
 ! A283  A(55,83,57)           116.3931         estimate D2E/DX2                !
 ! A284  A(55,83,84)           118.5167         estimate D2E/DX2                !
 ! A285  A(57,83,84)           118.3036         estimate D2E/DX2                !
 ! A286  A(56,84,58)           116.1403         estimate D2E/DX2                !
 ! A287  A(56,84,83)           118.3916         estimate D2E/DX2                !
 ! A288  A(58,84,83)           118.5576         estimate D2E/DX2                !
 ! D1    D(17,1,5,9)            -2.994          estimate D2E/DX2                !
 ! D2    D(17,1,5,29)         -151.005          estimate D2E/DX2                !
 ! D3    D(25,1,5,9)           145.6473         estimate D2E/DX2                !
 ! D4    D(25,1,5,29)           -2.3637         estimate D2E/DX2                !
 ! D5    D(5,1,17,15)           -5.4083         estimate D2E/DX2                !
 ! D6    D(5,1,17,19)          145.0478         estimate D2E/DX2                !
 ! D7    D(25,1,17,15)        -149.8942         estimate D2E/DX2                !
 ! D8    D(25,1,17,19)           0.5619         estimate D2E/DX2                !
 ! D9    D(5,1,25,23)         -147.9598         estimate D2E/DX2                !
 ! D10   D(5,1,25,27)            2.3071         estimate D2E/DX2                !
 ! D11   D(17,1,25,23)           0.7135         estimate D2E/DX2                !
 ! D12   D(17,1,25,27)         150.9803         estimate D2E/DX2                !
 ! D13   D(43,2,6,10)         -141.4087         estimate D2E/DX2                !
 ! D14   D(43,2,6,15)            8.922          estimate D2E/DX2                !
 ! D15   D(44,2,6,10)          -25.3202         estimate D2E/DX2                !
 ! D16   D(44,2,6,15)          125.0106         estimate D2E/DX2                !
 ! D17   D(93,2,6,10)           98.5282         estimate D2E/DX2                !
 ! D18   D(93,2,6,15)         -111.141          estimate D2E/DX2                !
 ! D19   D(6,2,43,13)           -9.9624         estimate D2E/DX2                !
 ! D20   D(6,2,43,39)          145.9597         estimate D2E/DX2                !
 ! D21   D(44,2,43,13)        -126.2896         estimate D2E/DX2                !
 ! D22   D(44,2,43,39)          29.6325         estimate D2E/DX2                !
 ! D23   D(93,2,43,13)         110.7313         estimate D2E/DX2                !
 ! D24   D(93,2,43,39)         -93.3466         estimate D2E/DX2                !
 ! D25   D(6,2,44,40)         -144.5558         estimate D2E/DX2                !
 ! D26   D(6,2,44,47)           22.2008         estimate D2E/DX2                !
 ! D27   D(43,2,44,40)         -33.7479         estimate D2E/DX2                !
 ! D28   D(43,2,44,47)         133.0088         estimate D2E/DX2                !
 ! D29   D(93,2,44,40)          90.1645         estimate D2E/DX2                !
 ! D30   D(93,2,44,47)        -103.0788         estimate D2E/DX2                !
 ! D31   D(18,3,7,12)            3.5752         estimate D2E/DX2                !
 ! D32   D(18,3,7,30)          151.1108         estimate D2E/DX2                !
 ! D33   D(26,3,7,12)         -145.0695         estimate D2E/DX2                !
 ! D34   D(26,3,7,30)            2.4661         estimate D2E/DX2                !
 ! D35   D(7,3,18,16)            5.484          estimate D2E/DX2                !
 ! D36   D(7,3,18,20)         -144.0356         estimate D2E/DX2                !
 ! D37   D(26,3,18,16)         149.8438         estimate D2E/DX2                !
 ! D38   D(26,3,18,20)           0.3242         estimate D2E/DX2                !
 ! D39   D(7,3,26,24)          147.7578         estimate D2E/DX2                !
 ! D40   D(7,3,26,28)           -2.7007         estimate D2E/DX2                !
 ! D41   D(18,3,26,24)          -0.8482         estimate D2E/DX2                !
 ! D42   D(18,3,26,28)        -151.3067         estimate D2E/DX2                !
 ! D43   D(45,4,8,11)            7.8325         estimate D2E/DX2                !
 ! D44   D(45,4,8,16)         -137.1456         estimate D2E/DX2                !
 ! D45   D(46,4,8,11)          146.265          estimate D2E/DX2                !
 ! D46   D(46,4,8,16)            1.2869         estimate D2E/DX2                !
 ! D47   D(8,4,45,41)          151.9675         estimate D2E/DX2                !
 ! D48   D(8,4,45,48)           -4.0044         estimate D2E/DX2                !
 ! D49   D(46,4,45,41)          18.461          estimate D2E/DX2                !
 ! D50   D(46,4,45,48)        -137.5109         estimate D2E/DX2                !
 ! D51   D(8,4,46,14)           -0.4074         estimate D2E/DX2                !
 ! D52   D(8,4,46,42)         -151.4831         estimate D2E/DX2                !
 ! D53   D(45,4,46,14)         137.9338         estimate D2E/DX2                !
 ! D54   D(45,4,46,42)         -13.1419         estimate D2E/DX2                !
 ! D55   D(1,5,9,13)             7.935          estimate D2E/DX2                !
 ! D56   D(1,5,9,35)          -145.5108         estimate D2E/DX2                !
 ! D57   D(29,5,9,13)          151.8475         estimate D2E/DX2                !
 ! D58   D(29,5,9,35)           -1.5983         estimate D2E/DX2                !
 ! D59   D(1,5,29,27)            1.594          estimate D2E/DX2                !
 ! D60   D(1,5,29,31)          151.9321         estimate D2E/DX2                !
 ! D61   D(9,5,29,27)         -146.4908         estimate D2E/DX2                !
 ! D62   D(9,5,29,31)            3.8473         estimate D2E/DX2                !
 ! D63   D(2,6,10,49)           -0.3486         estimate D2E/DX2                !
 ! D64   D(2,6,10,53)          147.821          estimate D2E/DX2                !
 ! D65   D(15,6,10,49)        -147.9836         estimate D2E/DX2                !
 ! D66   D(15,6,10,53)           0.186          estimate D2E/DX2                !
 ! D67   D(2,6,15,13)           -4.8442         estimate D2E/DX2                !
 ! D68   D(2,6,15,17)         -153.2443         estimate D2E/DX2                !
 ! D69   D(10,6,15,13)         146.3104         estimate D2E/DX2                !
 ! D70   D(10,6,15,17)          -2.0898         estimate D2E/DX2                !
 ! D71   D(3,7,12,14)           -8.3955         estimate D2E/DX2                !
 ! D72   D(3,7,12,36)          145.3573         estimate D2E/DX2                !
 ! D73   D(30,7,12,14)        -151.9825         estimate D2E/DX2                !
 ! D74   D(30,7,12,36)           1.7704         estimate D2E/DX2                !
 ! D75   D(3,7,30,28)           -1.362          estimate D2E/DX2                !
 ! D76   D(3,7,30,32)         -152.372          estimate D2E/DX2                !
 ! D77   D(12,7,30,28)         146.4729         estimate D2E/DX2                !
 ! D78   D(12,7,30,32)          -4.5371         estimate D2E/DX2                !
 ! D79   D(4,8,11,50)            9.3841         estimate D2E/DX2                !
 ! D80   D(4,8,11,54)         -138.8041         estimate D2E/DX2                !
 ! D81   D(16,8,11,50)         150.5484         estimate D2E/DX2                !
 ! D82   D(16,8,11,54)           2.3602         estimate D2E/DX2                !
 ! D83   D(4,8,16,14)           -1.6626         estimate D2E/DX2                !
 ! D84   D(4,8,16,18)          143.4945         estimate D2E/DX2                !
 ! D85   D(11,8,16,14)        -146.8602         estimate D2E/DX2                !
 ! D86   D(11,8,16,18)          -1.7032         estimate D2E/DX2                !
 ! D87   D(5,9,13,15)           -4.6448         estimate D2E/DX2                !
 ! D88   D(5,9,13,43)         -151.719          estimate D2E/DX2                !
 ! D89   D(35,9,13,15)         149.0582         estimate D2E/DX2                !
 ! D90   D(35,9,13,43)           1.984          estimate D2E/DX2                !
 ! D91   D(5,9,35,33)           -4.53           estimate D2E/DX2                !
 ! D92   D(5,9,35,37)          149.7921         estimate D2E/DX2                !
 ! D93   D(13,9,35,33)        -157.2564         estimate D2E/DX2                !
 ! D94   D(13,9,35,37)          -2.9343         estimate D2E/DX2                !
 ! D95   D(6,10,49,47)          28.9319         estimate D2E/DX2                !
 ! D96   D(6,10,49,51)         145.5459         estimate D2E/DX2                !
 ! D97   D(6,10,49,91)         -93.3223         estimate D2E/DX2                !
 ! D98   D(53,10,49,47)       -121.6921         estimate D2E/DX2                !
 ! D99   D(53,10,49,51)         -5.0782         estimate D2E/DX2                !
 ! D100  D(53,10,49,91)        116.0536         estimate D2E/DX2                !
 ! D101  D(6,10,53,19)           1.2223         estimate D2E/DX2                !
 ! D102  D(6,10,53,55)        -148.2229         estimate D2E/DX2                !
 ! D103  D(49,10,53,19)        152.9311         estimate D2E/DX2                !
 ! D104  D(49,10,53,55)          3.486          estimate D2E/DX2                !
 ! D105  D(8,11,50,48)         -27.7362         estimate D2E/DX2                !
 ! D106  D(8,11,50,52)        -145.4606         estimate D2E/DX2                !
 ! D107  D(8,11,50,92)          94.455          estimate D2E/DX2                !
 ! D108  D(54,11,50,48)        122.8009         estimate D2E/DX2                !
 ! D109  D(54,11,50,52)          5.0764         estimate D2E/DX2                !
 ! D110  D(54,11,50,92)       -115.0079         estimate D2E/DX2                !
 ! D111  D(8,11,54,20)          -1.3422         estimate D2E/DX2                !
 ! D112  D(8,11,54,56)         147.1333         estimate D2E/DX2                !
 ! D113  D(50,11,54,20)       -152.6897         estimate D2E/DX2                !
 ! D114  D(50,11,54,56)         -4.2142         estimate D2E/DX2                !
 ! D115  D(7,12,14,16)           4.3827         estimate D2E/DX2                !
 ! D116  D(7,12,14,46)         149.216          estimate D2E/DX2                !
 ! D117  D(36,12,14,16)       -149.5547         estimate D2E/DX2                !
 ! D118  D(36,12,14,46)         -4.7214         estimate D2E/DX2                !
 ! D119  D(7,12,36,34)           5.6534         estimate D2E/DX2                !
 ! D120  D(7,12,36,38)        -150.2033         estimate D2E/DX2                !
 ! D121  D(14,12,36,34)        158.4454         estimate D2E/DX2                !
 ! D122  D(14,12,36,38)          2.5887         estimate D2E/DX2                !
 ! D123  D(9,13,15,6)         -152.368          estimate D2E/DX2                !
 ! D124  D(9,13,15,17)          -3.7769         estimate D2E/DX2                !
 ! D125  D(43,13,15,6)          -1.8663         estimate D2E/DX2                !
 ! D126  D(43,13,15,17)        146.7247         estimate D2E/DX2                !
 ! D127  D(9,13,43,2)          158.5938         estimate D2E/DX2                !
 ! D128  D(9,13,43,39)           1.4811         estimate D2E/DX2                !
 ! D129  D(15,13,43,2)           7.7604         estimate D2E/DX2                !
 ! D130  D(15,13,43,39)       -149.3523         estimate D2E/DX2                !
 ! D131  D(12,14,16,8)         149.7722         estimate D2E/DX2                !
 ! D132  D(12,14,16,18)          4.7539         estimate D2E/DX2                !
 ! D133  D(46,14,16,8)           1.3995         estimate D2E/DX2                !
 ! D134  D(46,14,16,18)       -143.6188         estimate D2E/DX2                !
 ! D135  D(12,14,46,4)        -149.8552         estimate D2E/DX2                !
 ! D136  D(12,14,46,42)          2.7321         estimate D2E/DX2                !
 ! D137  D(16,14,46,4)          -0.6316         estimate D2E/DX2                !
 ! D138  D(16,14,46,42)        151.9556         estimate D2E/DX2                !
 ! D139  D(6,15,17,1)          153.0821         estimate D2E/DX2                !
 ! D140  D(6,15,17,19)           2.5189         estimate D2E/DX2                !
 ! D141  D(13,15,17,1)           8.6921         estimate D2E/DX2                !
 ! D142  D(13,15,17,19)       -141.8711         estimate D2E/DX2                !
 ! D143  D(8,16,18,3)         -149.4912         estimate D2E/DX2                !
 ! D144  D(8,16,18,20)          -0.0549         estimate D2E/DX2                !
 ! D145  D(14,16,18,3)          -9.5198         estimate D2E/DX2                !
 ! D146  D(14,16,18,20)        139.9165         estimate D2E/DX2                !
 ! D147  D(1,17,19,21)          -1.189          estimate D2E/DX2                !
 ! D148  D(1,17,19,53)        -150.9537         estimate D2E/DX2                !
 ! D149  D(15,17,19,21)        148.6767         estimate D2E/DX2                !
 ! D150  D(15,17,19,53)         -1.088          estimate D2E/DX2                !
 ! D151  D(3,18,20,22)           0.2783         estimate D2E/DX2                !
 ! D152  D(3,18,20,54)         149.7288         estimate D2E/DX2                !
 ! D153  D(16,18,20,22)       -148.3872         estimate D2E/DX2                !
 ! D154  D(16,18,20,54)          1.0633         estimate D2E/DX2                !
 ! D155  D(17,19,21,23)          0.626          estimate D2E/DX2                !
 ! D156  D(17,19,21,57)       -144.1689         estimate D2E/DX2                !
 ! D157  D(53,19,21,23)        150.9835         estimate D2E/DX2                !
 ! D158  D(53,19,21,57)          6.1886         estimate D2E/DX2                !
 ! D159  D(17,19,53,10)         -0.7449         estimate D2E/DX2                !
 ! D160  D(17,19,53,55)        144.7956         estimate D2E/DX2                !
 ! D161  D(21,19,53,10)       -151.0384         estimate D2E/DX2                !
 ! D162  D(21,19,53,55)         -5.4979         estimate D2E/DX2                !
 ! D163  D(18,20,22,24)         -0.3901         estimate D2E/DX2                !
 ! D164  D(18,20,22,58)        144.328          estimate D2E/DX2                !
 ! D165  D(54,20,22,24)       -150.6142         estimate D2E/DX2                !
 ! D166  D(54,20,22,58)         -5.8961         estimate D2E/DX2                !
 ! D167  D(18,20,54,11)         -0.4062         estimate D2E/DX2                !
 ! D168  D(18,20,54,56)       -144.5749         estimate D2E/DX2                !
 ! D169  D(22,20,54,11)        149.6977         estimate D2E/DX2                !
 ! D170  D(22,20,54,56)          5.529          estimate D2E/DX2                !
 ! D171  D(19,21,23,25)          0.6461         estimate D2E/DX2                !
 ! D172  D(19,21,23,61)       -149.5344         estimate D2E/DX2                !
 ! D173  D(57,21,23,25)        149.4958         estimate D2E/DX2                !
 ! D174  D(57,21,23,61)         -0.6847         estimate D2E/DX2                !
 ! D175  D(19,21,57,59)        148.0988         estimate D2E/DX2                !
 ! D176  D(19,21,57,83)         -0.4619         estimate D2E/DX2                !
 ! D177  D(23,21,57,59)         -0.784          estimate D2E/DX2                !
 ! D178  D(23,21,57,83)       -149.3447         estimate D2E/DX2                !
 ! D179  D(20,22,24,26)         -0.1222         estimate D2E/DX2                !
 ! D180  D(20,22,24,62)        149.904          estimate D2E/DX2                !
 ! D181  D(58,22,24,26)       -149.0193         estimate D2E/DX2                !
 ! D182  D(58,22,24,62)          1.0069         estimate D2E/DX2                !
 ! D183  D(20,22,58,60)       -148.8253         estimate D2E/DX2                !
 ! D184  D(20,22,58,84)          0.6104         estimate D2E/DX2                !
 ! D185  D(24,22,58,60)          0.1271         estimate D2E/DX2                !
 ! D186  D(24,22,58,84)        149.5629         estimate D2E/DX2                !
 ! D187  D(21,23,25,1)          -1.3015         estimate D2E/DX2                !
 ! D188  D(21,23,25,27)       -148.4658         estimate D2E/DX2                !
 ! D189  D(61,23,25,1)         145.7923         estimate D2E/DX2                !
 ! D190  D(61,23,25,27)         -1.372          estimate D2E/DX2                !
 ! D191  D(21,23,61,59)          1.738          estimate D2E/DX2                !
 ! D192  D(21,23,61,63)        117.4448         estimate D2E/DX2                !
 ! D193  D(21,23,61,89)       -120.4111         estimate D2E/DX2                !
 ! D194  D(25,23,61,59)       -147.9576         estimate D2E/DX2                !
 ! D195  D(25,23,61,63)        -32.2508         estimate D2E/DX2                !
 ! D196  D(25,23,61,89)         89.8934         estimate D2E/DX2                !
 ! D197  D(22,24,26,3)           0.7303         estimate D2E/DX2                !
 ! D198  D(22,24,26,28)        148.1142         estimate D2E/DX2                !
 ! D199  D(62,24,26,3)        -146.2581         estimate D2E/DX2                !
 ! D200  D(62,24,26,28)          1.1258         estimate D2E/DX2                !
 ! D201  D(22,24,62,60)         -1.6182         estimate D2E/DX2                !
 ! D202  D(22,24,62,64)       -117.3807         estimate D2E/DX2                !
 ! D203  D(22,24,62,90)        120.611          estimate D2E/DX2                !
 ! D204  D(26,24,62,60)        147.8861         estimate D2E/DX2                !
 ! D205  D(26,24,62,64)         32.1236         estimate D2E/DX2                !
 ! D206  D(26,24,62,90)        -89.8847         estimate D2E/DX2                !
 ! D207  D(1,25,27,29)          -1.2732         estimate D2E/DX2                !
 ! D208  D(1,25,27,65)        -115.915          estimate D2E/DX2                !
 ! D209  D(1,25,27,85)         121.6607         estimate D2E/DX2                !
 ! D210  D(23,25,27,29)        148.4129         estimate D2E/DX2                !
 ! D211  D(23,25,27,65)         33.7711         estimate D2E/DX2                !
 ! D212  D(23,25,27,85)        -88.6532         estimate D2E/DX2                !
 ! D213  D(3,26,28,30)           1.78           estimate D2E/DX2                !
 ! D214  D(3,26,28,66)         116.575          estimate D2E/DX2                !
 ! D215  D(3,26,28,88)        -121.0206         estimate D2E/DX2                !
 ! D216  D(24,26,28,30)       -148.1314         estimate D2E/DX2                !
 ! D217  D(24,26,28,66)        -33.3364         estimate D2E/DX2                !
 ! D218  D(24,26,28,88)         89.068          estimate D2E/DX2                !
 ! D219  D(25,27,29,5)          -0.2041         estimate D2E/DX2                !
 ! D220  D(25,27,29,31)       -149.6953         estimate D2E/DX2                !
 ! D221  D(65,27,29,5)         115.1589         estimate D2E/DX2                !
 ! D222  D(65,27,29,31)        -34.3322         estimate D2E/DX2                !
 ! D223  D(85,27,29,5)        -122.6411         estimate D2E/DX2                !
 ! D224  D(85,27,29,31)         87.8677         estimate D2E/DX2                !
 ! D225  D(25,27,65,63)        -31.8123         estimate D2E/DX2                !
 ! D226  D(25,27,65,67)        142.3613         estimate D2E/DX2                !
 ! D227  D(29,27,65,63)       -141.2156         estimate D2E/DX2                !
 ! D228  D(29,27,65,67)         32.9579         estimate D2E/DX2                !
 ! D229  D(85,27,65,63)         93.3611         estimate D2E/DX2                !
 ! D230  D(85,27,65,67)        -92.4653         estimate D2E/DX2                !
 ! D231  D(26,28,30,7)          -0.2335         estimate D2E/DX2                !
 ! D232  D(26,28,30,32)        149.8519         estimate D2E/DX2                !
 ! D233  D(66,28,30,7)        -115.8465         estimate D2E/DX2                !
 ! D234  D(66,28,30,32)         34.2389         estimate D2E/DX2                !
 ! D235  D(88,28,30,7)         122.1003         estimate D2E/DX2                !
 ! D236  D(88,28,30,32)        -87.8143         estimate D2E/DX2                !
 ! D237  D(26,28,66,64)         31.5364         estimate D2E/DX2                !
 ! D238  D(26,28,66,68)       -142.7324         estimate D2E/DX2                !
 ! D239  D(30,28,66,64)        141.0867         estimate D2E/DX2                !
 ! D240  D(30,28,66,68)        -33.1821         estimate D2E/DX2                !
 ! D241  D(88,28,66,64)        -93.634          estimate D2E/DX2                !
 ! D242  D(88,28,66,68)         92.0972         estimate D2E/DX2                !
 ! D243  D(5,29,31,33)           0.2621         estimate D2E/DX2                !
 ! D244  D(5,29,31,69)        -147.3763         estimate D2E/DX2                !
 ! D245  D(27,29,31,33)        147.4302         estimate D2E/DX2                !
 ! D246  D(27,29,31,69)         -0.2082         estimate D2E/DX2                !
 ! D247  D(7,30,32,34)          -0.3588         estimate D2E/DX2                !
 ! D248  D(7,30,32,70)         148.2324         estimate D2E/DX2                !
 ! D249  D(28,30,32,34)       -148.1903         estimate D2E/DX2                !
 ! D250  D(28,30,32,70)          0.4008         estimate D2E/DX2                !
 ! D251  D(29,31,33,35)         -6.8246         estimate D2E/DX2                !
 ! D252  D(29,31,33,73)       -154.9844         estimate D2E/DX2                !
 ! D253  D(69,31,33,35)        143.7469         estimate D2E/DX2                !
 ! D254  D(69,31,33,73)         -4.4129         estimate D2E/DX2                !
 ! D255  D(29,31,69,67)         35.1946         estimate D2E/DX2                !
 ! D256  D(29,31,69,71)        151.1502         estimate D2E/DX2                !
 ! D257  D(29,31,69,86)        -86.1165         estimate D2E/DX2                !
 ! D258  D(33,31,69,67)       -114.9931         estimate D2E/DX2                !
 ! D259  D(33,31,69,71)          0.9625         estimate D2E/DX2                !
 ! D260  D(33,31,69,86)        123.6958         estimate D2E/DX2                !
 ! D261  D(30,32,34,36)          8.3262         estimate D2E/DX2                !
 ! D262  D(30,32,34,74)        155.1009         estimate D2E/DX2                !
 ! D263  D(70,32,34,36)       -142.7753         estimate D2E/DX2                !
 ! D264  D(70,32,34,74)          3.9994         estimate D2E/DX2                !
 ! D265  D(30,32,70,68)        -35.137          estimate D2E/DX2                !
 ! D266  D(30,32,70,72)       -151.4318         estimate D2E/DX2                !
 ! D267  D(30,32,70,87)         86.2178         estimate D2E/DX2                !
 ! D268  D(34,32,70,68)        115.8711         estimate D2E/DX2                !
 ! D269  D(34,32,70,72)         -0.4236         estimate D2E/DX2                !
 ! D270  D(34,32,70,87)       -122.7741         estimate D2E/DX2                !
 ! D271  D(31,33,35,9)           8.7873         estimate D2E/DX2                !
 ! D272  D(31,33,35,37)       -145.6804         estimate D2E/DX2                !
 ! D273  D(73,33,35,9)         152.5324         estimate D2E/DX2                !
 ! D274  D(73,33,35,37)         -1.9354         estimate D2E/DX2                !
 ! D275  D(31,33,73,71)          6.2209         estimate D2E/DX2                !
 ! D276  D(31,33,73,75)        151.8051         estimate D2E/DX2                !
 ! D277  D(35,33,73,71)       -142.2172         estimate D2E/DX2                !
 ! D278  D(35,33,73,75)          3.367          estimate D2E/DX2                !
 ! D279  D(32,34,36,12)        -10.7252         estimate D2E/DX2                !
 ! D280  D(32,34,36,38)        145.0566         estimate D2E/DX2                !
 ! D281  D(74,34,36,12)       -153.0129         estimate D2E/DX2                !
 ! D282  D(74,34,36,38)          2.7688         estimate D2E/DX2                !
 ! D283  D(32,34,74,72)         -6.0756         estimate D2E/DX2                !
 ! D284  D(32,34,74,76)       -153.3513         estimate D2E/DX2                !
 ! D285  D(36,34,74,72)        141.0692         estimate D2E/DX2                !
 ! D286  D(36,34,74,76)         -6.2064         estimate D2E/DX2                !
 ! D287  D(9,35,37,39)           0.6123         estimate D2E/DX2                !
 ! D288  D(9,35,37,77)        -155.8422         estimate D2E/DX2                !
[...]
 Alpha virt. eigenvalues --    1.43613   1.44492   1.44908   1.44961   1.45672
 Alpha virt. eigenvalues --    1.45928   1.46007   1.47089   1.47339   1.47721
 Alpha virt. eigenvalues --    1.48159   1.48686   1.49006   1.49273   1.50060
 Alpha virt. eigenvalues --    1.50570   1.51350   1.51729   1.52195   1.52485
 Alpha virt. eigenvalues --    1.53080   1.53660   1.54582   1.55037   1.55391
 Alpha virt. eigenvalues --    1.55761   1.56053   1.56450   1.57995   1.58586
 Alpha virt. eigenvalues --    1.59168   1.59345   1.59892   1.60074   1.60669
 Alpha virt. eigenvalues --    1.61093   1.61532   1.62133   1.62376   1.62619
 Alpha virt. eigenvalues --    1.62707   1.63117   1.63489   1.63997   1.64037
 Alpha virt. eigenvalues --    1.64359   1.64463   1.64629   1.65198   1.65343
 Alpha virt. eigenvalues --    1.65415   1.65619   1.65806   1.65984   1.66190
 Alpha virt. eigenvalues --    1.66434   1.66616   1.67260   1.67370   1.67584
 Alpha virt. eigenvalues --    1.67688   1.67835   1.68128   1.68277   1.68454
 Alpha virt. eigenvalues --    1.68617   1.68826   1.69090   1.69536   1.69643
 Alpha virt. eigenvalues --    1.69809   1.70390   1.70586   1.70724   1.71029
 Alpha virt. eigenvalues --    1.71444   1.71733   1.71999   1.72149   1.72266
 Alpha virt. eigenvalues --    1.72375   1.72780   1.73268   1.73406   1.73559
 Alpha virt. eigenvalues --    1.74226   1.74335   1.74798   1.74972   1.74992
 Alpha virt. eigenvalues --    1.75145   1.75565   1.75737   1.75958   1.76172
 Alpha virt. eigenvalues --    1.76225   1.76371   1.76965   1.77013   1.77286
 Alpha virt. eigenvalues --    1.77557   1.77661   1.78003   1.78120   1.78333
 Alpha virt. eigenvalues --    1.78505   1.78637   1.78844   1.79000   1.79063
 Alpha virt. eigenvalues --    1.79257   1.79552   1.79933   1.80160   1.80354
 Alpha virt. eigenvalues --    1.80541   1.81031   1.81249   1.81367   1.81418
 Alpha virt. eigenvalues --    1.81734   1.82140   1.82452   1.82842   1.83233
 Alpha virt. eigenvalues --    1.83352   1.83593   1.83766   1.84194   1.84753
 Alpha virt. eigenvalues --    1.85051   1.85293   1.85902   1.86288   1.86699
 Alpha virt. eigenvalues --    1.86840   1.87242   1.87782   1.87976   1.88019
 Alpha virt. eigenvalues --    1.88262   1.88604   1.88786   1.89009   1.89525
 Alpha virt. eigenvalues --    1.89817   1.90298   1.90731   1.91032   1.91162
 Alpha virt. eigenvalues --    1.91749   1.92393   1.92828   1.93219   1.93591
 Alpha virt. eigenvalues --    1.94043   1.94172   1.94388   1.94686   1.94960
 Alpha virt. eigenvalues --    1.95532   1.95699   1.96015   1.96288   1.96434
 Alpha virt. eigenvalues --    1.96931   1.97142   1.97586   1.98036   1.98296
 Alpha virt. eigenvalues --    1.98678   1.99214   1.99414   1.99716   2.00298
 Alpha virt. eigenvalues --    2.00606   2.00853   2.01086   2.01225   2.01452
 Alpha virt. eigenvalues --    2.01634   2.01970   2.02135   2.02547   2.02978
 Alpha virt. eigenvalues --    2.03164   2.03505   2.03801   2.04217   2.05099
 Alpha virt. eigenvalues --    2.05296   2.05500   2.06151   2.06533   2.06831
 Alpha virt. eigenvalues --    2.07280   2.07576   2.07820   2.08333   2.08467
 Alpha virt. eigenvalues --    2.08857   2.09078   2.09424   2.10112   2.10280
 Alpha virt. eigenvalues --    2.10474   2.10991   2.11130   2.11562   2.11905
 Alpha virt. eigenvalues --    2.12353   2.12666   2.13349   2.13473   2.13995
 Alpha virt. eigenvalues --    2.14377   2.14945   2.15366   2.15468   2.15986
 Alpha virt. eigenvalues --    2.16462   2.16800   2.17252   2.17308   2.17705
 Alpha virt. eigenvalues --    2.18667   2.18938   2.19200   2.19800   2.20057
 Alpha virt. eigenvalues --    2.20452   2.20913   2.21237   2.21525   2.22153
 Alpha virt. eigenvalues --    2.22395   2.22496   2.22838   2.23584   2.24211
 Alpha virt. eigenvalues --    2.24557   2.24971   2.25125   2.25533   2.25812
 Alpha virt. eigenvalues --    2.26130   2.26721   2.27361   2.27610   2.28204
 Alpha virt. eigenvalues --    2.28733   2.28932   2.29093   2.29417   2.29507
 Alpha virt. eigenvalues --    2.30410   2.30740   2.31599   2.31807   2.32033
 Alpha virt. eigenvalues --    2.32579   2.33637   2.34021   2.34805   2.35075
 Alpha virt. eigenvalues --    2.35253   2.35530   2.36126   2.37219   2.37587
 Alpha virt. eigenvalues --    2.38122   2.38930   2.39231   2.39442   2.40057
 Alpha virt. eigenvalues --    2.40387   2.40682   2.41219   2.41376   2.41626
 Alpha virt. eigenvalues --    2.42400   2.42905   2.43248   2.43649   2.43861
 Alpha virt. eigenvalues --    2.44240   2.44672   2.45018   2.46007   2.46699
 Alpha virt. eigenvalues --    2.47060   2.47790   2.48347   2.48816   2.49537
 Alpha virt. eigenvalues --    2.50272   2.50571   2.51114   2.51796   2.51896
 Alpha virt. eigenvalues --    2.52616   2.52899   2.53083   2.53391   2.53708
 Alpha virt. eigenvalues --    2.53817   2.54542   2.54608   2.55411   2.55465
 Alpha virt. eigenvalues --    2.55670   2.56300   2.56731   2.56957   2.57072
 Alpha virt. eigenvalues --    2.57309   2.57781   2.57969   2.58391   2.58742
 Alpha virt. eigenvalues --    2.58873   2.59613   2.59947   2.60201   2.60639
 Alpha virt. eigenvalues --    2.60922   2.61503   2.61701   2.62190   2.62288
 Alpha virt. eigenvalues --    2.63333   2.63425   2.63911   2.64172   2.64374
 Alpha virt. eigenvalues --    2.64501   2.64863   2.65496   2.65619   2.66282
 Alpha virt. eigenvalues --    2.66786   2.67100   2.67253   2.67445   2.67616
 Alpha virt. eigenvalues --    2.67921   2.68608   2.68995   2.69184   2.69514
 Alpha virt. eigenvalues --    2.70219   2.70463   2.70755   2.70839   2.71359
 Alpha virt. eigenvalues --    2.71680   2.72059   2.72191   2.72837   2.72926
 Alpha virt. eigenvalues --    2.73544   2.73765   2.74401   2.74499   2.74944
 Alpha virt. eigenvalues --    2.75184   2.75500   2.76012   2.76135   2.76279
 Alpha virt. eigenvalues --    2.77155   2.77692   2.77843   2.78239   2.78717
 Alpha virt. eigenvalues --    2.79057   2.79362   2.80209   2.80749   2.81171
 Alpha virt. eigenvalues --    2.81696   2.81921   2.82194   2.82838   2.83181
 Alpha virt. eigenvalues --    2.83308   2.84846   2.85406   2.85576   2.86935
 Alpha virt. eigenvalues --    2.87322   2.87446   2.88475   2.88524   2.89037
 Alpha virt. eigenvalues --    2.89287   2.89621   2.90256   2.90737   2.91157
 Alpha virt. eigenvalues --    2.91340   2.91681   2.92562   2.92840   2.93145
 Alpha virt. eigenvalues --    2.93662   2.93940   2.94055   2.95118   2.95609
 Alpha virt. eigenvalues --    2.97508   2.98432   2.99591   2.99733   3.00737
 Alpha virt. eigenvalues --    3.02012   3.02879   3.03477   3.04493   3.07799
 Alpha virt. eigenvalues --    3.08212   3.10167   3.10419   3.11092   3.12836
 Alpha virt. eigenvalues --    3.13662   3.14745   3.16314   3.17277   3.18859
 Alpha virt. eigenvalues --    3.19554   3.20594   3.21167   3.23045   3.24219
 Alpha virt. eigenvalues --    3.25550   3.26429   3.28213   3.29232   3.32247
 Alpha virt. eigenvalues --    3.34147   3.34806   3.38150   3.38834   3.42757
 Alpha virt. eigenvalues --    3.43451   3.46404   3.47974   3.48674   3.49353
 Alpha virt. eigenvalues --    3.53429   3.55042   3.70455   4.00933   4.01634
 Alpha virt. eigenvalues --    4.01906   4.02241   4.02831   4.03499   4.04321
 Alpha virt. eigenvalues --    4.04767   4.05994   4.06390   4.07104   4.08028
 Alpha virt. eigenvalues --    4.08266   4.08708   4.09635   4.10026   4.10746
 Alpha virt. eigenvalues --    4.11382   4.11572   4.12367   4.13212   4.14791
 Alpha virt. eigenvalues --    4.16020   4.16174   4.16463   4.17571   4.18845
 Alpha virt. eigenvalues --    4.19105   4.19606   4.20217   4.21196   4.21937
 Alpha virt. eigenvalues --    4.22491   4.23772   4.24844   4.25070   4.25821
 Alpha virt. eigenvalues --    4.26426   4.26767   4.27047   4.27393   4.27854
 Alpha virt. eigenvalues --    4.28279   4.29001   4.29373   4.30003   4.30844
 Alpha virt. eigenvalues --    4.32104   4.33149   4.33857   4.34608   4.36685
 Alpha virt. eigenvalues --    4.38079   4.38499   4.39185   4.39593   4.41446
 Alpha virt. eigenvalues --    4.41575   4.42179   4.43299   4.43759   4.45411
 Alpha virt. eigenvalues --    4.46650   4.47753   4.48481   4.50393   4.51777
 Alpha virt. eigenvalues --    4.52469   4.54710   4.56803   4.57738   4.58547
 Alpha virt. eigenvalues --    4.59376   4.60435   4.62073   4.63847   4.64708
 Alpha virt. eigenvalues --    4.66953   4.67068   4.73213   4.77508   4.79428
 Alpha virt. eigenvalues --    4.80238   4.81402   4.84722   4.85264   4.88920
 Alpha virt. eigenvalues --    4.91234   4.93276   4.98244   5.02175   5.04393
 Alpha virt. eigenvalues --    5.06458   5.12468   5.15892   5.28150
          Condensed to atoms (all electrons):
 Mulliken charges:
               1
     1  C    0.006651
     2  C   -0.384504
     3  C    0.007397
     4  C   -0.060649
     5  C    0.009336
     6  C    0.091817
     7  C    0.009274
     8  C    0.003782
     9  C    0.039045
    10  C    0.091146
    11  C    0.083049
    12  C    0.042471
    13  C    0.006615
    14  C   -0.027831
    15  C    0.009720
    16  C   -0.023145
    17  C    0.042652
    18  C    0.054077
    19  C    0.047243
    20  C    0.034636
    21  C    0.008279
    22  C    0.012577
    23  C    0.090278
    24  C    0.082683
    25  C    0.088653
    26  C    0.091713
    27  C   -0.375902
    28  C   -0.377225
    29  C    0.087486
    30  C    0.089567
    31  C    0.090814
    32  C    0.090336
    33  C    0.004982
    34  C   -0.021794
    35  C    0.039823
    36  C    0.071377
    37  C    0.064586
    38  C    0.093654
    39  C    0.119786
    40  C    0.118732
    41  C    0.076177
    42  C    0.134827
    43  C    0.080617
    44  C    0.139250
    45  C    0.096245
    46  C    0.020314
    47  C    0.126444
    48  C    0.093242
    49  C   -0.378649
    50  C   -0.365108
    51  C    0.088194
    52  C    0.096459
    53  C    0.006458
    54  C    0.015263
    55  C    0.009975
    56  C    0.007076
    57  C    0.009084
    58  C    0.010797
    59  C    0.089859
    60  C    0.090753
    61  C   -0.375900
    62  C   -0.375498
    63  C    0.124163
    64  C    0.126275
    65  C    0.129492
    66  C    0.127480
    67  C    0.123046
    68  C    0.126006
    69  C   -0.374974
    70  C   -0.373154
    71  C    0.096051
    72  C    0.085781
    73  C    0.015197
    74  C    0.046152
    75  C    0.021445
    76  C    0.065956
    77  C   -0.024781
    78  C   -0.360546
    79  C   -0.362801
    80  C   -0.351720
    81  C    0.110833
    82  C    0.162622
    83  C    0.040100
    84  C    0.047634
    85  Cl   0.024719
    86  Cl   0.024135
    87  Cl   0.016876
    88  Cl   0.024983
    89  Cl   0.025893
    90  Cl   0.021146
    91  Cl   0.016206
    92  Cl   0.001621
    93  Cl   0.011338
    94  Cl  -0.004434
    95  Cl  -0.003045
    96  Cl  -0.008764
 Sum of Mulliken charges =  -0.00000
 Mulliken charges with hydrogens summed into heavy atoms:
               1
     1  C    0.006651
     2  C   -0.384504
     3  C    0.007397
     4  C   -0.060649
     5  C    0.009336
     6  C    0.091817
     7  C    0.009274
     8  C    0.003782
     9  C    0.039045
    10  C    0.091146
    11  C    0.083049
    12  C    0.042471
    13  C    0.006615
    14  C   -0.027831
    15  C    0.009720
    16  C   -0.023145
    17  C    0.042652
    18  C    0.054077
    19  C    0.047243
    20  C    0.034636
    21  C    0.008279
    22  C    0.012577
    23  C    0.090278
    24  C    0.082683
    25  C    0.088653
    26  C    0.091713
    27  C   -0.375902
    28  C   -0.377225
    29  C    0.087486
    30  C    0.089567
    31  C    0.090814
    32  C    0.090336
    33  C    0.004982
    34  C   -0.021794
    35  C    0.039823
    36  C    0.071377
    37  C    0.064586
    38  C    0.093654
    39  C    0.119786
    40  C    0.118732
    41  C    0.076177
    42  C    0.134827
    43  C    0.080617
    44  C    0.139250
    45  C    0.096245
    46  C    0.020314
    47  C    0.126444
    48  C    0.093242
    49  C   -0.378649
    50  C   -0.365108
    51  C    0.088194
    52  C    0.096459
    53  C    0.006458
    54  C    0.015263
    55  C    0.009975
    56  C    0.007076
    57  C    0.009084
    58  C    0.010797
    59  C    0.089859
    60  C    0.090753
    61  C   -0.375900
    62  C   -0.375498
    63  C    0.124163
    64  C    0.126275
    65  C    0.129492
    66  C    0.127480
    67  C    0.123046
    68  C    0.126006
    69  C   -0.374974
    70  C   -0.373154
    71  C    0.096051
    72  C    0.085781
    73  C    0.015197
    74  C    0.046152
    75  C    0.021445
    76  C    0.065956
    77  C   -0.024781
    78  C   -0.360546
    79  C   -0.362801
    80  C   -0.351720
    81  C    0.110833
    82  C    0.162622
    83  C    0.040100
    84  C    0.047634
    85  Cl   0.024719
    86  Cl   0.024135
    87  Cl   0.016876
    88  Cl   0.024983
    89  Cl   0.025893
    90  Cl   0.021146
    91  Cl   0.016206
    92  Cl   0.001621
    93  Cl   0.011338
    94  Cl  -0.004434
    95  Cl  -0.003045
    96  Cl  -0.008764
 Electronic spatial extent (au):  <R**2>=          61877.9752
 Charge=              0.0000 electrons
 Dipole moment (field-independent basis, Debye):
    X=              1.7452    Y=             -3.0746    Z=              0.3307  Tot=              3.5508
 Quadrupole moment (field-independent basis, Debye-Ang):
   XX=           -679.7588   YY=           -621.1797   ZZ=           -608.0012
   XY=              5.2949   XZ=             -2.2231   YZ=              3.3313
 Traceless Quadrupole moment (field-independent basis, Debye-Ang):
   XX=            -43.4455   YY=             15.1335   ZZ=             28.3120
   XY=              5.2949   XZ=             -2.2231   YZ=              3.3313
 Octapole moment (field-independent basis, Debye-Ang**2):
  XXX=             67.5599  YYY=            -69.0302  ZZZ=             11.4790  XYY=             54.7057
  XXY=             -2.3112  XXZ=             -6.6019  XZZ=              7.0090  YZZ=              2.7683
  YYZ=             26.7998  XYZ=              1.0676
 Hexadecapole moment (field-independent basis, Debye-Ang**3):
 XXXX=         -37690.7239 YYYY=         -27710.9024 ZZZZ=         -22269.5006 XXXY=             11.8011
 XXXZ=             93.4508 YYYX=             89.4361 YYYZ=             65.1055 ZZZX=            -55.2816
 ZZZY=            -28.7286 XXYY=         -11183.2351 XXZZ=         -10182.0068 YYZZ=          -8275.8447
 XXYZ=            -23.8343 YYXZ=            -66.6011 ZZXY=            -17.9325
 N-N= 2.411397344299D+04 E-N=-6.874718924137D+04  KE= 8.676604318821D+03
 No NMR shielding tensors so no spin-rotation constants.
 Leave Link  601 at Mon Jun 27 21:18:08 2022, MaxMem=  1342177280 cpu:              26.1 elap:               1.3
 (Enter /home/mkliu/g16/l9999.exe)
 1\1\GINC-NODE04\FOpt\RB3LYP\6-31G(d,p)\C84Cl12\MKLIU\27-Jun-2022\0\\#P
  opt b3lyp/6-31G(d, p) empiricaldispersion=GD3\\force\\0,1\C,8.2670744
 578,18.9012578876,10.5481125155\C,12.5099192496,19.98747458,8.91131433
 64\C,8.2618378719,26.8624651015,10.5591235269\C,12.3212331226,25.63183
 95866,8.9555519259\C,7.9463502855,18.9452771818,9.1606310902\C,11.9004
 923018,19.554775471,10.2239968973\C,7.9453417314,26.8136025883,9.16205
 28721\C,11.8871263441,26.1940431922,10.2079740647\C,8.95704929,19.1119
 419817,8.1693226527\C,12.1672882582,20.1889248875,11.3942339917\C,12.1
 439832645,25.5528078589,11.3926067021\C,8.9621381249,26.649688072,8.17
 51942813\C,10.2975809325,19.0584405199,8.6231868918\C,10.2927227998,26
 .7281530521,8.6380080093\C,10.6212110958,18.9507978543,10.003610852\C,
 10.6119317208,26.8545373757,10.0174711413\C,9.6091726256,18.9639692094
 ,11.0043996339\C,9.6069112111,26.8233444643,11.0194708857\C,9.88353360
 29,19.6501338593,12.2455025245\C,9.8785946863,26.1218399008,12.2578818
 658\C,8.7934624074,20.2527383982,12.9334514374\C,8.7920943805,25.51313
 05098,12.9382444416\C,7.4537988164,20.1759343987,12.4323230946\C,7.452
 0348599,25.5813337921,12.4373133472\C,7.1966274467,19.5106819774,11.28
 07178457\C,7.1952249392,26.2477348328,11.2830846707\C,6.0790916379,19.
 9322116886,10.3501928044\C,6.0868822781,25.8180577942,10.3440748683\C,
 6.6511417714,19.5280544196,9.0096724574\C,6.6687065973,26.2168136906,9
 .006201842\C,6.349108325,20.1941265458,7.8730939947\C,6.3723352511,25.
 5495333142,7.858370812\C,7.3191102062,20.3117470976,6.8235799669\C,7.3
 439696436,25.4394963573,6.821250115\C,8.6604882299,19.8617963359,6.975
 2102362\C,8.6728358974,25.887243325,6.9827167214\C,9.7285977958,20.591
 2474071,6.3033600437\C,9.7578241624,25.1536782735,6.3268634674\C,11.07
 59247571,20.5464357455,6.8479813373\C,12.7257388645,22.1725090426,7.76
 83705614\C,12.7223796454,23.5598901653,7.7617491242\C,11.0386935583,25
 .1653393188,6.8512963401\C,11.338490151,19.7712293912,7.9458975819\C,1
 2.8955116213,21.4516706437,8.9508694347\C,12.8827136056,24.2949452695,
 8.9475294418\C,11.339294954,25.9634595481,7.9986278272\C,13.1075997703
 ,22.1625647529,10.1562913835\C,13.1122592909,23.5764758812,10.15815573
 02\C,13.0946878287,21.3886764072,11.4821463537\C,13.0783551857,24.3541
 519882,11.4747619016\C,12.4243969122,22.1953384335,12.5792469471\C,12.
 4250318485,23.5518718839,12.5776462128\C,11.1598571464,20.2569814295,1
 2.4152045975\C,11.1573922185,25.5051447452,12.4199541255\C,11.31614533
 86,21.4746618365,13.1344433056\C,11.3097202707,24.2713682605,13.121078
 5409\C,8.9476401211,21.4786979584,13.6426326652\C,8.9468499894,24.2725
 85384,13.629186275\C,7.7134483532,22.2001794003,13.5742368645\C,7.7094
 62644,23.5566007125,13.5767242908\C,6.6588124043,21.4014779024,12.8346
 886846\C,6.6584229766,24.3539259528,12.8344880834\C,6.1777901815,22.17
 01947313,11.584041821\C,6.1804544055,23.5840183284,11.5826981528\C,5.8
 868017004,21.465340898,10.3960473433\C,5.8948729994,24.287344697,10.39
 21676741\C,5.5843295875,22.1700774727,9.2068719971\C,5.5913869033,23.5
 824269278,9.2030064877\C,5.4142793101,21.3917367791,7.8807893511\C,5.4
 359605408,24.356875487,7.8707817222\C,5.9503842158,22.1900781524,6.710
 9384794\C,5.9680931763,23.5513626187,6.708205847\C,7.0115523001,21.478
 0579334,6.0751715176\C,7.0335615082,24.2519091059,6.0500437244\C,8.043
 1543886,22.164827396,5.4149262517\C,8.0189315261,23.5851595421,5.36572
 96565\C,9.3847022284,21.6965552249,5.4978032172\C,9.4218617178,24.1292
 760499,5.2461742289\C,12.0954623792,21.6199497806,6.5006494068\C,12.08
 58361001,24.1168304244,6.5016322737\C,10.2560048767,22.8603550268,5.40
 00636051\C,11.487602055,22.869103702,5.9164491888\C,10.1981588174,22.1
 518554854,13.6978484888\C,10.1966854412,23.5963006314,13.6948856216\Cl
 ,4.4997221654,19.0807492792,10.7415750972\Cl,3.6510259476,20.932098397
 1,7.6511260986\Cl,3.6676830024,24.814060663,7.6346061445\Cl,4.50181741
 29,26.6680817609,10.7161802422\Cl,5.2264641269,20.9895745733,13.909486
 6233\Cl,5.2140008875,24.7623260912,13.8985121781\Cl,14.8109371995,20.9
 01675941,11.9407381367\Cl,14.7864886781,24.9021034662,11.9380570418\Cl
 ,13.9496724183,18.9159723243,8.4682845052\Cl,13.383081199,20.919814753
 ,5.3497575265\Cl,9.6822856263,24.9055781513,3.5781612145\Cl,13.3703333
 04,24.8918988299,5.3970227844\\Version=ES64L-G16RevA.03\State=1-A\HF=-
 8723.4259619\RMSD=8.145e-09\RMSF=2.209e-05\Dipole=-0.4045835,-0.307310
 4,1.3013374\Quadrupole=-27.7031408,19.7429327,7.960208,2.8921364,14.19
 92823,3.2517043\PG=C01 [X(C84Cl12)]\\@


 THE MOST SERIOUS THREAT TO THE SURVIVAL OF MANKIND IS NOT NOW
 IGNORANCE IN THE TRADITIONAL SENSE,
 BUT A MORALLY NEUTRAL, AN INSENSITIVE OR INHIBITED HUMAN INTELLIGENCE.

                     -- MARGO JEFFERSON IN NEWSWEEK, SEPTEMBER 2, 1974
 Job cpu time:       1 days 13 hours  3 minutes 39.5 seconds.
 Elapsed time:       0 days  1 hours 32 minutes 46.9 seconds.
 File lengths (MBytes):  RWF=   1359 Int=      0 D2E=      0 Chk=    170 Scr=      1
 Normal termination of Gaussian 16 at Mon Jun 27 21:18:10 2022.
