 Entering Gaussian System, Link 0=g16
 Input=14_addons_C84_14_Cl22_rank_6.gjf
 Output=14_addons_C84_14_Cl22_rank_6.log
 Initial command:
 /home/mkliu/g16/l1.exe "/data/scratch/Gau-175820.inp" -scrdir="/data/scratch/"
 Entering Link 1 = /home/mkliu/g16/l1.exe PID=    175821.
  
 Copyright (c) 1988,1990,1992,1993,1995,1998,2003,2009,2016,
            Gaussian, Inc.  All Rights Reserved.
  
 This is part of the Gaussian(R) 16 program.  It is based on
 the Gaussian(R) 09 system (copyright 2009, Gaussian, Inc.),
 the Gaussian(R) 03 system (copyright 2003, Gaussian, Inc.),
 the Gaussian(R) 98 system (copyright 1998, Gaussian, Inc.),
 the Gaussian(R) 94 system (copyright 1995, Gaussian, Inc.),
 the Gaussian 92(TM) system (copyright 1992, Gaussian, Inc.),
 the Gaussian 90(TM) system (copyright 1990, Gaussian, Inc.),
 the Gaussian 88(TM) system (copyright 1988, Gaussian, Inc.),
 the Gaussian 86(TM) system (copyright 1986, Carnegie Mellon
 University), and the Gaussian 82(TM) system (copyright 1983,
 Carnegie Mellon University). Gaussian is a federally registered
 trademark of Gaussian, Inc.
  
 This software contains proprietary and confidential information,
 including trade secrets, belonging to Gaussian, Inc.
  
 This software is provided under written license and may be
 used, copied, transmitted, or stored only in accord with that
 written license.
  
 The following legend is applicable only to US Government
 contracts under FAR:
  
                    RESTRICTED RIGHTS LEGEND
  
 Use, reproduction and disclosure by the US Government is
 subject to restrictions as set forth in subparagraphs (a)
 and (c) of the Commercial Computer Software - Restricted
 Rights clause in FAR 52.227-19.
  
 Gaussian, Inc.
 340 Quinnipiac St., Bldg. 40, Wallingford CT 06492
  
  
 ---------------------------------------------------------------
 Warning -- This program may not be used in any manner that
 competes with the business of Gaussian, Inc. or will provide
 assistance to any competitor of Gaussian, Inc.  The licensee
 of this program is prohibited from giving any competitor of
 Gaussian, Inc. access to this program.  By using this program,
 the user acknowledges that Gaussian, Inc. is engaged in the
 business of creating and licensing software in the field of
 computational chemistry and represents and warrants to the
 licensee that it is not a competitor of Gaussian, Inc. and that
 it will not use this program in any manner prohibited above.
 ---------------------------------------------------------------
  

 Cite this work as:
 Gaussian 16, Revision A.03,
 M. J. Frisch, G. W. Trucks, H. B. Schlegel, G. E. Scuseria, 
 M. A. Robb, J. R. Cheeseman, G. Scalmani, V. Barone, 
 G. A. Petersson, H. Nakatsuji, X. Li, M. Caricato, A. V. Marenich, 
 J. Bloino, B. G. Janesko, R. Gomperts, B. Mennucci, H. P. Hratchian, 
 J. V. Ortiz, A. F. Izmaylov, J. L. Sonnenberg, D. Williams-Young, 
 F. Ding, F. Lipparini, F. Egidi, J. Goings, B. Peng, A. Petrone, 
 T. Henderson, D. Ranasinghe, V. G. Zakrzewski, J. Gao, N. Rega, 
 G. Zheng, W. Liang, M. Hada, M. Ehara, K. Toyota, R. Fukuda, 
 J. Hasegawa, M. Ishida, T. Nakajima, Y. Honda, O. Kitao, H. Nakai, 
 T. Vreven, K. Throssell, J. A. Montgomery, Jr., J. E. Peralta, 
 F. Ogliaro, M. J. Bearpark, J. J. Heyd, E. N. Brothers, K. N. Kudin, 
 V. N. Staroverov, T. A. Keith, R. Kobayashi, J. Normand, 
 K. Raghavachari, A. P. Rendell, J. C. Burant, S. S. Iyengar, 
 J. Tomasi, M. Cossi, J. M. Millam, M. Klene, C. Adamo, R. Cammi, 
 J. W. Ochterski, R. L. Martin, K. Morokuma, O. Farkas, 
 J. B. Foresman, and D. J. Fox, Gaussian, Inc., Wallingford CT, 2016.
 
 ******************************************
 Gaussian 16:  ES64L-G16RevA.03 25-Dec-2016
                27-Jun-2022 
 ******************************************
 %mem=10GB
 %chk=14_addons_C84_14_Cl22_rank_6.chk
 %nprocshared=24
 Will use up to   24 processors via shared memory.
 ------------------------------------------------
 #P opt b3lyp/6-31G(d, p) empiricaldispersion=GD3
 ------------------------------------------------
 1/18=20,19=15,26=3,38=1/1,3;
 2/9=110,12=2,17=6,18=5,40=1/2;
 3/5=1,6=6,7=101,11=2,25=1,30=1,71=1,74=-5,124=31/1,2,3;
 4//1;
 5/5=2,38=5/2;
 6/7=2,8=2,9=2,10=2,28=1/1;
 7//1,2,3,16;
 1/18=20,19=15,26=3/3(2);
 2/9=110/2;
 99//99;
 2/9=110/2;
 3/5=1,6=6,7=101,11=2,25=1,30=1,71=1,74=-5,124=31/1,2,3;
 4/5=5,16=3,69=1/1;
 5/5=2,38=5/2;
 7//1,2,3,16;
 1/18=20,19=15,26=3/3(-5);
 2/9=110/2;
 6/7=2,8=2,9=2,10=2,19=2,28=1/1;
 99/9=1/99;
 Leave Link    1 at Mon Jun 27 05:55:34 2022, MaxMem=  1342177280 cpu:               0.7 elap:               0.1
 (Enter /home/mkliu/g16/l101.exe)
 -----
 force
 -----
 Symbolic Z-matrix:
 Charge =  0 Multiplicity = 1
 C                     8.23527   18.66731   10.58186 
 C                     12.4702   20.02149   8.91563 
 C                     8.27295   26.83659   10.52017 
 C                     12.4935   25.74851   8.9035 
 C                     7.97017   18.9826   9.13325 
 C                     11.86042   19.60952   10.21706 
 C                     7.95883   26.78795   9.13599 
 C                     11.88742   26.17327   10.20826 
 C                     8.95452   19.15284   8.14963 
 C                     12.11751   20.26007   11.39084 
 C                     12.14587   25.53309   11.37218 
 C                     8.959     26.60663   8.15447 
 C                     10.30314   19.09683   8.59607 
 C                     10.28954   26.65637   8.61854 
 C                     10.6058   19.01757   10.01404 
 C                     10.6099   26.7743   9.98815 
 C                     9.62855   19.02572   11.00181 
 C                     9.60458   26.77182   10.98247 
 C                     9.89844   19.68613   12.2094 
 C                     9.86959   26.0929   12.21219 
 C                     8.77882   20.08646   13.12878 
 C                     8.7887    25.50231   12.88831 
 C                     7.47656   20.19543   12.38342 
 C                     7.4565    25.57351   12.39294 
 C                     7.22588   19.54786   11.25801 
 C                     7.20066   26.23984   11.24114 
 C                     6.13555   19.98691   10.3235 
 C                     6.09471   25.81614   10.31788 
 C                     6.72634   19.59744   9.00903 
 C                     6.67036   26.21047   8.99078 
 C                     6.40026   20.26022   7.85876 
 C                     6.36758   25.54541   7.85355 
 C                     7.33564   20.3541   6.81586 
 C                     7.32998   25.43351   6.81047 
 C                     8.66518   19.89073   6.95847 
 C                     8.66629   25.86735   6.96714 
 C                     9.72053   20.60301   6.27675 
 C                     9.72252   25.13975   6.30082 
 C                     11.04756   20.58747   6.82785 
 C                     12.67049   22.18776   7.80096 
 C                     12.71191   23.58556   7.78634 
 C                     11.05501   25.17116   6.85984 
 C                     11.3145   19.78296   7.95993 
 C                     12.84332   21.47752   8.97859 
 C                     12.87125   24.2902   8.95925 
 C                     11.3253   25.94279   7.95126 
 C                     13.07002   22.17975   10.17202 
 C                     13.07355   23.5833   10.16035 
 C                     13.07415   21.4118   11.48708 
 C                     13.06501   24.3462   11.46838 
 C                     12.43151   22.2029   12.58654 
 C                     12.3926   23.5373   12.54489 
 C                     11.13796   20.28504   12.39212 
 C                     11.13631   25.46819   12.38707 
 C                     11.4232   21.39626   13.36171 
 C                     11.28694   24.27389   13.1049 
 C                     8.96228   21.50212   13.60108 
 C                     8.93999   24.2634   13.57446 
 C                     7.74182   22.2014   13.48466 
 C                     7.71982   23.55992   13.49903 
 C                     6.6953    21.42023   12.76179 
 C                     6.66839   24.354    12.78191 
 C                     6.24387   22.19376   11.52809 
 C                     6.23468   23.59615   11.53076 
 C                     5.95899   21.49842   10.34982 
 C                     5.94516   24.29542   10.35205 
 C                     5.6488    22.19596   9.17128 
 C                     5.64299   23.59713   9.17171 
 C                     5.44686   21.42271   7.87033 
 C                     5.43159   24.36778   7.86664 
 C                     5.94627   22.21697   6.69718 
 C                     5.94518   23.57611   6.69774 
 C                     7.00787   21.51713   6.04842 
 C                     7.00427   24.28109   6.0503 
 C                     8.0151    22.18274   5.38331 
 C                     8.01986   23.61166   5.37897 
 C                     9.36917   21.72046   5.48459 
 C                     9.3661    24.06353   5.47062 
 C                     11.86426   21.72727   6.6826 
 C                     12.07639   24.11469   6.52126 
 C                     10.19799   22.87577   5.40798 
 C                     11.44572   22.86289   5.98486 
 C                     10.16961   22.16107   13.67365 
 C                     10.17357   23.58456   13.64246 
 Cl                    4.55869   19.19919   10.68758 
 Cl                    3.71552   20.95526   7.74161 
 Cl                    3.69312   24.80274   7.73417 
 Cl                    4.51013   26.57125   10.69434 
 Cl                    5.24778   21.04323   13.7663 
 Cl                    5.21511   24.70809   13.77653 
 Cl                    14.76495   20.90478   11.85874 
 Cl                    14.75585   24.79653   11.90195 
 Cl                    13.91746   19.04187   8.46456 
 Cl                    13.91627   26.74559   8.42664 
 Cl                    7.93231   16.90928   10.92455 
 Cl                    13.31154   24.79364   5.38827 
 Cl                    8.66314   18.93097   14.51335 
 Cl                    12.14688   20.75314   14.903 
 
 ITRead=  0  0  0  0  0  0  0  0  0  0  0  0  0  0  0  0  0  0  0  0
 ITRead=  0  0  0  0  0  0  0  0  0  0  0  0  0  0  0  0  0  0  0  0
 ITRead=  0  0  0  0  0  0  0  0  0  0  0  0  0  0  0  0  0  0  0  0
 ITRead=  0  0  0  0  0  0  0  0  0  0  0  0  0  0  0  0  0  0  0  0
 ITRead=  0  0  0  0  0  0  0  0  0  0  0  0  0  0  0  0  0  0
 MicOpt= -1 -1 -1 -1 -1 -1 -1 -1 -1 -1 -1 -1 -1 -1 -1 -1 -1 -1 -1 -1
 MicOpt= -1 -1 -1 -1 -1 -1 -1 -1 -1 -1 -1 -1 -1 -1 -1 -1 -1 -1 -1 -1
 MicOpt= -1 -1 -1 -1 -1 -1 -1 -1 -1 -1 -1 -1 -1 -1 -1 -1 -1 -1 -1 -1
 MicOpt= -1 -1 -1 -1 -1 -1 -1 -1 -1 -1 -1 -1 -1 -1 -1 -1 -1 -1 -1 -1
 MicOpt= -1 -1 -1 -1 -1 -1 -1 -1 -1 -1 -1 -1 -1 -1 -1 -1 -1 -1
 NAtoms=     98 NQM=       98 NQMF=       0 NMMI=      0 NMMIF=      0
                NMic=       0 NMicF=      0.
                    Isotopes and Nuclear Properties:
 (Nuclear quadrupole moments (NQMom) in fm**2, nuclear magnetic moments (NMagM)
  in nuclear magnetons)

  Atom         1           2           3           4           5           6           7           8           9          10
 IAtWgt=          12          12          12          12          12          12          12          12          12          12
 AtmWgt=  12.0000000  12.0000000  12.0000000  12.0000000  12.0000000  12.0000000  12.0000000  12.0000000  12.0000000  12.0000000
 NucSpn=           0           0           0           0           0           0           0           0           0           0
 AtZEff=  -0.0000000  -0.0000000  -0.0000000  -0.0000000  -0.0000000  -0.0000000  -0.0000000  -0.0000000  -0.0000000  -0.0000000
 NQMom=    0.0000000   0.0000000   0.0000000   0.0000000   0.0000000   0.0000000   0.0000000   0.0000000   0.0000000   0.0000000
 NMagM=    0.0000000   0.0000000   0.0000000   0.0000000   0.0000000   0.0000000   0.0000000   0.0000000   0.0000000   0.0000000
 AtZNuc=   6.0000000   6.0000000   6.0000000   6.0000000   6.0000000   6.0000000   6.0000000   6.0000000   6.0000000   6.0000000

  Atom        11          12          13          14          15          16          17          18          19          20
 IAtWgt=          12          12          12          12          12          12          12          12          12          12
 AtmWgt=  12.0000000  12.0000000  12.0000000  12.0000000  12.0000000  12.0000000  12.0000000  12.0000000  12.0000000  12.0000000
 NucSpn=           0           0           0           0           0           0           0           0           0           0
 AtZEff=  -0.0000000  -0.0000000  -0.0000000  -0.0000000  -0.0000000  -0.0000000  -0.0000000  -0.0000000  -0.0000000  -0.0000000
 NQMom=    0.0000000   0.0000000   0.0000000   0.0000000   0.0000000   0.0000000   0.0000000   0.0000000   0.0000000   0.0000000
 NMagM=    0.0000000   0.0000000   0.0000000   0.0000000   0.0000000   0.0000000   0.0000000   0.0000000   0.0000000   0.0000000
 AtZNuc=   6.0000000   6.0000000   6.0000000   6.0000000   6.0000000   6.0000000   6.0000000   6.0000000   6.0000000   6.0000000

  Atom        21          22          23          24          25          26          27          28          29          30
 IAtWgt=          12          12          12          12          12          12          12          12          12          12
 AtmWgt=  12.0000000  12.0000000  12.0000000  12.0000000  12.0000000  12.0000000  12.0000000  12.0000000  12.0000000  12.0000000
 NucSpn=           0           0           0           0           0           0           0           0           0           0
 AtZEff=  -0.0000000  -0.0000000  -0.0000000  -0.0000000  -0.0000000  -0.0000000  -0.0000000  -0.0000000  -0.0000000  -0.0000000
 NQMom=    0.0000000   0.0000000   0.0000000   0.0000000   0.0000000   0.0000000   0.0000000   0.0000000   0.0000000   0.0000000
 NMagM=    0.0000000   0.0000000   0.0000000   0.0000000   0.0000000   0.0000000   0.0000000   0.0000000   0.0000000   0.0000000
 AtZNuc=   6.0000000   6.0000000   6.0000000   6.0000000   6.0000000   6.0000000   6.0000000   6.0000000   6.0000000   6.0000000

  Atom        31          32          33          34          35          36          37          38          39          40
 IAtWgt=          12          12          12          12          12          12          12          12          12          12
 AtmWgt=  12.0000000  12.0000000  12.0000000  12.0000000  12.0000000  12.0000000  12.0000000  12.0000000  12.0000000  12.0000000
 NucSpn=           0           0           0           0           0           0           0           0           0           0
 AtZEff=  -0.0000000  -0.0000000  -0.0000000  -0.0000000  -0.0000000  -0.0000000  -0.0000000  -0.0000000  -0.0000000  -0.0000000
 NQMom=    0.0000000   0.0000000   0.0000000   0.0000000   0.0000000   0.0000000   0.0000000   0.0000000   0.0000000   0.0000000
 NMagM=    0.0000000   0.0000000   0.0000000   0.0000000   0.0000000   0.0000000   0.0000000   0.0000000   0.0000000   0.0000000
 AtZNuc=   6.0000000   6.0000000   6.0000000   6.0000000   6.0000000   6.0000000   6.0000000   6.0000000   6.0000000   6.0000000

  Atom        41          42          43          44          45          46          47          48          49          50
 IAtWgt=          12          12          12          12          12          12          12          12          12          12
 AtmWgt=  12.0000000  12.0000000  12.0000000  12.0000000  12.0000000  12.0000000  12.0000000  12.0000000  12.0000000  12.0000000
 NucSpn=           0           0           0           0           0           0           0           0           0           0
 AtZEff=  -0.0000000  -0.0000000  -0.0000000  -0.0000000  -0.0000000  -0.0000000  -0.0000000  -0.0000000  -0.0000000  -0.0000000
 NQMom=    0.0000000   0.0000000   0.0000000   0.0000000   0.0000000   0.0000000   0.0000000   0.0000000   0.0000000   0.0000000
 NMagM=    0.0000000   0.0000000   0.0000000   0.0000000   0.0000000   0.0000000   0.0000000   0.0000000   0.0000000   0.0000000
 AtZNuc=   6.0000000   6.0000000   6.0000000   6.0000000   6.0000000   6.0000000   6.0000000   6.0000000   6.0000000   6.0000000

  Atom        51          52          53          54          55          56          57          58          59          60
 IAtWgt=          12          12          12          12          12          12          12          12          12          12
 AtmWgt=  12.0000000  12.0000000  12.0000000  12.0000000  12.0000000  12.0000000  12.0000000  12.0000000  12.0000000  12.0000000
 NucSpn=           0           0           0           0           0           0           0           0           0           0
 AtZEff=  -0.0000000  -0.0000000  -0.0000000  -0.0000000  -0.0000000  -0.0000000  -0.0000000  -0.0000000  -0.0000000  -0.0000000
 NQMom=    0.0000000   0.0000000   0.0000000   0.0000000   0.0000000   0.0000000   0.0000000   0.0000000   0.0000000   0.0000000
 NMagM=    0.0000000   0.0000000   0.0000000   0.0000000   0.0000000   0.0000000   0.0000000   0.0000000   0.0000000   0.0000000
 AtZNuc=   6.0000000   6.0000000   6.0000000   6.0000000   6.0000000   6.0000000   6.0000000   6.0000000   6.0000000   6.0000000

  Atom        61          62          63          64          65          66          67          68          69          70
 IAtWgt=          12          12          12          12          12          12          12          12          12          12
 AtmWgt=  12.0000000  12.0000000  12.0000000  12.0000000  12.0000000  12.0000000  12.0000000  12.0000000  12.0000000  12.0000000
 NucSpn=           0           0           0           0           0           0           0           0           0           0
 AtZEff=  -0.0000000  -0.0000000  -0.0000000  -0.0000000  -0.0000000  -0.0000000  -0.0000000  -0.0000000  -0.0000000  -0.0000000
 NQMom=    0.0000000   0.0000000   0.0000000   0.0000000   0.0000000   0.0000000   0.0000000   0.0000000   0.0000000   0.0000000
 NMagM=    0.0000000   0.0000000   0.0000000   0.0000000   0.0000000   0.0000000   0.0000000   0.0000000   0.0000000   0.0000000
 AtZNuc=   6.0000000   6.0000000   6.0000000   6.0000000   6.0000000   6.0000000   6.0000000   6.0000000   6.0000000   6.0000000

  Atom        71          72          73          74          75          76          77          78          79          80
 IAtWgt=          12          12          12          12          12          12          12          12          12          12
 AtmWgt=  12.0000000  12.0000000  12.0000000  12.0000000  12.0000000  12.0000000  12.0000000  12.0000000  12.0000000  12.0000000
 NucSpn=           0           0           0           0           0           0           0           0           0           0
 AtZEff=  -0.0000000  -0.0000000  -0.0000000  -0.0000000  -0.0000000  -0.0000000  -0.0000000  -0.0000000  -0.0000000  -0.0000000
 NQMom=    0.0000000   0.0000000   0.0000000   0.0000000   0.0000000   0.0000000   0.0000000   0.0000000   0.0000000   0.0000000
 NMagM=    0.0000000   0.0000000   0.0000000   0.0000000   0.0000000   0.0000000   0.0000000   0.0000000   0.0000000   0.0000000
 AtZNuc=   6.0000000   6.0000000   6.0000000   6.0000000   6.0000000   6.0000000   6.0000000   6.0000000   6.0000000   6.0000000

  Atom        81          82          83          84          85          86          87          88          89          90
 IAtWgt=          12          12          12          12          35          35          35          35          35          35
 AtmWgt=  12.0000000  12.0000000  12.0000000  12.0000000  34.9688527  34.9688527  34.9688527  34.9688527  34.9688527  34.9688527
 NucSpn=           0           0           0           0           3           3           3           3           3           3
 AtZEff=  -0.0000000  -0.0000000  -0.0000000  -0.0000000  -0.0000000  -0.0000000  -0.0000000  -0.0000000  -0.0000000  -0.0000000
 NQMom=    0.0000000   0.0000000   0.0000000   0.0000000  -8.1650000  -8.1650000  -8.1650000  -8.1650000  -8.1650000  -8.1650000
 NMagM=    0.0000000   0.0000000   0.0000000   0.0000000   0.8218740   0.8218740   0.8218740   0.8218740   0.8218740   0.8218740
 AtZNuc=   6.0000000   6.0000000   6.0000000   6.0000000  17.0000000  17.0000000  17.0000000  17.0000000  17.0000000  17.0000000

  Atom        91          92          93          94          95          96          97          98
 IAtWgt=          35          35          35          35          35          35          35          35
 AtmWgt=  34.9688527  34.9688527  34.9688527  34.9688527  34.9688527  34.9688527  34.9688527  34.9688527
 NucSpn=           3           3           3           3           3           3           3           3
 AtZEff=  -0.0000000  -0.0000000  -0.0000000  -0.0000000  -0.0000000  -0.0000000  -0.0000000  -0.0000000
 NQMom=   -8.1650000  -8.1650000  -8.1650000  -8.1650000  -8.1650000  -8.1650000  -8.1650000  -8.1650000
 NMagM=    0.8218740   0.8218740   0.8218740   0.8218740   0.8218740   0.8218740   0.8218740   0.8218740
 AtZNuc=  17.0000000  17.0000000  17.0000000  17.0000000  17.0000000  17.0000000  17.0000000  17.0000000
 Leave Link  101 at Mon Jun 27 05:55:34 2022, MaxMem=  1342177280 cpu:               6.7 elap:               0.3
 (Enter /home/mkliu/g16/l103.exe)

 GradGradGradGradGradGradGradGradGradGradGradGradGradGradGradGradGradGrad
 Berny optimization.
 Initialization pass.
                           ----------------------------
                           !    Initial Parameters    !
                           ! (Angstroms and Degrees)  !
 --------------------------                            --------------------------
 ! Name  Definition              Value          Derivative Info.                !
 --------------------------------------------------------------------------------
 ! R1    R(1,5)                  1.506          estimate D2E/DX2                !
 ! R2    R(1,17)                 1.4987         estimate D2E/DX2                !
 ! R3    R(1,25)                 1.5005         estimate D2E/DX2                !
 ! R4    R(1,95)                 1.8166         estimate D2E/DX2                !
 ! R5    R(2,6)                  1.4951         estimate D2E/DX2                !
 ! R6    R(2,43)                 1.5185         estimate D2E/DX2                !
 ! R7    R(2,44)                 1.5044         estimate D2E/DX2                !
 ! R8    R(2,93)                 1.8049         estimate D2E/DX2                !
 ! R9    R(3,7)                  1.4202         estimate D2E/DX2                !
 ! R10   R(3,18)                 1.4111         estimate D2E/DX2                !
 ! R11   R(3,26)                 1.4233         estimate D2E/DX2                !
 ! R12   R(4,8)                  1.5            estimate D2E/DX2                !
 ! R13   R(4,45)                 1.5075         estimate D2E/DX2                !
 ! R14   R(4,46)                 1.5196         estimate D2E/DX2                !
 ! R15   R(4,94)                 1.8016         estimate D2E/DX2                !
 ! R16   R(5,9)                  1.4019         estimate D2E/DX2                !
 ! R17   R(5,29)                 1.393          estimate D2E/DX2                !
 ! R18   R(6,10)                 1.3664         estimate D2E/DX2                !
 ! R19   R(6,15)                 1.402          estimate D2E/DX2                !
 ! R20   R(7,12)                 1.413          estimate D2E/DX2                !
 ! R21   R(7,30)                 1.4194         estimate D2E/DX2                !
 ! R22   R(8,11)                 1.3533         estimate D2E/DX2                !
 ! R23   R(8,16)                 1.4289         estimate D2E/DX2                !
 ! R24   R(9,13)                 1.4217         estimate D2E/DX2                !
 ! R25   R(9,35)                 1.4308         estimate D2E/DX2                !
 ! R26   R(10,49)                1.5003         estimate D2E/DX2                !
 ! R27   R(10,53)                1.401          estimate D2E/DX2                !
 ! R28   R(11,50)                1.5043         estimate D2E/DX2                !
 ! R29   R(11,54)                1.433          estimate D2E/DX2                !
 ! R30   R(12,14)                1.41           estimate D2E/DX2                !
 ! R31   R(12,36)                1.429          estimate D2E/DX2                !
 ! R32   R(13,15)                1.4521         estimate D2E/DX2                !
 ! R33   R(13,43)                1.3778         estimate D2E/DX2                !
 ! R34   R(14,16)                1.4115         estimate D2E/DX2                !
 ! R35   R(14,46)                1.4238         estimate D2E/DX2                !
 ! R36   R(15,17)                1.3895         estimate D2E/DX2                !
 ! R37   R(16,18)                1.414          estimate D2E/DX2                !
 ! R38   R(17,19)                1.4026         estimate D2E/DX2                !
 ! R39   R(18,20)                1.4295         estimate D2E/DX2                !
 ! R40   R(19,21)                1.503          estimate D2E/DX2                !
 ! R41   R(19,53)                1.3887         estimate D2E/DX2                !
 ! R42   R(20,22)                1.4051         estimate D2E/DX2                !
 ! R43   R(20,54)                1.4232         estimate D2E/DX2                !
 ! R44   R(21,23)                1.5044         estimate D2E/DX2                !
 ! R45   R(21,57)                1.5036         estimate D2E/DX2                !
 ! R46   R(21,97)                1.8071         estimate D2E/DX2                !
 ! R47   R(22,24)                1.4231         estimate D2E/DX2                !
 ! R48   R(22,58)                1.4243         estimate D2E/DX2                !
 ! R49   R(23,25)                1.3224         estimate D2E/DX2                !
 ! R50   R(23,61)                1.5012         estimate D2E/DX2                !
 ! R51   R(24,26)                1.355          estimate D2E/DX2                !
 ! R52   R(24,62)                1.5032         estimate D2E/DX2                !
 ! R53   R(25,27)                1.5016         estimate D2E/DX2                !
 ! R54   R(26,28)                1.5017         estimate D2E/DX2                !
 ! R55   R(27,29)                1.4928         estimate D2E/DX2                !
 ! R56   R(27,65)                1.522          estimate D2E/DX2                !
 ! R57   R(27,85)                1.7999         estimate D2E/DX2                !
 ! R58   R(28,30)                1.4994         estimate D2E/DX2                !
 ! R59   R(28,66)                1.5284         estimate D2E/DX2                !
 ! R60   R(28,88)                1.7952         estimate D2E/DX2                !
 ! R61   R(29,31)                1.367          estimate D2E/DX2                !
 ! R62   R(30,32)                1.3518         estimate D2E/DX2                !
 ! R63   R(31,33)                1.4041         estimate D2E/DX2                !
 ! R64   R(31,69)                1.5035         estimate D2E/DX2                !
 ! R65   R(32,34)                1.4236         estimate D2E/DX2                !
 ! R66   R(32,70)                1.5043         estimate D2E/DX2                !
 ! R67   R(33,35)                1.4152         estimate D2E/DX2                !
 ! R68   R(33,73)                1.4314         estimate D2E/DX2                !
 ! R69   R(34,36)                1.4137         estimate D2E/DX2                !
 ! R70   R(34,74)                1.4185         estimate D2E/DX2                !
 ! R71   R(35,37)                1.4442         estimate D2E/DX2                !
 ! R72   R(36,38)                1.4453         estimate D2E/DX2                !
 ! R73   R(37,39)                1.437          estimate D2E/DX2                !
 ! R74   R(37,77)                1.4141         estimate D2E/DX2                !
 ! R75   R(38,42)                1.4453         estimate D2E/DX2                !
 ! R76   R(38,78)                1.4052         estimate D2E/DX2                !
 ! R77   R(39,43)                1.4142         estimate D2E/DX2                !
 ! R78   R(39,79)                1.4097         estimate D2E/DX2                !
 ! R79   R(40,41)                1.3985         estimate D2E/DX2                !
 ! R80   R(40,44)                1.386          estimate D2E/DX2                !
 ! R81   R(40,79)                1.4535         estimate D2E/DX2                !
 ! R82   R(41,45)                1.3775         estimate D2E/DX2                !
 ! R83   R(41,80)                1.5114         estimate D2E/DX2                !
 ! R84   R(42,46)                1.3637         estimate D2E/DX2                !
 ! R85   R(42,80)                1.508          estimate D2E/DX2                !
 ! R86   R(44,47)                1.4031         estimate D2E/DX2                !
 ! R87   R(45,48)                1.4083         estimate D2E/DX2                !
 ! R88   R(47,48)                1.4036         estimate D2E/DX2                !
 ! R89   R(47,49)                1.5229         estimate D2E/DX2                !
 ! R90   R(48,50)                1.5143         estimate D2E/DX2                !
 ! R91   R(49,51)                1.4992         estimate D2E/DX2                !
 ! R92   R(49,91)                1.8039         estimate D2E/DX2                !
 ! R93   R(50,52)                1.5051         estimate D2E/DX2                !
 ! R94   R(50,92)                1.8027         estimate D2E/DX2                !
 ! R95   R(51,52)                1.3356         estimate D2E/DX2                !
 ! R96   R(51,55)                1.5061         estimate D2E/DX2                !
 ! R97   R(52,56)                1.4418         estimate D2E/DX2                !
 ! R98   R(53,55)                1.5021         estimate D2E/DX2                !
 ! R99   R(54,56)                1.4015         estimate D2E/DX2                !
 ! R100  R(55,83)                1.5012         estimate D2E/DX2                !
 ! R101  R(55,98)                1.8201         estimate D2E/DX2                !
 ! R102  R(56,84)                1.4155         estimate D2E/DX2                !
 ! R103  R(57,59)                1.4114         estimate D2E/DX2                !
 ! R104  R(57,83)                1.3774         estimate D2E/DX2                !
 ! R105  R(58,60)                1.4105         estimate D2E/DX2                !
 ! R106  R(58,84)                1.4097         estimate D2E/DX2                !
 ! R107  R(59,60)                1.3588         estimate D2E/DX2                !
 ! R108  R(59,61)                1.4926         estimate D2E/DX2                !
 ! R109  R(60,62)                1.5001         estimate D2E/DX2                !
 ! R110  R(61,63)                1.5245         estimate D2E/DX2                !
 ! R111  R(61,89)                1.8018         estimate D2E/DX2                !
 ! R112  R(62,64)                1.5257         estimate D2E/DX2                !
 ! R113  R(62,90)                1.7963         estimate D2E/DX2                !
 ! R114  R(63,64)                1.4024         estimate D2E/DX2                !
 ! R115  R(63,65)                1.3975         estimate D2E/DX2                !
 ! R116  R(64,66)                1.4008         estimate D2E/DX2                !
 ! R117  R(65,67)                1.4042         estimate D2E/DX2                !
 ! R118  R(66,68)                1.4043         estimate D2E/DX2                !
 ! R119  R(67,68)                1.4012         estimate D2E/DX2                !
 ! R120  R(67,69)                1.5268         estimate D2E/DX2                !
 ! R121  R(68,70)                1.5303         estimate D2E/DX2                !
 ! R122  R(69,71)                1.5022         estimate D2E/DX2                !
 ! R123  R(69,86)                1.7979         estimate D2E/DX2                !
 ! R124  R(70,72)                1.5023         estimate D2E/DX2                !
 ! R125  R(70,87)                1.7969         estimate D2E/DX2                !
 ! R126  R(71,72)                1.3591         estimate D2E/DX2                !
 ! R127  R(71,73)                1.4275         estimate D2E/DX2                !
 ! R128  R(72,74)                1.4275         estimate D2E/DX2                !
 ! R129  R(73,75)                1.3784         estimate D2E/DX2                !
 ! R130  R(74,76)                1.3893         estimate D2E/DX2                !
 ! R131  R(75,76)                1.4289         estimate D2E/DX2                !
 ! R132  R(75,77)                1.4344         estimate D2E/DX2                !
 ! R133  R(76,78)                1.423          estimate D2E/DX2                !
 ! R134  R(77,81)                1.4239         estimate D2E/DX2                !
 ! R135  R(78,81)                1.4515         estimate D2E/DX2                !
 ! R136  R(79,82)                1.397          estimate D2E/DX2                !
 ! R137  R(80,82)                1.5008         estimate D2E/DX2                !
 ! R138  R(80,96)                1.8084         estimate D2E/DX2                !
 ! R139  R(81,82)                1.3747         estimate D2E/DX2                !
 ! R140  R(83,84)                1.4238         estimate D2E/DX2                !
 ! A1    A(5,1,17)             112.5259         estimate D2E/DX2                !
 ! A2    A(5,1,25)             101.0796         estimate D2E/DX2                !
 ! A3    A(5,1,95)             110.7751         estimate D2E/DX2                !
 ! A4    A(17,1,25)            111.0257         estimate D2E/DX2                !
 ! A5    A(17,1,95)            109.4894         estimate D2E/DX2                !
 ! A6    A(25,1,95)            111.7613         estimate D2E/DX2                !
 ! A7    A(6,2,43)             101.1955         estimate D2E/DX2                !
 ! A8    A(6,2,44)             109.3549         estimate D2E/DX2                !
 ! A9    A(6,2,93)             113.2678         estimate D2E/DX2                !
 ! A10   A(43,2,44)            111.5389         estimate D2E/DX2                !
 ! A11   A(43,2,93)            111.5749         estimate D2E/DX2                !
 ! A12   A(44,2,93)            109.6872         estimate D2E/DX2                !
 ! A13   A(7,3,18)             121.7665         estimate D2E/DX2                !
 ! A14   A(7,3,26)             108.2228         estimate D2E/DX2                !
 ! A15   A(18,3,26)            121.72           estimate D2E/DX2                !
 ! A16   A(8,4,45)             110.0603         estimate D2E/DX2                !
 ! A17   A(8,4,46)             101.4347         estimate D2E/DX2                !
 ! A18   A(8,4,94)             113.116          estimate D2E/DX2                !
 ! A19   A(45,4,46)            109.8458         estimate D2E/DX2                !
 ! A20   A(45,4,94)            110.3207         estimate D2E/DX2                !
 ! A21   A(46,4,94)            111.7453         estimate D2E/DX2                !
 ! A22   A(1,5,9)              125.2176         estimate D2E/DX2                !
 ! A23   A(1,5,29)             109.5931         estimate D2E/DX2                !
 ! A24   A(9,5,29)             120.7153         estimate D2E/DX2                !
 ! A25   A(2,6,10)             122.6718         estimate D2E/DX2                !
 ! A26   A(2,6,15)             110.8099         estimate D2E/DX2                !
 ! A27   A(10,6,15)            119.5891         estimate D2E/DX2                !
 ! A28   A(3,7,12)             121.6581         estimate D2E/DX2                !
 ! A29   A(3,7,30)             108.3253         estimate D2E/DX2                !
 ! A30   A(12,7,30)            121.2829         estimate D2E/DX2                !
 ! A31   A(4,8,11)             122.4793         estimate D2E/DX2                !
 ! A32   A(4,8,16)             110.2644         estimate D2E/DX2                !
 ! A33   A(11,8,16)            120.1468         estimate D2E/DX2                !
 ! A34   A(5,9,13)             116.164          estimate D2E/DX2                !
 ! A35   A(5,9,35)             120.3147         estimate D2E/DX2                !
 ! A36   A(13,9,35)            118.2677         estimate D2E/DX2                !
 ! A37   A(6,10,49)            122.7225         estimate D2E/DX2                !
 ! A38   A(6,10,53)            119.3984         estimate D2E/DX2                !
 ! A39   A(49,10,53)           112.7244         estimate D2E/DX2                !
 ! A40   A(8,11,50)            123.0215         estimate D2E/DX2                !
 ! A41   A(8,11,54)            119.7373         estimate D2E/DX2                !
 ! A42   A(50,11,54)           110.4534         estimate D2E/DX2                !
 ! A43   A(7,12,14)            115.7714         estimate D2E/DX2                !
 ! A44   A(7,12,36)            119.905          estimate D2E/DX2                !
 ! A45   A(14,12,36)           119.0133         estimate D2E/DX2                !
 ! A46   A(9,13,15)            120.4322         estimate D2E/DX2                !
 ! A47   A(9,13,43)            122.1208         estimate D2E/DX2                !
 ! A48   A(15,13,43)           108.9686         estimate D2E/DX2                !
 ! A49   A(12,14,16)           122.4436         estimate D2E/DX2                !
 ! A50   A(12,14,46)           120.9648         estimate D2E/DX2                !
 ! A51   A(16,14,46)           109.3608         estimate D2E/DX2                !
 ! A52   A(6,15,13)            107.7507         estimate D2E/DX2                !
 ! A53   A(6,15,17)            121.5969         estimate D2E/DX2                !
 ! A54   A(13,15,17)           123.1791         estimate D2E/DX2                !
 ! A55   A(8,16,14)            108.4964         estimate D2E/DX2                !
 ! A56   A(8,16,18)            121.7762         estimate D2E/DX2                !
 ! A57   A(14,16,18)           121.3871         estimate D2E/DX2                !
 ! A58   A(1,17,15)            116.952          estimate D2E/DX2                !
 ! A59   A(1,17,19)            122.1908         estimate D2E/DX2                !
 ! A60   A(15,17,19)           118.6512         estimate D2E/DX2                !
 ! A61   A(3,18,16)            116.1349         estimate D2E/DX2                !
 ! A62   A(3,18,20)            118.5938         estimate D2E/DX2                !
 ! A63   A(16,18,20)           118.2921         estimate D2E/DX2                !
 ! A64   A(17,19,21)           120.5789         estimate D2E/DX2                !
 ! A65   A(17,19,53)           119.2151         estimate D2E/DX2                !
 ! A66   A(21,19,53)           118.0045         estimate D2E/DX2                !
 ! A67   A(18,20,22)           118.0972         estimate D2E/DX2                !
 ! A68   A(18,20,54)           118.6333         estimate D2E/DX2                !
 ! A69   A(22,20,54)           116.1721         estimate D2E/DX2                !
 ! A70   A(19,21,23)           111.1642         estimate D2E/DX2                !
 ! A71   A(19,21,57)           110.6113         estimate D2E/DX2                !
 ! A72   A(19,21,97)           110.2457         estimate D2E/DX2                !
 ! A73   A(23,21,57)           101.1305         estimate D2E/DX2                !
 ! A74   A(23,21,97)           111.7466         estimate D2E/DX2                !
 ! A75   A(57,21,97)           111.6639         estimate D2E/DX2                !
 ! A76   A(20,22,24)           122.1138         estimate D2E/DX2                !
 ! A77   A(20,22,58)           121.0457         estimate D2E/DX2                !
 ! A78   A(24,22,58)           108.0987         estimate D2E/DX2                !
 ! A79   A(21,23,25)           123.3851         estimate D2E/DX2                !
 ! A80   A(21,23,61)           112.6251         estimate D2E/DX2                !
 ! A81   A(25,23,61)           121.0224         estimate D2E/DX2                !
 ! A82   A(22,24,26)           119.8175         estimate D2E/DX2                !
 ! A83   A(22,24,62)           111.1082         estimate D2E/DX2                !
 ! A84   A(26,24,62)           121.3256         estimate D2E/DX2                !
 ! A85   A(1,25,23)            122.9123         estimate D2E/DX2                !
 ! A86   A(1,25,27)            112.3088         estimate D2E/DX2                !
 ! A87   A(23,25,27)           121.6072         estimate D2E/DX2                !
 ! A88   A(3,26,24)            119.6378         estimate D2E/DX2                !
 ! A89   A(3,26,28)            111.2056         estimate D2E/DX2                !
 ! A90   A(24,26,28)           121.5282         estimate D2E/DX2                !
 ! A91   A(25,27,29)           100.6225         estimate D2E/DX2                !
 ! A92   A(25,27,65)           111.3353         estimate D2E/DX2                !
 ! A93   A(25,27,85)           112.4752         estimate D2E/DX2                !
 ! A94   A(29,27,65)           108.6765         estimate D2E/DX2                !
 ! A95   A(29,27,85)           114.2462         estimate D2E/DX2                !
 ! A96   A(65,27,85)           109.2387         estimate D2E/DX2                !
 ! A97   A(26,28,30)           100.7907         estimate D2E/DX2                !
 ! A98   A(26,28,66)           109.8181         estimate D2E/DX2                !
 ! A99   A(26,28,88)           113.7317         estimate D2E/DX2                !
 ! A100  A(30,28,66)           108.6042         estimate D2E/DX2                !
 ! A101  A(30,28,88)           114.4482         estimate D2E/DX2                !
 ! A102  A(66,28,88)           109.1139         estimate D2E/DX2                !
 ! A103  A(5,29,27)            112.9545         estimate D2E/DX2                !
 ! A104  A(5,29,31)            120.1328         estimate D2E/DX2                !
 ! A105  A(27,29,31)           121.3335         estimate D2E/DX2                !
 ! A106  A(7,30,28)            111.4057         estimate D2E/DX2                !
 ! A107  A(7,30,32)            119.3115         estimate D2E/DX2                !
 ! A108  A(28,30,32)           121.9543         estimate D2E/DX2                !
 ! A109  A(29,31,33)           119.9017         estimate D2E/DX2                !
 ! A110  A(29,31,69)           121.3097         estimate D2E/DX2                !
 ! A111  A(33,31,69)           112.115          estimate D2E/DX2                !
 ! A112  A(30,32,34)           120.2417         estimate D2E/DX2                !
 ! A113  A(30,32,70)           121.1438         estimate D2E/DX2                !
 ! A114  A(34,32,70)           111.4359         estimate D2E/DX2                !
 ! A115  A(31,33,35)           121.9473         estimate D2E/DX2                !
 ! A116  A(31,33,73)           107.4578         estimate D2E/DX2                !
 ! A117  A(35,33,73)           122.3559         estimate D2E/DX2                !
 ! A118  A(32,34,36)           122.2558         estimate D2E/DX2                !
 ! A119  A(32,34,74)           107.5348         estimate D2E/DX2                !
 ! A120  A(36,34,74)           121.7204         estimate D2E/DX2                !
 ! A121  A(9,35,33)            116.2797         estimate D2E/DX2                !
 ! A122  A(9,35,37)            119.9703         estimate D2E/DX2                !
 ! A123  A(33,35,37)           118.5201         estimate D2E/DX2                !
 ! A124  A(12,36,34)           116.3899         estimate D2E/DX2                !
 ! A125  A(12,36,38)           119.5908         estimate D2E/DX2                !
 ! A126  A(34,36,38)           119.0261         estimate D2E/DX2                !
 ! A127  A(35,37,39)           119.2391         estimate D2E/DX2                !
 ! A128  A(35,37,77)           118.2022         estimate D2E/DX2                !
 ! A129  A(39,37,77)           116.9256         estimate D2E/DX2                !
 ! A130  A(36,38,42)           118.978          estimate D2E/DX2                !
 ! A131  A(36,38,78)           118.2017         estimate D2E/DX2                !
 ! A132  A(42,38,78)           118.62           estimate D2E/DX2                !
 ! A133  A(37,39,43)           119.1733         estimate D2E/DX2                !
 ! A134  A(37,39,79)           119.1275         estimate D2E/DX2                !
 ! A135  A(43,39,79)           115.6625         estimate D2E/DX2                !
 ! A136  A(41,40,44)           121.1549         estimate D2E/DX2                !
 ! A137  A(41,40,79)           108.9674         estimate D2E/DX2                !
 ! A138  A(44,40,79)           124.0935         estimate D2E/DX2                !
 ! A139  A(40,41,45)           120.384          estimate D2E/DX2                !
 ! A140  A(40,41,80)           110.2567         estimate D2E/DX2                !
 ! A141  A(45,41,80)           125.6084         estimate D2E/DX2                !
 ! A142  A(38,42,46)           120.3029         estimate D2E/DX2                !
 ! A143  A(38,42,80)           121.4911         estimate D2E/DX2                !
 ! A144  A(46,42,80)           116.2235         estimate D2E/DX2                !
 ! A145  A(2,43,13)            110.2609         estimate D2E/DX2                !
 ! A146  A(2,43,39)            123.9243         estimate D2E/DX2                !
 ! A147  A(13,43,39)           120.9523         estimate D2E/DX2                !
 ! A148  A(2,44,40)            115.4329         estimate D2E/DX2                !
 ! A149  A(2,44,47)            124.0594         estimate D2E/DX2                !
 ! A150  A(40,44,47)           119.1009         estimate D2E/DX2                !
 ! A151  A(4,45,41)            115.7451         estimate D2E/DX2                !
 ! A152  A(4,45,48)            123.5815         estimate D2E/DX2                !
 ! A153  A(41,45,48)           119.0805         estimate D2E/DX2                !
 ! A154  A(4,46,14)            109.2457         estimate D2E/DX2                !
 ! A155  A(4,46,42)            125.5595         estimate D2E/DX2                !
 ! A156  A(14,46,42)           120.9634         estimate D2E/DX2                !
 ! A157  A(44,47,48)           119.5899         estimate D2E/DX2                !
 ! A158  A(44,47,49)           118.8516         estimate D2E/DX2                !
 ! A159  A(48,47,49)           120.7588         estimate D2E/DX2                !
 ! A160  A(45,48,47)           120.5751         estimate D2E/DX2                !
 ! A161  A(45,48,50)           118.8828         estimate D2E/DX2                !
 ! A162  A(47,48,50)           119.7745         estimate D2E/DX2                !
 ! A163  A(10,49,47)           109.2681         estimate D2E/DX2                !
 ! A164  A(10,49,51)           100.3            estimate D2E/DX2                !
 ! A165  A(10,49,91)           113.2724         estimate D2E/DX2                !
 ! A166  A(47,49,51)           111.4709         estimate D2E/DX2                !
 ! A167  A(47,49,91)           108.7958         estimate D2E/DX2                !
 ! A168  A(51,49,91)           113.5158         estimate D2E/DX2                !
 ! A169  A(11,50,48)           110.2256         estimate D2E/DX2                !
 ! A170  A(11,50,52)           101.3512         estimate D2E/DX2                !
 ! A171  A(11,50,92)           113.0408         estimate D2E/DX2                !
 ! A172  A(48,50,52)           110.4619         estimate D2E/DX2                !
 ! A173  A(48,50,92)           109.1665         estimate D2E/DX2                !
 ! A174  A(52,50,92)           112.4119         estimate D2E/DX2                !
 ! A175  A(49,51,52)           121.119          estimate D2E/DX2                !
 ! A176  A(49,51,55)           112.4465         estimate D2E/DX2                !
 ! A177  A(52,51,55)           122.117          estimate D2E/DX2                !
 ! A178  A(50,52,51)           123.1093         estimate D2E/DX2                !
 ! A179  A(50,52,56)           110.2329         estimate D2E/DX2                !
 ! A180  A(51,52,56)           121.3768         estimate D2E/DX2                !
 ! A181  A(10,53,19)           121.491          estimate D2E/DX2                !
 ! A182  A(10,53,55)           109.9838         estimate D2E/DX2                !
 ! A183  A(19,53,55)           124.9925         estimate D2E/DX2                !
 ! A184  A(11,54,20)           121.3427         estimate D2E/DX2                !
 ! A185  A(11,54,56)           109.0032         estimate D2E/DX2                !
 ! A186  A(20,54,56)           122.1841         estimate D2E/DX2                !
 ! A187  A(51,55,53)           101.0179         estimate D2E/DX2                !
 ! A188  A(51,55,83)           113.15           estimate D2E/DX2                !
 ! A189  A(51,55,98)           111.0327         estimate D2E/DX2                !
 ! A190  A(53,55,83)           110.6368         estimate D2E/DX2                !
 ! A191  A(53,55,98)           111.1442         estimate D2E/DX2                !
 ! A192  A(83,55,98)           109.6372         estimate D2E/DX2                !
 ! A193  A(52,56,54)           108.5927         estimate D2E/DX2                !
 ! A194  A(52,56,84)           120.1253         estimate D2E/DX2                !
 ! A195  A(54,56,84)           121.6643         estimate D2E/DX2                !
 ! A196  A(21,57,59)           109.5762         estimate D2E/DX2                !
 ! A197  A(21,57,83)           125.0245         estimate D2E/DX2                !
 ! A198  A(59,57,83)           121.6874         estimate D2E/DX2                !
 ! A199  A(22,58,60)           108.4327         estimate D2E/DX2                !
 ! A200  A(22,58,84)           122.3487         estimate D2E/DX2                !
 ! A201  A(60,58,84)           121.2937         estimate D2E/DX2                !
 ! A202  A(57,59,60)           120.5628         estimate D2E/DX2                !
 ! A203  A(57,59,61)           112.7631         estimate D2E/DX2                !
 ! A204  A(60,59,61)           121.1328         estimate D2E/DX2                !
 ! A205  A(58,60,59)           119.0276         estimate D2E/DX2                !
 ! A206  A(58,60,62)           111.5855         estimate D2E/DX2                !
 ! A207  A(59,60,62)           122.3805         estimate D2E/DX2                !
 ! A208  A(23,61,59)           100.6126         estimate D2E/DX2                !
 ! A209  A(23,61,63)           111.3521         estimate D2E/DX2                !
 ! A210  A(23,61,89)           112.8239         estimate D2E/DX2                !
 ! A211  A(59,61,63)           109.51           estimate D2E/DX2                !
 ! A212  A(59,61,89)           113.7518         estimate D2E/DX2                !
 ! A213  A(63,61,89)           108.6286         estimate D2E/DX2                !
 ! A214  A(24,62,60)           100.7004         estimate D2E/DX2                !
 ! A215  A(24,62,64)           109.8658         estimate D2E/DX2                !
 ! A216  A(24,62,90)           114.0497         estimate D2E/DX2                !
 ! A217  A(60,62,64)           109.167          estimate D2E/DX2                !
 ! A218  A(60,62,90)           113.9982         estimate D2E/DX2                !
 ! A219  A(64,62,90)           108.7834         estimate D2E/DX2                !
 ! A220  A(61,63,64)           120.5163         estimate D2E/DX2                !
 ! A221  A(61,63,65)           119.3537         estimate D2E/DX2                !
 ! A222  A(64,63,65)           119.8559         estimate D2E/DX2                !
 ! A223  A(62,64,63)           119.7621         estimate D2E/DX2                !
 ! A224  A(62,64,66)           120.0551         estimate D2E/DX2                !
 ! A225  A(63,64,66)           119.9304         estimate D2E/DX2                !
 ! A226  A(27,65,63)           119.0168         estimate D2E/DX2                !
 ! A227  A(27,65,67)           120.2941         estimate D2E/DX2                !
 ! A228  A(63,65,67)           120.365          estimate D2E/DX2                !
 ! A229  A(28,66,64)           119.6879         estimate D2E/DX2                !
 ! A230  A(28,66,68)           119.801          estimate D2E/DX2                !
 ! A231  A(64,66,68)           120.2327         estimate D2E/DX2                !
 ! A232  A(65,67,68)           119.8292         estimate D2E/DX2                !
 ! A233  A(65,67,69)           119.5237         estimate D2E/DX2                !
 ! A234  A(68,67,69)           120.4076         estimate D2E/DX2                !
 ! A235  A(66,68,67)           119.7752         estimate D2E/DX2                !
 ! A236  A(66,68,70)           119.7438         estimate D2E/DX2                !
 ! A237  A(67,68,70)           120.2587         estimate D2E/DX2                !
 ! A238  A(31,69,67)           108.316          estimate D2E/DX2                !
 ! A239  A(31,69,71)           101.069          estimate D2E/DX2                !
 ! A240  A(31,69,86)           114.1459         estimate D2E/DX2                !
 ! A241  A(67,69,71)           110.7131         estimate D2E/DX2                !
 ! A242  A(67,69,86)           108.6648         estimate D2E/DX2                !
 ! A243  A(71,69,86)           113.6844         estimate D2E/DX2                !
 ! A244  A(32,70,68)           108.4024         estimate D2E/DX2                !
 ! A245  A(32,70,72)           101.1307         estimate D2E/DX2                !
 ! A246  A(32,70,87)           114.3191         estimate D2E/DX2                !
 ! A247  A(68,70,72)           110.5456         estimate D2E/DX2                !
 ! A248  A(68,70,87)           108.5674         estimate D2E/DX2                !
 ! A249  A(72,70,87)           113.6373         estimate D2E/DX2                !
 ! A250  A(69,71,72)           121.8803         estimate D2E/DX2                !
 ! A251  A(69,71,73)           110.0572         estimate D2E/DX2                !
 ! A252  A(72,71,73)           119.4101         estimate D2E/DX2                !
 ! A253  A(70,72,71)           121.8421         estimate D2E/DX2                !
 ! A254  A(70,72,74)           110.2603         estimate D2E/DX2                !
 ! A255  A(71,72,74)           119.5416         estimate D2E/DX2                !
 ! A256  A(33,73,71)           108.9634         estimate D2E/DX2                !
 ! A257  A(33,73,75)           118.9286         estimate D2E/DX2                !
 ! A258  A(71,73,75)           121.7355         estimate D2E/DX2                !
 ! A259  A(34,74,72)           109.1788         estimate D2E/DX2                !
 ! A260  A(34,74,76)           118.8533         estimate D2E/DX2                !
 ! A261  A(72,74,76)           121.5693         estimate D2E/DX2                !
 ! A262  A(73,75,76)           119.1297         estimate D2E/DX2                !
 ! A263  A(73,75,77)           120.008          estimate D2E/DX2                !
 ! A264  A(76,75,77)           108.6238         estimate D2E/DX2                !
 ! A265  A(74,76,75)           118.5502         estimate D2E/DX2                !
 ! A266  A(74,76,78)           120.4928         estimate D2E/DX2                !
 ! A267  A(75,76,78)           108.6931         estimate D2E/DX2                !
 ! A268  A(37,77,75)           121.9233         estimate D2E/DX2                !
 ! A269  A(37,77,81)           121.7807         estimate D2E/DX2                !
 ! A270  A(75,77,81)           106.5101         estimate D2E/DX2                !
 ! A271  A(38,78,76)           121.4144         estimate D2E/DX2                !
 ! A272  A(38,78,81)           120.4559         estimate D2E/DX2                !
 ! A273  A(76,78,81)           106.2352         estimate D2E/DX2                !
 ! A274  A(39,79,40)           119.8819         estimate D2E/DX2                !
 ! A275  A(39,79,82)           122.3538         estimate D2E/DX2                !
 ! A276  A(40,79,82)           107.0335         estimate D2E/DX2                !
 ! A277  A(41,80,42)           110.0077         estimate D2E/DX2                !
 ! A278  A(41,80,82)           100.5936         estimate D2E/DX2                !
 ! A279  A(41,80,96)           111.6333         estimate D2E/DX2                !
 ! A280  A(42,80,82)           112.3321         estimate D2E/DX2                !
 ! A281  A(42,80,96)           109.8925         estimate D2E/DX2                !
 ! A282  A(82,80,96)           112.1008         estimate D2E/DX2                !
 ! A283  A(77,81,78)           109.1493         estimate D2E/DX2                !
 ! A284  A(77,81,82)           119.8764         estimate D2E/DX2                !
 ! A285  A(78,81,82)           120.6479         estimate D2E/DX2                !
 ! A286  A(79,82,80)           111.9385         estimate D2E/DX2                !
 ! A287  A(79,82,81)           119.2835         estimate D2E/DX2                !
 ! A288  A(80,82,81)           121.572          estimate D2E/DX2                !
 ! A289  A(55,83,57)           118.5077         estimate D2E/DX2                !
 ! A290  A(55,83,84)           120.1628         estimate D2E/DX2                !
 ! A291  A(57,83,84)           118.6577         estimate D2E/DX2                !
 ! A292  A(56,84,58)           115.8146         estimate D2E/DX2                !
 ! A293  A(56,84,83)           119.8254         estimate D2E/DX2                !
 ! A294  A(58,84,83)           118.6896         estimate D2E/DX2                !
 ! D1    D(17,1,5,9)            20.6553         estimate D2E/DX2                !
 ! D2    D(17,1,5,29)         -135.5346         estimate D2E/DX2                !
 ! D3    D(25,1,5,9)           139.1459         estimate D2E/DX2                !
 ! D4    D(25,1,5,29)          -17.044          estimate D2E/DX2                !
 ! D5    D(95,1,5,9)          -102.2769         estimate D2E/DX2                !
 ! D6    D(95,1,5,29)          101.5332         estimate D2E/DX2                !
 ! D7    D(5,1,17,15)          -27.1932         estimate D2E/DX2                !
 ! D8    D(5,1,17,19)          135.6876         estimate D2E/DX2                !
 ! D9    D(25,1,17,15)        -139.6697         estimate D2E/DX2                !
 ! D10   D(25,1,17,19)          23.2112         estimate D2E/DX2                !
 ! D11   D(95,1,17,15)          96.4568         estimate D2E/DX2                !
 ! D12   D(95,1,17,19)        -100.6624         estimate D2E/DX2                !
 ! D13   D(5,1,25,23)         -141.5289         estimate D2E/DX2                !
 ! D14   D(5,1,25,27)           18.5836         estimate D2E/DX2                !
 ! D15   D(17,1,25,23)         -21.9585         estimate D2E/DX2                !
 ! D16   D(17,1,25,27)         138.154          estimate D2E/DX2                !
 ! D17   D(95,1,25,23)         100.6092         estimate D2E/DX2                !
 ! D18   D(95,1,25,27)         -99.2782         estimate D2E/DX2                !
 ! D19   D(43,2,6,10)         -142.3516         estimate D2E/DX2                !
 ! D20   D(43,2,6,15)            8.2534         estimate D2E/DX2                !
 ! D21   D(44,2,6,10)          -24.5638         estimate D2E/DX2                !
 ! D22   D(44,2,6,15)          126.0411         estimate D2E/DX2                !
 ! D23   D(93,2,6,10)           98.101          estimate D2E/DX2                !
 ! D24   D(93,2,6,15)         -111.2941         estimate D2E/DX2                !
 ! D25   D(6,2,43,13)          -10.1914         estimate D2E/DX2                !
 ! D26   D(6,2,43,39)          145.1754         estimate D2E/DX2                !
 ! D27   D(44,2,43,13)        -126.3802         estimate D2E/DX2                !
 ! D28   D(44,2,43,39)          28.9866         estimate D2E/DX2                !
 ! D29   D(93,2,43,13)         110.5587         estimate D2E/DX2                !
 ! D30   D(93,2,43,39)         -94.0745         estimate D2E/DX2                !
 ! D31   D(6,2,44,40)         -143.8026         estimate D2E/DX2                !
 ! D32   D(6,2,44,47)           22.4909         estimate D2E/DX2                !
 ! D33   D(43,2,44,40)         -32.7097         estimate D2E/DX2                !
 ! D34   D(43,2,44,47)         133.5838         estimate D2E/DX2                !
 ! D35   D(93,2,44,40)          91.4214         estimate D2E/DX2                !
 ! D36   D(93,2,44,47)        -102.2851         estimate D2E/DX2                !
 ! D37   D(18,3,7,12)            3.138          estimate D2E/DX2                !
 ! D38   D(18,3,7,30)          151.0092         estimate D2E/DX2                !
 ! D39   D(26,3,7,12)         -145.6128         estimate D2E/DX2                !
 ! D40   D(26,3,7,30)            2.2584         estimate D2E/DX2                !
 ! D41   D(7,3,18,16)            5.348          estimate D2E/DX2                !
 ! D42   D(7,3,18,20)         -144.9622         estimate D2E/DX2                !
 ! D43   D(26,3,18,16)         149.9487         estimate D2E/DX2                !
 ! D44   D(26,3,18,20)          -0.3615         estimate D2E/DX2                !
 ! D45   D(7,3,26,24)          147.8181         estimate D2E/DX2                !
 ! D46   D(7,3,26,28)           -2.1873         estimate D2E/DX2                !
 ! D47   D(18,3,26,24)          -0.9501         estimate D2E/DX2                !
 ! D48   D(18,3,26,28)        -150.9555         estimate D2E/DX2                !
 ! D49   D(45,4,8,11)           24.4253         estimate D2E/DX2                !
 ! D50   D(45,4,8,16)         -125.9913         estimate D2E/DX2                !
 ! D51   D(46,4,8,11)          140.695          estimate D2E/DX2                !
 ! D52   D(46,4,8,16)           -9.7216         estimate D2E/DX2                !
 ! D53   D(94,4,8,11)          -99.4822         estimate D2E/DX2                !
 ! D54   D(94,4,8,16)          110.1012         estimate D2E/DX2                !
 ! D55   D(8,4,45,41)          144.6051         estimate D2E/DX2                !
 ! D56   D(8,4,45,48)          -20.8327         estimate D2E/DX2                !
 ! D57   D(46,4,45,41)          33.7395         estimate D2E/DX2                !
 ! D58   D(46,4,45,48)        -131.6984         estimate D2E/DX2                !
 ! D59   D(94,4,45,41)         -89.8799         estimate D2E/DX2                !
 ! D60   D(94,4,45,48)         104.6822         estimate D2E/DX2                !
 ! D61   D(8,4,46,14)           10.8522         estimate D2E/DX2                !
 ! D62   D(8,4,46,42)         -145.9935         estimate D2E/DX2                !
 ! D63   D(45,4,46,14)         127.2791         estimate D2E/DX2                !
 ! D64   D(45,4,46,42)         -29.5666         estimate D2E/DX2                !
 ! D65   D(94,4,46,14)        -109.9387         estimate D2E/DX2                !
 ! D66   D(94,4,46,42)          93.2156         estimate D2E/DX2                !
 ! D67   D(1,5,9,13)            -3.9047         estimate D2E/DX2                !
 ! D68   D(1,5,9,35)          -157.8643         estimate D2E/DX2                !
 ! D69   D(29,5,9,13)          149.8387         estimate D2E/DX2                !
 ! D70   D(29,5,9,35)           -4.1208         estimate D2E/DX2                !
 ! D71   D(1,5,29,27)           10.3278         estimate D2E/DX2                !
 ! D72   D(1,5,29,31)          164.3311         estimate D2E/DX2                !
 ! D73   D(9,5,29,27)         -147.1133         estimate D2E/DX2                !
 ! D74   D(9,5,29,31)            6.8899         estimate D2E/DX2                !
 ! D75   D(2,6,10,49)           -2.398          estimate D2E/DX2                !
 ! D76   D(2,6,10,53)          150.3585         estimate D2E/DX2                !
 ! D77   D(15,6,10,49)        -150.5534         estimate D2E/DX2                !
 ! D78   D(15,6,10,53)           2.203          estimate D2E/DX2                !
 ! D79   D(2,6,15,13)           -3.7376         estimate D2E/DX2                !
 ! D80   D(2,6,15,17)         -154.3752         estimate D2E/DX2                !
 ! D81   D(10,6,15,13)         147.8945         estimate D2E/DX2                !
 ! D82   D(10,6,15,17)          -2.7431         estimate D2E/DX2                !
 ! D83   D(3,7,12,14)           -8.1003         estimate D2E/DX2                !
 ! D84   D(3,7,12,36)          145.9249         estimate D2E/DX2                !
 ! D85   D(30,7,12,14)        -151.8908         estimate D2E/DX2                !
 ! D86   D(30,7,12,36)           2.1344         estimate D2E/DX2                !
 ! D87   D(3,7,30,28)           -1.5374         estimate D2E/DX2                !
 ! D88   D(3,7,30,32)         -152.2303         estimate D2E/DX2                !
 ! D89   D(12,7,30,28)         146.4776         estimate D2E/DX2                !
 ! D90   D(12,7,30,32)          -4.2153         estimate D2E/DX2                !
 ! D91   D(4,8,11,50)            0.3025         estimate D2E/DX2                !
 ! D92   D(4,8,11,54)         -148.0461         estimate D2E/DX2                !
 ! D93   D(16,8,11,50)         147.9197         estimate D2E/DX2                !
 ! D94   D(16,8,11,54)          -0.4289         estimate D2E/DX2                !
 ! D95   D(4,8,16,14)            5.3121         estimate D2E/DX2                !
 ! D96   D(4,8,16,18)          153.8778         estimate D2E/DX2                !
 ! D97   D(11,8,16,14)        -145.8972         estimate D2E/DX2                !
 ! D98   D(11,8,16,18)           2.6685         estimate D2E/DX2                !
 ! D99   D(5,9,13,15)           -6.6            estimate D2E/DX2                !
 ! D100  D(5,9,13,43)         -151.0815         estimate D2E/DX2                !
 ! D101  D(35,9,13,15)         147.9139         estimate D2E/DX2                !
 ! D102  D(35,9,13,43)           3.4323         estimate D2E/DX2                !
 ! D103  D(5,9,35,33)           -3.4128         estimate D2E/DX2                !
 ! D104  D(5,9,35,37)          150.6728         estimate D2E/DX2                !
 ! D105  D(13,9,35,33)        -156.8374         estimate D2E/DX2                !
 ! D106  D(13,9,35,37)          -2.7519         estimate D2E/DX2                !
 ! D107  D(6,10,49,47)          31.0188         estimate D2E/DX2                !
 ! D108  D(6,10,49,51)         148.2529         estimate D2E/DX2                !
 ! D109  D(6,10,49,91)         -90.4406         estimate D2E/DX2                !
 ! D110  D(53,10,49,47)       -123.3619         estimate D2E/DX2                !
 ! D111  D(53,10,49,51)         -6.1277         estimate D2E/DX2                !
 ! D112  D(53,10,49,91)        115.1788         estimate D2E/DX2                !
 ! D113  D(6,10,53,19)          -1.3321         estimate D2E/DX2                !
 ! D114  D(6,10,53,55)        -161.1115         estimate D2E/DX2                !
 ! D115  D(49,10,53,19)        153.9888         estimate D2E/DX2                !
 ! D116  D(49,10,53,55)         -5.7907         estimate D2E/DX2                !
 ! D117  D(8,11,50,48)         -28.422          estimate D2E/DX2                !
 ! D118  D(8,11,50,52)        -145.4196         estimate D2E/DX2                !
 ! D119  D(8,11,50,92)          94.0523         estimate D2E/DX2                !
 ! D120  D(54,11,50,48)        122.4801         estimate D2E/DX2                !
 ! D121  D(54,11,50,52)          5.4825         estimate D2E/DX2                !
 ! D122  D(54,11,50,92)       -115.0456         estimate D2E/DX2                !
 ! D123  D(8,11,54,20)          -1.5302         estimate D2E/DX2                !
 ! D124  D(8,11,54,56)         148.8519         estimate D2E/DX2                !
 ! D125  D(50,11,54,20)       -153.5225         estimate D2E/DX2                !
 ! D126  D(50,11,54,56)         -3.1404         estimate D2E/DX2                !
 ! D127  D(7,12,14,16)           4.7914         estimate D2E/DX2                !
 ! D128  D(7,12,14,46)         151.8835         estimate D2E/DX2                !
 ! D129  D(36,12,14,16)       -149.478          estimate D2E/DX2                !
 ! D130  D(36,12,14,46)         -2.3858         estimate D2E/DX2                !
 ! D131  D(7,12,36,34)           4.3019         estimate D2E/DX2                !
 ! D132  D(7,12,36,38)        -150.4759         estimate D2E/DX2                !
 ! D133  D(14,12,36,34)        157.4934         estimate D2E/DX2                !
 ! D134  D(14,12,36,38)          2.7155         estimate D2E/DX2                !
 ! D135  D(9,13,15,6)         -151.7355         estimate D2E/DX2                !
 ! D136  D(9,13,15,17)          -1.6691         estimate D2E/DX2                !
 ! D137  D(43,13,15,6)          -3.0872         estimate D2E/DX2                !
 ! D138  D(43,13,15,17)        146.9792         estimate D2E/DX2                !
 ! D139  D(9,13,43,2)          156.6156         estimate D2E/DX2                !
 ! D140  D(9,13,43,39)           0.3994         estimate D2E/DX2                !
 ! D141  D(15,13,43,2)           8.6001         estimate D2E/DX2                !
 ! D142  D(15,13,43,39)       -147.6161         estimate D2E/DX2                !
 ! D143  D(12,14,16,8)         152.4116         estimate D2E/DX2                !
 ! D144  D(12,14,16,18)          3.7002         estimate D2E/DX2                !
 ! D145  D(46,14,16,8)           2.0013         estimate D2E/DX2                !
 ! D146  D(46,14,16,18)       -146.7102         estimate D2E/DX2                !
 ! D147  D(12,14,46,4)        -159.3507         estimate D2E/DX2                !
 ! D148  D(12,14,46,42)         -1.2539         estimate D2E/DX2                !
 ! D149  D(16,14,46,4)          -8.427          estimate D2E/DX2                !
 ! D150  D(16,14,46,42)        149.6698         estimate D2E/DX2                !
 ! D151  D(6,15,17,1)          165.7859         estimate D2E/DX2                !
 ! D152  D(6,15,17,19)           2.2772         estimate D2E/DX2                !
 ! D153  D(13,15,17,1)          19.7003         estimate D2E/DX2                !
 ! D154  D(13,15,17,19)       -143.8084         estimate D2E/DX2                !
 ! D155  D(8,16,18,3)         -153.2528         estimate D2E/DX2                !
 ! D156  D(8,16,18,20)          -2.8496         estimate D2E/DX2                !
 ! D157  D(14,16,18,3)          -8.6583         estimate D2E/DX2                !
 ! D158  D(14,16,18,20)        141.7449         estimate D2E/DX2                !
 ! D159  D(1,17,19,21)          -1.1267         estimate D2E/DX2                !
 ! D160  D(1,17,19,53)        -163.9359         estimate D2E/DX2                !
 ! D161  D(15,17,19,21)        161.4758         estimate D2E/DX2                !
 ! D162  D(15,17,19,53)         -1.3334         estimate D2E/DX2                !
 ! D163  D(3,18,20,22)           1.0951         estimate D2E/DX2                !
 ! D164  D(3,18,20,54)         150.5407         estimate D2E/DX2                !
 ! D165  D(16,18,20,22)       -148.5743         estimate D2E/DX2                !
 ! D166  D(16,18,20,54)          0.8713         estimate D2E/DX2                !
 ! D167  D(17,19,21,23)        -22.3227         estimate D2E/DX2                !
 ! D168  D(17,19,21,57)       -133.8394         estimate D2E/DX2                !
 ! D169  D(17,19,21,97)        102.1671         estimate D2E/DX2                !
 ! D170  D(53,19,21,23)        140.6896         estimate D2E/DX2                !
 ! D171  D(53,19,21,57)         29.1728         estimate D2E/DX2                !
 ! D172  D(53,19,21,97)        -94.8207         estimate D2E/DX2                !
 ! D173  D(17,19,53,10)          0.8859         estimate D2E/DX2                !
 ! D174  D(17,19,53,55)        157.5263         estimate D2E/DX2                !
 ! D175  D(21,19,53,10)       -162.3641         estimate D2E/DX2                !
 ! D176  D(21,19,53,55)         -5.7237         estimate D2E/DX2                !
 ! D177  D(18,20,22,24)         -0.6001         estimate D2E/DX2                !
 ! D178  D(18,20,22,58)        143.0971         estimate D2E/DX2                !
 ! D179  D(54,20,22,24)       -150.7879         estimate D2E/DX2                !
 ! D180  D(54,20,22,58)         -7.0907         estimate D2E/DX2                !
 ! D181  D(18,20,54,11)          1.2849         estimate D2E/DX2                !
 ! D182  D(18,20,54,56)       -145.2027         estimate D2E/DX2                !
 ! D183  D(22,20,54,11)        151.3063         estimate D2E/DX2                !
 ! D184  D(22,20,54,56)          4.8186         estimate D2E/DX2                !
 ! D185  D(19,21,23,25)         24.5181         estimate D2E/DX2                !
 ! D186  D(19,21,23,61)       -136.1016         estimate D2E/DX2                !
 ! D187  D(57,21,23,25)        141.9631         estimate D2E/DX2                !
 ! D188  D(57,21,23,61)        -18.6567         estimate D2E/DX2                !
 ! D189  D(97,21,23,25)        -99.1197         estimate D2E/DX2                !
 ! D190  D(97,21,23,61)        100.2606         estimate D2E/DX2                !
 ! D191  D(19,21,57,59)        133.5576         estimate D2E/DX2                !
 ! D192  D(19,21,57,83)        -24.8819         estimate D2E/DX2                !
 ! D193  D(23,21,57,59)         15.7099         estimate D2E/DX2                !
 ! D194  D(23,21,57,83)       -142.7296         estimate D2E/DX2                !
 ! D195  D(97,21,57,59)       -103.2669         estimate D2E/DX2                !
 ! D196  D(97,21,57,83)         98.2936         estimate D2E/DX2                !
 ! D197  D(20,22,24,26)         -0.708          estimate D2E/DX2                !
 ! D198  D(20,22,24,62)        149.0118         estimate D2E/DX2                !
 ! D199  D(58,22,24,26)       -148.4557         estimate D2E/DX2                !
 ! D200  D(58,22,24,62)          1.2641         estimate D2E/DX2                !
 ! D201  D(20,22,58,60)       -147.6077         estimate D2E/DX2                !
 ! D202  D(20,22,58,84)          1.6179         estimate D2E/DX2                !
 ! D203  D(24,22,58,60)          0.551          estimate D2E/DX2                !
 ! D204  D(24,22,58,84)        149.7767         estimate D2E/DX2                !
 ! D205  D(21,23,25,1)          -2.018          estimate D2E/DX2                !
 ! D206  D(21,23,25,27)       -160.3316         estimate D2E/DX2                !
 ! D207  D(61,23,25,1)         157.04           estimate D2E/DX2                !
 ! D208  D(61,23,25,27)         -1.2735         estimate D2E/DX2                !
 ! D209  D(21,23,61,59)         14.1354         estimate D2E/DX2                !
 ! D210  D(21,23,61,63)        130.1165         estimate D2E/DX2                !
 ! D211  D(21,23,61,89)       -107.4288         estimate D2E/DX2                !
 ! D212  D(25,23,61,59)       -147.0004         estimate D2E/DX2                !
 ! D213  D(25,23,61,63)        -31.0193         estimate D2E/DX2                !
 ! D214  D(25,23,61,89)         91.4354         estimate D2E/DX2                !
 ! D215  D(22,24,26,3)           1.4615         estimate D2E/DX2                !
 ! D216  D(22,24,26,28)        148.315          estimate D2E/DX2                !
 ! D217  D(62,24,26,3)        -145.1256         estimate D2E/DX2                !
 ! D218  D(62,24,26,28)          1.7279         estimate D2E/DX2                !
 ! D219  D(22,24,62,60)         -2.3817         estimate D2E/DX2                !
 ! D220  D(22,24,62,64)       -117.4406         estimate D2E/DX2                !
 ! D221  D(22,24,62,90)        120.1371         estimate D2E/DX2                !
 ! D222  D(26,24,62,60)        146.8125         estimate D2E/DX2                !
 ! D223  D(26,24,62,64)         31.7536         estimate D2E/DX2                !
 ! D224  D(26,24,62,90)        -90.6687         estimate D2E/DX2                !
 ! D225  D(1,25,27,29)         -12.9714         estimate D2E/DX2                !
 ! D226  D(1,25,27,65)        -127.9979         estimate D2E/DX2                !
 ! D227  D(1,25,27,85)         109.0173         estimate D2E/DX2                !
 ! D228  D(23,25,27,29)        147.4368         estimate D2E/DX2                !
 ! D229  D(23,25,27,65)         32.4103         estimate D2E/DX2                !
 ! D230  D(23,25,27,85)        -90.5745         estimate D2E/DX2                !
 ! D231  D(3,26,28,30)           1.1934         estimate D2E/DX2                !
 ! D232  D(3,26,28,66)         115.6437         estimate D2E/DX2                !
 ! D233  D(3,26,28,88)        -121.7648         estimate D2E/DX2                !
 ! D234  D(24,26,28,30)       -148.1586         estimate D2E/DX2                !
 ! D235  D(24,26,28,66)        -33.7083         estimate D2E/DX2                !
 ! D236  D(24,26,28,88)         88.8832         estimate D2E/DX2                !
 ! D237  D(25,27,29,5)           1.4325         estimate D2E/DX2                !
 ! D238  D(25,27,29,31)       -152.2199         estimate D2E/DX2                !
 ! D239  D(65,27,29,5)         118.4423         estimate D2E/DX2                !
 ! D240  D(65,27,29,31)        -35.2101         estimate D2E/DX2                !
 ! D241  D(85,27,29,5)        -119.3011         estimate D2E/DX2                !
 ! D242  D(85,27,29,31)         87.0465         estimate D2E/DX2                !
 ! D243  D(25,27,65,63)        -30.2371         estimate D2E/DX2                !
 ! D244  D(25,27,65,67)        143.2512         estimate D2E/DX2                !
 ! D245  D(29,27,65,63)       -140.1707         estimate D2E/DX2                !
 ! D246  D(29,27,65,67)         33.3176         estimate D2E/DX2                !
 ! D247  D(85,27,65,63)         94.5829         estimate D2E/DX2                !
 ! D248  D(85,27,65,67)        -91.9287         estimate D2E/DX2                !
 ! D249  D(26,28,30,7)           0.2194         estimate D2E/DX2                !
 ! D250  D(26,28,30,32)        150.0175         estimate D2E/DX2                !
 ! D251  D(66,28,30,7)        -115.1419         estimate D2E/DX2                !
 ! D252  D(66,28,30,32)         34.6562         estimate D2E/DX2                !
 ! D253  D(88,28,30,7)         122.6787         estimate D2E/DX2                !
 ! D254  D(88,28,30,32)        -87.5231         estimate D2E/DX2                !
 ! D255  D(26,28,66,64)         31.5284         estimate D2E/DX2                !
 ! D256  D(26,28,66,68)       -142.4264         estimate D2E/DX2                !
 ! D257  D(30,28,66,64)        140.8755         estimate D2E/DX2                !
 ! D258  D(30,28,66,68)        -33.0793         estimate D2E/DX2                !
 ! D259  D(88,28,66,64)        -93.7565         estimate D2E/DX2                !
 ! D260  D(88,28,66,68)         92.2888         estimate D2E/DX2                !
 ! D261  D(5,29,31,33)          -1.8401         estimate D2E/DX2                !
 ! D262  D(5,29,31,69)        -150.9414         estimate D2E/DX2                !
 ! D263  D(27,29,31,33)        149.9614         estimate D2E/DX2                !
 ! D264  D(27,29,31,69)          0.8601         estimate D2E/DX2                !
 ! D265  D(7,30,32,34)          -0.371          estimate D2E/DX2                !
 ! D266  D(7,30,32,70)         147.4682         estimate D2E/DX2                !
 ! D267  D(28,30,32,34)       -147.8837         estimate D2E/DX2                !
 ! D268  D(28,30,32,70)         -0.0444         estimate D2E/DX2                !
 ! D269  D(29,31,33,35)         -6.0932         estimate D2E/DX2                !
 ! D270  D(29,31,33,73)       -155.1051         estimate D2E/DX2                !
 ! D271  D(69,31,33,35)        145.6399         estimate D2E/DX2                !
 ! D272  D(69,31,33,73)         -3.372          estimate D2E/DX2                !
 ! D273  D(29,31,69,67)         34.7673         estimate D2E/DX2                !
 ! D274  D(29,31,69,71)        151.1514         estimate D2E/DX2                !
 ! D275  D(29,31,69,86)        -86.4193         estimate D2E/DX2                !
 ! D276  D(33,31,69,67)       -116.5137         estimate D2E/DX2                !
 ! D277  D(33,31,69,71)         -0.1297         estimate D2E/DX2                !
[...]
 Alpha virt. eigenvalues --    1.45029   1.45265   1.45724   1.46043   1.46548
 Alpha virt. eigenvalues --    1.46906   1.47123   1.47904   1.48286   1.48745
 Alpha virt. eigenvalues --    1.49849   1.50664   1.51060   1.51404   1.51728
 Alpha virt. eigenvalues --    1.52045   1.52435   1.53256   1.53884   1.54743
 Alpha virt. eigenvalues --    1.55549   1.55595   1.55899   1.56694   1.57211
 Alpha virt. eigenvalues --    1.57828   1.58362   1.58973   1.59140   1.59611
 Alpha virt. eigenvalues --    1.59857   1.60697   1.61046   1.61298   1.61585
 Alpha virt. eigenvalues --    1.62151   1.62280   1.62719   1.63082   1.63283
 Alpha virt. eigenvalues --    1.63666   1.63888   1.63914   1.64174   1.64512
 Alpha virt. eigenvalues --    1.64695   1.64995   1.65297   1.65571   1.65740
 Alpha virt. eigenvalues --    1.65981   1.66109   1.66219   1.66927   1.67062
 Alpha virt. eigenvalues --    1.67226   1.67368   1.67644   1.67723   1.67864
 Alpha virt. eigenvalues --    1.68351   1.68402   1.68565   1.68837   1.69153
 Alpha virt. eigenvalues --    1.69201   1.69533   1.69790   1.69916   1.70228
 Alpha virt. eigenvalues --    1.70263   1.70552   1.70770   1.71402   1.71457
 Alpha virt. eigenvalues --    1.71674   1.71863   1.72077   1.72299   1.72466
 Alpha virt. eigenvalues --    1.72672   1.73272   1.73554   1.73632   1.73881
 Alpha virt. eigenvalues --    1.74529   1.74629   1.74723   1.74942   1.75100
 Alpha virt. eigenvalues --    1.75497   1.75540   1.75662   1.76189   1.76290
 Alpha virt. eigenvalues --    1.76457   1.76667   1.76927   1.77092   1.77254
 Alpha virt. eigenvalues --    1.77457   1.77879   1.78060   1.78330   1.78589
 Alpha virt. eigenvalues --    1.78788   1.78820   1.79044   1.79729   1.79841
 Alpha virt. eigenvalues --    1.79956   1.80372   1.80396   1.80604   1.80832
 Alpha virt. eigenvalues --    1.81071   1.81333   1.81736   1.81988   1.82114
 Alpha virt. eigenvalues --    1.82395   1.82655   1.82953   1.83020   1.83432
 Alpha virt. eigenvalues --    1.83640   1.84219   1.84507   1.85079   1.85247
 Alpha virt. eigenvalues --    1.85345   1.85759   1.86169   1.86560   1.86945
 Alpha virt. eigenvalues --    1.87078   1.87266   1.87447   1.88032   1.88417
 Alpha virt. eigenvalues --    1.88616   1.88678   1.89197   1.89434   1.89789
 Alpha virt. eigenvalues --    1.90300   1.90323   1.90907   1.91128   1.91337
 Alpha virt. eigenvalues --    1.91641   1.92299   1.92837   1.92895   1.93400
 Alpha virt. eigenvalues --    1.93459   1.93932   1.94314   1.94733   1.94920
 Alpha virt. eigenvalues --    1.95576   1.95818   1.96154   1.96408   1.97137
 Alpha virt. eigenvalues --    1.97568   1.97986   1.98099   1.98473   1.98566
 Alpha virt. eigenvalues --    1.98861   1.99107   1.99594   1.99627   2.00013
 Alpha virt. eigenvalues --    2.00350   2.00573   2.00745   2.00878   2.01646
 Alpha virt. eigenvalues --    2.01733   2.02086   2.02147   2.02489   2.02793
 Alpha virt. eigenvalues --    2.03322   2.04112   2.04329   2.04512   2.04749
 Alpha virt. eigenvalues --    2.05816   2.06005   2.06381   2.06501   2.06811
 Alpha virt. eigenvalues --    2.07379   2.07552   2.07666   2.07869   2.08653
 Alpha virt. eigenvalues --    2.08956   2.09602   2.09869   2.10086   2.10482
 Alpha virt. eigenvalues --    2.10617   2.10876   2.11607   2.11902   2.12159
 Alpha virt. eigenvalues --    2.12675   2.13418   2.13508   2.13706   2.14342
 Alpha virt. eigenvalues --    2.14909   2.15159   2.15494   2.15809   2.16692
 Alpha virt. eigenvalues --    2.17027   2.17143   2.17327   2.17809   2.18582
 Alpha virt. eigenvalues --    2.19015   2.19395   2.19889   2.20102   2.20465
 Alpha virt. eigenvalues --    2.20715   2.21091   2.21212   2.21795   2.22033
 Alpha virt. eigenvalues --    2.22477   2.22757   2.23571   2.23834   2.23909
 Alpha virt. eigenvalues --    2.24410   2.24882   2.25231   2.25587   2.26107
 Alpha virt. eigenvalues --    2.26240   2.26710   2.27507   2.27631   2.27958
 Alpha virt. eigenvalues --    2.28353   2.28622   2.29385   2.29608   2.30113
 Alpha virt. eigenvalues --    2.30387   2.30629   2.30960   2.31488   2.32496
 Alpha virt. eigenvalues --    2.33423   2.33813   2.34092   2.34212   2.34772
 Alpha virt. eigenvalues --    2.35463   2.35955   2.36271   2.36869   2.37587
 Alpha virt. eigenvalues --    2.37802   2.39016   2.39642   2.39678   2.39978
 Alpha virt. eigenvalues --    2.40388   2.40878   2.41443   2.41688   2.42224
 Alpha virt. eigenvalues --    2.42655   2.42962   2.43764   2.44297   2.44651
 Alpha virt. eigenvalues --    2.45233   2.45897   2.45975   2.46020   2.47019
 Alpha virt. eigenvalues --    2.47385   2.48256   2.48813   2.49218   2.49266
 Alpha virt. eigenvalues --    2.49816   2.49976   2.50761   2.51266   2.51463
 Alpha virt. eigenvalues --    2.52092   2.52710   2.52991   2.53252   2.53662
 Alpha virt. eigenvalues --    2.54005   2.54616   2.54695   2.55456   2.55853
 Alpha virt. eigenvalues --    2.55973   2.56253   2.56717   2.56933   2.57288
 Alpha virt. eigenvalues --    2.57335   2.57688   2.58096   2.58438   2.58632
 Alpha virt. eigenvalues --    2.59156   2.59326   2.59582   2.60084   2.60468
 Alpha virt. eigenvalues --    2.60697   2.61402   2.61571   2.62079   2.62300
 Alpha virt. eigenvalues --    2.62753   2.62897   2.63077   2.63512   2.64160
 Alpha virt. eigenvalues --    2.64193   2.64778   2.65002   2.65686   2.66116
 Alpha virt. eigenvalues --    2.66465   2.66695   2.66829   2.67229   2.67502
 Alpha virt. eigenvalues --    2.67837   2.68180   2.69086   2.69200   2.69306
 Alpha virt. eigenvalues --    2.69838   2.70113   2.70597   2.71143   2.71251
 Alpha virt. eigenvalues --    2.71572   2.72127   2.72306   2.72511   2.72981
 Alpha virt. eigenvalues --    2.73254   2.73925   2.74367   2.74494   2.75074
 Alpha virt. eigenvalues --    2.75318   2.75627   2.75766   2.76151   2.76465
 Alpha virt. eigenvalues --    2.76838   2.77546   2.77693   2.78306   2.78541
 Alpha virt. eigenvalues --    2.79333   2.79677   2.80046   2.80363   2.81045
 Alpha virt. eigenvalues --    2.81732   2.82043   2.82642   2.82826   2.83017
 Alpha virt. eigenvalues --    2.83578   2.84150   2.85265   2.85538   2.86167
 Alpha virt. eigenvalues --    2.86861   2.86984   2.87607   2.88021   2.88206
 Alpha virt. eigenvalues --    2.88632   2.88747   2.90066   2.90127   2.90242
 Alpha virt. eigenvalues --    2.90611   2.91531   2.92058   2.92263   2.93599
 Alpha virt. eigenvalues --    2.94061   2.94394   2.95526   2.95732   2.96288
 Alpha virt. eigenvalues --    2.97304   2.97600   2.99510   3.00456   3.01080
 Alpha virt. eigenvalues --    3.02572   3.03441   3.05122   3.07498   3.08577
 Alpha virt. eigenvalues --    3.09008   3.10151   3.10341   3.11351   3.11541
 Alpha virt. eigenvalues --    3.13310   3.13896   3.15739   3.16810   3.18446
 Alpha virt. eigenvalues --    3.19206   3.20859   3.21760   3.22711   3.25211
 Alpha virt. eigenvalues --    3.27094   3.28502   3.29164   3.30518   3.32428
 Alpha virt. eigenvalues --    3.33414   3.34944   3.38499   3.40038   3.42558
 Alpha virt. eigenvalues --    3.43540   3.44731   3.48127   3.50161   3.50915
 Alpha virt. eigenvalues --    3.54851   3.60057   4.00482   4.01036   4.01540
 Alpha virt. eigenvalues --    4.02050   4.03418   4.04051   4.04713   4.05744
 Alpha virt. eigenvalues --    4.06261   4.06946   4.07256   4.07425   4.08737
 Alpha virt. eigenvalues --    4.09344   4.09890   4.10236   4.10972   4.11690
 Alpha virt. eigenvalues --    4.12059   4.12757   4.14858   4.15647   4.15975
 Alpha virt. eigenvalues --    4.16874   4.17888   4.18538   4.18620   4.19302
 Alpha virt. eigenvalues --    4.19842   4.20512   4.21650   4.22138   4.22981
 Alpha virt. eigenvalues --    4.23662   4.24695   4.25385   4.25811   4.26150
 Alpha virt. eigenvalues --    4.26498   4.27353   4.27658   4.27997   4.28280
 Alpha virt. eigenvalues --    4.28556   4.29278   4.29591   4.30102   4.31353
 Alpha virt. eigenvalues --    4.32729   4.33667   4.34580   4.34739   4.35719
 Alpha virt. eigenvalues --    4.37645   4.38501   4.39511   4.39815   4.40888
 Alpha virt. eigenvalues --    4.41245   4.42164   4.43107   4.43889   4.44609
 Alpha virt. eigenvalues --    4.44909   4.46753   4.48099   4.50014   4.50681
 Alpha virt. eigenvalues --    4.51595   4.53339   4.54065   4.54265   4.57386
 Alpha virt. eigenvalues --    4.57906   4.59711   4.60211   4.61884   4.64743
 Alpha virt. eigenvalues --    4.65262   4.66788   4.68564   4.71354   4.76777
 Alpha virt. eigenvalues --    4.78854   4.79569   4.81193   4.83516   4.84897
 Alpha virt. eigenvalues --    4.85868   4.91572   4.92657   4.97531   5.00348
 Alpha virt. eigenvalues --    5.02337   5.07957   5.12954   5.14689   5.23254
          Condensed to atoms (all electrons):
 Mulliken charges:
               1
     1  C   -0.361084
     2  C   -0.373811
     3  C    0.007786
     4  C   -0.385013
     5  C    0.073902
     6  C    0.086312
     7  C    0.008814
     8  C    0.089442
     9  C    0.061222
    10  C    0.128969
    11  C    0.093164
    12  C    0.041178
    13  C   -0.010845
    14  C    0.006324
    15  C    0.038724
    16  C    0.009599
    17  C    0.119414
    18  C    0.043759
    19  C    0.150358
    20  C    0.044754
    21  C   -0.382680
    22  C    0.007286
    23  C    0.180927
    24  C    0.092100
    25  C    0.186471
    26  C    0.089738
    27  C   -0.372084
    28  C   -0.376126
    29  C    0.133985
    30  C    0.086737
    31  C    0.081988
    32  C    0.091866
    33  C    0.009223
    34  C    0.003602
    35  C    0.032659
    36  C    0.035192
    37  C    0.045324
    38  C    0.077710
    39  C    0.060679
    40  C    0.039205
    41  C    0.080159
    42  C    0.118441
    43  C    0.053601
    44  C    0.125544
    45  C    0.153989
    46  C    0.078971
    47  C    0.127342
    48  C    0.116031
    49  C   -0.365621
    50  C   -0.382955
    51  C    0.153239
    52  C    0.113059
    53  C    0.106427
    54  C    0.015291
    55  C   -0.356470
    56  C   -0.014515
    57  C    0.108911
    58  C    0.010666
    59  C    0.130420
    60  C    0.080835
    61  C   -0.370113
    62  C   -0.380424
    63  C    0.124748
    64  C    0.127954
    65  C    0.127710
    66  C    0.127856
    67  C    0.128924
    68  C    0.121080
    69  C   -0.376875
    70  C   -0.372597
    71  C    0.092036
    72  C    0.092381
    73  C    0.024830
    74  C    0.025603
    75  C   -0.012035
    76  C   -0.009983
    77  C   -0.015884
    78  C   -0.045333
    79  C   -0.005104
    80  C   -0.371827
    81  C    0.007328
    82  C    0.076371
    83  C    0.121136
    84  C    0.069128
    85  Cl   0.031234
    86  Cl   0.023154
    87  Cl   0.022953
    88  Cl   0.027230
    89  Cl   0.028710
    90  Cl   0.028730
    91  Cl   0.016705
    92  Cl   0.016970
    93  Cl   0.008307
    94  Cl   0.021565
    95  Cl   0.001486
    96  Cl   0.002325
    97  Cl   0.023155
    98  Cl  -0.009570
 Sum of Mulliken charges =  -0.00000
 Mulliken charges with hydrogens summed into heavy atoms:
               1
     1  C   -0.361084
     2  C   -0.373811
     3  C    0.007786
     4  C   -0.385013
     5  C    0.073902
     6  C    0.086312
     7  C    0.008814
     8  C    0.089442
     9  C    0.061222
    10  C    0.128969
    11  C    0.093164
    12  C    0.041178
    13  C   -0.010845
    14  C    0.006324
    15  C    0.038724
    16  C    0.009599
    17  C    0.119414
    18  C    0.043759
    19  C    0.150358
    20  C    0.044754
    21  C   -0.382680
    22  C    0.007286
    23  C    0.180927
    24  C    0.092100
    25  C    0.186471
    26  C    0.089738
    27  C   -0.372084
    28  C   -0.376126
    29  C    0.133985
    30  C    0.086737
    31  C    0.081988
    32  C    0.091866
    33  C    0.009223
    34  C    0.003602
    35  C    0.032659
    36  C    0.035192
    37  C    0.045324
    38  C    0.077710
    39  C    0.060679
    40  C    0.039205
    41  C    0.080159
    42  C    0.118441
    43  C    0.053601
    44  C    0.125544
    45  C    0.153989
    46  C    0.078971
    47  C    0.127342
    48  C    0.116031
    49  C   -0.365621
    50  C   -0.382955
    51  C    0.153239
    52  C    0.113059
    53  C    0.106427
    54  C    0.015291
    55  C   -0.356470
    56  C   -0.014515
    57  C    0.108911
    58  C    0.010666
    59  C    0.130420
    60  C    0.080835
    61  C   -0.370113
    62  C   -0.380424
    63  C    0.124748
    64  C    0.127954
    65  C    0.127710
    66  C    0.127856
    67  C    0.128924
    68  C    0.121080
    69  C   -0.376875
    70  C   -0.372597
    71  C    0.092036
    72  C    0.092381
    73  C    0.024830
    74  C    0.025603
    75  C   -0.012035
    76  C   -0.009983
    77  C   -0.015884
    78  C   -0.045333
    79  C   -0.005104
    80  C   -0.371827
    81  C    0.007328
    82  C    0.076371
    83  C    0.121136
    84  C    0.069128
    85  Cl   0.031234
    86  Cl   0.023154
    87  Cl   0.022953
    88  Cl   0.027230
    89  Cl   0.028710
    90  Cl   0.028730
    91  Cl   0.016705
    92  Cl   0.016970
    93  Cl   0.008307
    94  Cl   0.021565
    95  Cl   0.001486
    96  Cl   0.002325
    97  Cl   0.023155
    98  Cl  -0.009570
 Electronic spatial extent (au):  <R**2>=          66443.5527
 Charge=              0.0000 electrons
 Dipole moment (field-independent basis, Debye):
    X=             -0.0010    Y=             -5.2248    Z=              0.1348  Tot=              5.2265
 Quadrupole moment (field-independent basis, Debye-Ang):
   XX=           -696.0833   YY=           -663.5353   ZZ=           -633.1264
   XY=              1.8126   XZ=             -4.0160   YZ=             -0.9149
 Traceless Quadrupole moment (field-independent basis, Debye-Ang):
   XX=            -31.8350   YY=              0.7130   ZZ=             31.1219
   XY=              1.8126   XZ=             -4.0160   YZ=             -0.9149
 Octapole moment (field-independent basis, Debye-Ang**2):
  XXX=            -62.9021  YYY=            -43.8796  ZZZ=            -23.6637  XYY=            -31.9739
  XXY=             32.7660  XXZ=              3.2618  XZZ=              2.4272  YZZ=             -5.1651
  YYZ=            -10.7989  XYZ=             23.4231
 Hexadecapole moment (field-independent basis, Debye-Ang**3):
 XXXX=         -38101.2534 YYYY=         -31557.6699 ZZZZ=         -23871.8452 XXXY=           -125.6467
 XXXZ=            153.8887 YYYX=             19.4663 YYYZ=            119.7653 ZZZX=            -76.2311
 ZZZY=             -6.6770 XXYY=         -11842.9993 XXZZ=         -10463.0706 YYZZ=          -9260.2938
 XXYZ=              3.6896 YYXZ=             17.6244 ZZXY=            -16.0921
 N-N= 2.607717405074D+04 E-N=-7.485871901335D+04  KE= 9.594215282298D+03
 No NMR shielding tensors so no spin-rotation constants.
 Leave Link  601 at Mon Jun 27 07:27:11 2022, MaxMem=  1342177280 cpu:              27.6 elap:               1.4
 (Enter /home/mkliu/g16/l9999.exe)
 1\1\GINC-NODE03\FOpt\RB3LYP\6-31G(d,p)\C84Cl14\MKLIU\27-Jun-2022\0\\#P
  opt b3lyp/6-31G(d, p) empiricaldispersion=GD3\\force\\0,1\C,8.2370396
 82,18.6525402491,10.5883086825\C,12.4930720463,20.005423664,8.91231175
 94\C,8.2634461047,26.8603028398,10.5236209381\C,12.5128228187,25.75689
 36948,8.8999634788\C,7.9661647048,18.974868605,9.1319313039\C,11.88574
 77797,19.5785950501,10.2254195784\C,7.9450098255,26.8133981405,9.13209
 89804\C,11.8998045769,26.1851090475,10.2127013824\C,8.9602686839,19.13
 77173712,8.1413211187\C,12.1427534329,20.2323196262,11.4045424785\C,12
 .1599438029,25.5475565766,11.3778163846\C,8.9551634227,26.6345617949,8
 .1466960478\C,10.3168832818,19.0775104028,8.5884825931\C,10.2957330462
 ,26.683052083,8.6100024033\C,10.6298962333,18.9884997674,10.0198163373
 \C,10.6170127691,26.7939135383,9.9848237175\C,9.6448784134,18.99733949
 69,11.0109069398\C,9.6039019341,26.7922245031,10.9848930993\C,9.914331
 7744,19.6595000971,12.2282374683\C,9.869875777,26.1074288217,12.227485
 184\C,8.7803799732,20.0738116805,13.1422798076\C,8.7823038392,25.51806
 89308,12.9056458518\C,7.4660570562,20.1805093669,12.3973333004\C,7.444
 329835,25.5965340089,12.4078724527\C,7.2166089239,19.531760265,11.2691
 601057\C,7.1891817965,26.2617432225,11.2538447114\C,6.1177333494,19.96
 53204628,10.326075317\C,6.0721319079,25.8400711412,10.3216315681\C,6.7
 167543915,19.5835097429,9.0020397276\C,6.6492864486,26.236914296,8.980
 3810403\C,6.3855783546,20.2443950264,7.8454334079\C,6.3442641879,25.57
 22130697,7.8423660187\C,7.3213467488,20.3456985874,6.8001629457\C,7.31
 15056603,25.4502932241,6.7928542628\C,8.6623981427,19.8774030329,6.942
 5187937\C,8.6578503911,25.8896235604,6.9493250798\C,9.7259591786,20.59
 57751141,6.2498337138\C,9.7226198711,25.1548096163,6.2720982263\C,11.0
 626245249,20.5745720286,6.8066317477\C,12.7152007282,22.1839844806,7.7
 793882529\C,12.7665595346,23.5844047636,7.7626746585\C,11.0696505705,2
 5.1855930997,6.8403778599\C,11.3265612392,19.7612647743,7.9464447791\C
 ,12.8867838866,21.4677935254,8.9613697816\C,12.9256473349,24.294830988
 6,8.9402661713\C,11.3330217954,25.9589676833,7.9365132952\C,13.1147159
 623,22.1723966016,10.1655210774\C,13.1219871849,23.5865735659,10.15380
 79586\C,13.0973673319,21.4010059503,11.4955967225\C,13.0859212653,24.3
 506785276,11.4725773309\C,12.4549805581,22.1981079776,12.6029669499\C,
 12.4097465855,23.5350596333,12.5598111735\C,11.1623395335,20.260966981
 8,12.411969983\C,11.1491190027,25.4780079982,12.4054082921\C,11.440556
 6166,21.3877144283,13.3815282164\C,11.3025801809,24.2821973856,13.1262
 674659\C,8.9596202022,21.4997185969,13.620174403\C,8.93449614,24.27145
 28776,13.6013103138\C,7.7348044848,22.2006736849,13.5078808676\C,7.713
 7032509,23.5637192434,13.5251341783\C,6.6798438973,21.4112216885,12.78
 66106886\C,6.6519927371,24.366082114,12.8047209409\C,6.1791552987,22.1
 883719508,11.5523645556\C,6.1699458717,23.6024540683,11.5550257729\C,5
 .8925112593,21.4876965848,10.3666686451\C,5.8778852245,24.3077031674,1
 0.368265742\C,5.5804413052,22.1920041313,9.178174058\C,5.5744169526,23
 .6035975096,9.1785279482\C,5.4221738731,21.4169102363,7.85273011\C,5.4
 03409434,24.380527205,7.8509183852\C,5.9298033324,22.2214524919,6.6748
 190569\C,5.9281703546,23.5820970644,6.6759030525\C,6.9981610607,21.517
 4748548,6.0249451722\C,6.9915445535,24.2954319525,6.0250807541\C,8.004
 746918,22.1837349377,5.3524343858\C,8.0100569932,23.6234682069,5.34757
 46459\C,9.3684030297,21.7193110241,5.4480591684\C,9.3644334001,24.0732
 732868,5.4363620822\C,11.8826204572,21.7211901247,6.6596564671\C,12.09
 42611237,24.1163517659,6.4979242278\C,10.2054362701,22.8746016678,5.37
 65514904\C,11.4554907374,22.8542924381,5.9614633118\C,10.1769039754,22
 .1595228457,13.695808275\C,10.1787363754,23.5924818005,13.6687693875\C
 l,4.5430364766,19.0802781384,10.68179294\Cl,3.6675416538,20.9130425018
 ,7.6305310209\Cl,3.6400224168,24.8466338155,7.6281989996\Cl,4.49636338
 8,26.6973174785,10.7088014301\Cl,5.249823314,20.9957035054,13.87411989
 35\Cl,5.2235577973,24.7682247391,13.8863752718\Cl,14.8163909496,20.858
 8801085,11.9010327622\Cl,14.7904412101,24.850287528,11.9689761427\Cl,1
 3.9554671065,18.9738418193,8.4490748588\Cl,13.935709154,26.8315507908,
 8.4389138755\Cl,7.9116885797,16.8497993963,10.9256862275\Cl,13.3323448
 774,24.7823455279,5.2906168696\Cl,8.6439595944,18.9066813726,14.570023
 0634\Cl,12.1835759338,20.7391824222,14.9699556127\\Version=ES64L-G16Re
 vA.03\State=1-A\HF=-9643.8379029\RMSD=5.727e-09\RMSF=2.115e-05\Dipole=
 -0.1959429,1.3988729,-1.4943378\Quadrupole=-23.3472569,11.2325404,12.1
 147165,-1.6077527,3.5076224,11.6285554\PG=C01 [X(C84Cl14)]\\@


 ASKING DUMB QUESTIONS IS EASIER THAN CORECTING DUMB MISTAKES.
 Job cpu time:       1 days 12 hours 26 minutes 51.7 seconds.
 Elapsed time:       0 days  1 hours 31 minutes 14.9 seconds.
 File lengths (MBytes):  RWF=   1429 Int=      0 D2E=      0 Chk=    179 Scr=      1
 Normal termination of Gaussian 16 at Mon Jun 27 07:27:13 2022.
