 Entering Gaussian System, Link 0=g16
 Input=14_addons_C84_14_Cl22_rank_8.gjf
 Output=14_addons_C84_14_Cl22_rank_8.log
 Initial command:
 /home/mkliu/g16/l1.exe "/data/scratch/Gau-125720.inp" -scrdir="/data/scratch/"
 Entering Link 1 = /home/mkliu/g16/l1.exe PID=    125721.
  
 Copyright (c) 1988,1990,1992,1993,1995,1998,2003,2009,2016,
            Gaussian, Inc.  All Rights Reserved.
  
 This is part of the Gaussian(R) 16 program.  It is based on
 the Gaussian(R) 09 system (copyright 2009, Gaussian, Inc.),
 the Gaussian(R) 03 system (copyright 2003, Gaussian, Inc.),
 the Gaussian(R) 98 system (copyright 1998, Gaussian, Inc.),
 the Gaussian(R) 94 system (copyright 1995, Gaussian, Inc.),
 the Gaussian 92(TM) system (copyright 1992, Gaussian, Inc.),
 the Gaussian 90(TM) system (copyright 1990, Gaussian, Inc.),
 the Gaussian 88(TM) system (copyright 1988, Gaussian, Inc.),
 the Gaussian 86(TM) system (copyright 1986, Carnegie Mellon
 University), and the Gaussian 82(TM) system (copyright 1983,
 Carnegie Mellon University). Gaussian is a federally registered
 trademark of Gaussian, Inc.
  
 This software contains proprietary and confidential information,
 including trade secrets, belonging to Gaussian, Inc.
  
 This software is provided under written license and may be
 used, copied, transmitted, or stored only in accord with that
 written license.
  
 The following legend is applicable only to US Government
 contracts under FAR:
  
                    RESTRICTED RIGHTS LEGEND
  
 Use, reproduction and disclosure by the US Government is
 subject to restrictions as set forth in subparagraphs (a)
 and (c) of the Commercial Computer Software - Restricted
 Rights clause in FAR 52.227-19.
  
 Gaussian, Inc.
 340 Quinnipiac St., Bldg. 40, Wallingford CT 06492
  
  
 ---------------------------------------------------------------
 Warning -- This program may not be used in any manner that
 competes with the business of Gaussian, Inc. or will provide
 assistance to any competitor of Gaussian, Inc.  The licensee
 of this program is prohibited from giving any competitor of
 Gaussian, Inc. access to this program.  By using this program,
 the user acknowledges that Gaussian, Inc. is engaged in the
 business of creating and licensing software in the field of
 computational chemistry and represents and warrants to the
 licensee that it is not a competitor of Gaussian, Inc. and that
 it will not use this program in any manner prohibited above.
 ---------------------------------------------------------------
  

 Cite this work as:
 Gaussian 16, Revision A.03,
 M. J. Frisch, G. W. Trucks, H. B. Schlegel, G. E. Scuseria, 
 M. A. Robb, J. R. Cheeseman, G. Scalmani, V. Barone, 
 G. A. Petersson, H. Nakatsuji, X. Li, M. Caricato, A. V. Marenich, 
 J. Bloino, B. G. Janesko, R. Gomperts, B. Mennucci, H. P. Hratchian, 
 J. V. Ortiz, A. F. Izmaylov, J. L. Sonnenberg, D. Williams-Young, 
 F. Ding, F. Lipparini, F. Egidi, J. Goings, B. Peng, A. Petrone, 
 T. Henderson, D. Ranasinghe, V. G. Zakrzewski, J. Gao, N. Rega, 
 G. Zheng, W. Liang, M. Hada, M. Ehara, K. Toyota, R. Fukuda, 
 J. Hasegawa, M. Ishida, T. Nakajima, Y. Honda, O. Kitao, H. Nakai, 
 T. Vreven, K. Throssell, J. A. Montgomery, Jr., J. E. Peralta, 
 F. Ogliaro, M. J. Bearpark, J. J. Heyd, E. N. Brothers, K. N. Kudin, 
 V. N. Staroverov, T. A. Keith, R. Kobayashi, J. Normand, 
 K. Raghavachari, A. P. Rendell, J. C. Burant, S. S. Iyengar, 
 J. Tomasi, M. Cossi, J. M. Millam, M. Klene, C. Adamo, R. Cammi, 
 J. W. Ochterski, R. L. Martin, K. Morokuma, O. Farkas, 
 J. B. Foresman, and D. J. Fox, Gaussian, Inc., Wallingford CT, 2016.
 
 ******************************************
 Gaussian 16:  ES64L-G16RevA.03 25-Dec-2016
                29-Jun-2022 
 ******************************************
 %mem=10GB
 %chk=14_addons_C84_14_Cl22_rank_8.chk
 %nprocshared=24
 Will use up to   24 processors via shared memory.
 ------------------------------------------------
 #P opt b3lyp/6-31G(d, p) empiricaldispersion=GD3
 ------------------------------------------------
 1/18=20,19=15,26=3,38=1/1,3;
 2/9=110,12=2,17=6,18=5,40=1/2;
 3/5=1,6=6,7=101,11=2,25=1,30=1,71=1,74=-5,124=31/1,2,3;
 4//1;
 5/5=2,38=5/2;
 6/7=2,8=2,9=2,10=2,28=1/1;
 7//1,2,3,16;
 1/18=20,19=15,26=3/3(2);
 2/9=110/2;
 99//99;
 2/9=110/2;
 3/5=1,6=6,7=101,11=2,25=1,30=1,71=1,74=-5,124=31/1,2,3;
 4/5=5,16=3,69=1/1;
 5/5=2,38=5/2;
 7//1,2,3,16;
 1/18=20,19=15,26=3/3(-5);
 2/9=110/2;
 6/7=2,8=2,9=2,10=2,19=2,28=1/1;
 99/9=1/99;
 Leave Link    1 at Wed Jun 29 10:40:49 2022, MaxMem=  1342177280 cpu:               0.7 elap:               0.1
 (Enter /home/mkliu/g16/l101.exe)
 -----
 force
 -----
 Symbolic Z-matrix:
 Charge =  0 Multiplicity = 1
 C                     8.28248   18.92987   10.52653 
 C                     12.48672   20.01566   8.89716 
 C                     8.26425   26.83321   10.52646 
 C                     12.48094   25.75034   8.90559 
 C                     7.9679    18.98459   9.16064 
 C                     11.87013   19.60327   10.1989 
 C                     7.95014   26.78665   9.14296 
 C                     11.87819   26.17645   10.21155 
 C                     8.96499   19.14958   8.15703 
 C                     12.11354   20.24886   11.37246 
 C                     12.1376   25.53305   11.37364 
 C                     8.95098   26.61554   8.16016 
 C                     10.28999   19.10027   8.60424 
 C                     10.28289   26.66638   8.62136 
 C                     10.60838   19.0102   9.98864 
 C                     10.6016   26.77855   9.99259 
 C                     9.61317   19.02547   10.98763 
 C                     9.59669   26.77014   10.98729 
 C                     9.89683   19.67874   12.22113 
 C                     9.8628    26.08925   12.21596 
 C                     8.77184   20.08653   13.13111 
 C                     8.78309   25.49644   12.89234 
 C                     7.44993   20.18608   12.41989 
 C                     7.45005   25.56676   12.39876 
 C                     7.2174    19.56313   11.26344 
 C                     7.19358   26.23253   11.24715 
 C                     6.10944   19.97795   10.33587 
 C                     6.08881   25.80628   10.32424 
 C                     6.67731   19.5731   9.01038 
 C                     6.66407   26.20165   8.99722 
 C                     6.37602   20.23304   7.87454 
 C                     6.36541   25.53374   7.86107 
 C                     7.33701   20.33833   6.82107 
 C                     7.32976   25.42596   6.81829 
 C                     8.66884   19.88847   6.97049 
 C                     8.66166   25.87651   6.97277 
 C                     9.72843   20.60711   6.30436 
 C                     9.72243   25.15728   6.30948 
 C                     11.06438   20.57222   6.84059 
 C                     12.66312   22.19004   7.78284 
 C                     12.66288   23.57817   7.78256 
 C                     11.05804   25.19301   6.85264 
 C                     11.33146   19.80101   7.93581 
 C                     12.83055   21.47991   8.95715 
 C                     12.82769   24.28529   8.95818 
 C                     11.32179   25.96009   7.94969 
 C                     13.04288   22.17826   10.15606 
 C                     13.04041   23.58053   10.1516 
 C                     13.05843   21.40835   11.46926 
 C                     13.05162   24.34159   11.46139 
 C                     12.4191   22.19637   12.57205 
 C                     12.38284   23.53127   12.53838 
 C                     11.12735   20.27185   12.386 
 C                     11.12992   25.46519   12.38954 
 C                     11.41609   21.3884   13.35013 
 C                     11.28111   24.26873   13.10434 
 C                     8.95567   21.499    13.60629 
 C                     8.93527   24.25776   13.5781 
 C                     7.73305   22.19711   13.4982 
 C                     7.71388   23.55546   13.50786 
 C                     6.67589   21.41432   12.78962 
 C                     6.66149   24.34865   12.79116 
 C                     6.22785   22.18394   11.54534 
 C                     6.22422   23.58703   11.54289 
 C                     5.94186   21.49102   10.36434 
 C                     5.93791   24.28528   10.36206 
 C                     5.63772   22.1861   9.18413 
 C                     5.63577   23.5867   9.18205 
 C                     5.43905   21.41038   7.88094 
 C                     5.43292   24.35347   7.87401 
 C                     5.95458   22.20169   6.71321 
 C                     5.95315   23.55749   6.71076 
 C                     7.01994   21.49231   6.07098 
 C                     7.01636   24.26747   6.06634 
 C                     8.04356   22.16407   5.40933 
 C                     8.0406    23.5998   5.4086 
 C                     9.37582   21.70503   5.50294 
 C                     9.37454   24.06346   5.50501 
 C                     12.08027   21.63876   6.50639 
 C                     12.07693   24.1317   6.50996 
 C                     10.22881   22.88487   5.4501 
 C                     11.47765   22.88517   5.93503 
 C                     10.16438   22.15515   13.67132 
 C                     10.16916   23.57864   13.64234 
 Cl                    4.53799   19.20324   10.73219 
 Cl                    3.70271   20.96579   7.74121 
 Cl                    3.69442   24.78716   7.72864 
 Cl                    4.50286   26.56031   10.69902 
 Cl                    5.22261   21.07831   13.803 
 Cl                    5.21083   24.70831   13.78775 
 Cl                    14.75755   20.91486   11.82908 
 Cl                    14.7498   24.77565   11.87397 
 Cl                    13.9373   19.04952   8.45049 
 Cl                    13.37234   20.95008   5.43648 
 Cl                    13.92949   26.71453   8.4424 
 Cl                    13.36259   24.82918   5.4376 
 Cl                    8.67216   18.93425   14.53556 
 Cl                    12.14972   20.74406   14.88607 
 
 ITRead=  0  0  0  0  0  0  0  0  0  0  0  0  0  0  0  0  0  0  0  0
 ITRead=  0  0  0  0  0  0  0  0  0  0  0  0  0  0  0  0  0  0  0  0
 ITRead=  0  0  0  0  0  0  0  0  0  0  0  0  0  0  0  0  0  0  0  0
 ITRead=  0  0  0  0  0  0  0  0  0  0  0  0  0  0  0  0  0  0  0  0
 ITRead=  0  0  0  0  0  0  0  0  0  0  0  0  0  0  0  0  0  0
 MicOpt= -1 -1 -1 -1 -1 -1 -1 -1 -1 -1 -1 -1 -1 -1 -1 -1 -1 -1 -1 -1
 MicOpt= -1 -1 -1 -1 -1 -1 -1 -1 -1 -1 -1 -1 -1 -1 -1 -1 -1 -1 -1 -1
 MicOpt= -1 -1 -1 -1 -1 -1 -1 -1 -1 -1 -1 -1 -1 -1 -1 -1 -1 -1 -1 -1
 MicOpt= -1 -1 -1 -1 -1 -1 -1 -1 -1 -1 -1 -1 -1 -1 -1 -1 -1 -1 -1 -1
 MicOpt= -1 -1 -1 -1 -1 -1 -1 -1 -1 -1 -1 -1 -1 -1 -1 -1 -1 -1
 NAtoms=     98 NQM=       98 NQMF=       0 NMMI=      0 NMMIF=      0
                NMic=       0 NMicF=      0.
                    Isotopes and Nuclear Properties:
 (Nuclear quadrupole moments (NQMom) in fm**2, nuclear magnetic moments (NMagM)
  in nuclear magnetons)

  Atom         1           2           3           4           5           6           7           8           9          10
 IAtWgt=          12          12          12          12          12          12          12          12          12          12
 AtmWgt=  12.0000000  12.0000000  12.0000000  12.0000000  12.0000000  12.0000000  12.0000000  12.0000000  12.0000000  12.0000000
 NucSpn=           0           0           0           0           0           0           0           0           0           0
 AtZEff=  -0.0000000  -0.0000000  -0.0000000  -0.0000000  -0.0000000  -0.0000000  -0.0000000  -0.0000000  -0.0000000  -0.0000000
 NQMom=    0.0000000   0.0000000   0.0000000   0.0000000   0.0000000   0.0000000   0.0000000   0.0000000   0.0000000   0.0000000
 NMagM=    0.0000000   0.0000000   0.0000000   0.0000000   0.0000000   0.0000000   0.0000000   0.0000000   0.0000000   0.0000000
 AtZNuc=   6.0000000   6.0000000   6.0000000   6.0000000   6.0000000   6.0000000   6.0000000   6.0000000   6.0000000   6.0000000

  Atom        11          12          13          14          15          16          17          18          19          20
 IAtWgt=          12          12          12          12          12          12          12          12          12          12
 AtmWgt=  12.0000000  12.0000000  12.0000000  12.0000000  12.0000000  12.0000000  12.0000000  12.0000000  12.0000000  12.0000000
 NucSpn=           0           0           0           0           0           0           0           0           0           0
 AtZEff=  -0.0000000  -0.0000000  -0.0000000  -0.0000000  -0.0000000  -0.0000000  -0.0000000  -0.0000000  -0.0000000  -0.0000000
 NQMom=    0.0000000   0.0000000   0.0000000   0.0000000   0.0000000   0.0000000   0.0000000   0.0000000   0.0000000   0.0000000
 NMagM=    0.0000000   0.0000000   0.0000000   0.0000000   0.0000000   0.0000000   0.0000000   0.0000000   0.0000000   0.0000000
 AtZNuc=   6.0000000   6.0000000   6.0000000   6.0000000   6.0000000   6.0000000   6.0000000   6.0000000   6.0000000   6.0000000

  Atom        21          22          23          24          25          26          27          28          29          30
 IAtWgt=          12          12          12          12          12          12          12          12          12          12
 AtmWgt=  12.0000000  12.0000000  12.0000000  12.0000000  12.0000000  12.0000000  12.0000000  12.0000000  12.0000000  12.0000000
 NucSpn=           0           0           0           0           0           0           0           0           0           0
 AtZEff=  -0.0000000  -0.0000000  -0.0000000  -0.0000000  -0.0000000  -0.0000000  -0.0000000  -0.0000000  -0.0000000  -0.0000000
 NQMom=    0.0000000   0.0000000   0.0000000   0.0000000   0.0000000   0.0000000   0.0000000   0.0000000   0.0000000   0.0000000
 NMagM=    0.0000000   0.0000000   0.0000000   0.0000000   0.0000000   0.0000000   0.0000000   0.0000000   0.0000000   0.0000000
 AtZNuc=   6.0000000   6.0000000   6.0000000   6.0000000   6.0000000   6.0000000   6.0000000   6.0000000   6.0000000   6.0000000

  Atom        31          32          33          34          35          36          37          38          39          40
 IAtWgt=          12          12          12          12          12          12          12          12          12          12
 AtmWgt=  12.0000000  12.0000000  12.0000000  12.0000000  12.0000000  12.0000000  12.0000000  12.0000000  12.0000000  12.0000000
 NucSpn=           0           0           0           0           0           0           0           0           0           0
 AtZEff=  -0.0000000  -0.0000000  -0.0000000  -0.0000000  -0.0000000  -0.0000000  -0.0000000  -0.0000000  -0.0000000  -0.0000000
 NQMom=    0.0000000   0.0000000   0.0000000   0.0000000   0.0000000   0.0000000   0.0000000   0.0000000   0.0000000   0.0000000
 NMagM=    0.0000000   0.0000000   0.0000000   0.0000000   0.0000000   0.0000000   0.0000000   0.0000000   0.0000000   0.0000000
 AtZNuc=   6.0000000   6.0000000   6.0000000   6.0000000   6.0000000   6.0000000   6.0000000   6.0000000   6.0000000   6.0000000

  Atom        41          42          43          44          45          46          47          48          49          50
 IAtWgt=          12          12          12          12          12          12          12          12          12          12
 AtmWgt=  12.0000000  12.0000000  12.0000000  12.0000000  12.0000000  12.0000000  12.0000000  12.0000000  12.0000000  12.0000000
 NucSpn=           0           0           0           0           0           0           0           0           0           0
 AtZEff=  -0.0000000  -0.0000000  -0.0000000  -0.0000000  -0.0000000  -0.0000000  -0.0000000  -0.0000000  -0.0000000  -0.0000000
 NQMom=    0.0000000   0.0000000   0.0000000   0.0000000   0.0000000   0.0000000   0.0000000   0.0000000   0.0000000   0.0000000
 NMagM=    0.0000000   0.0000000   0.0000000   0.0000000   0.0000000   0.0000000   0.0000000   0.0000000   0.0000000   0.0000000
 AtZNuc=   6.0000000   6.0000000   6.0000000   6.0000000   6.0000000   6.0000000   6.0000000   6.0000000   6.0000000   6.0000000

  Atom        51          52          53          54          55          56          57          58          59          60
 IAtWgt=          12          12          12          12          12          12          12          12          12          12
 AtmWgt=  12.0000000  12.0000000  12.0000000  12.0000000  12.0000000  12.0000000  12.0000000  12.0000000  12.0000000  12.0000000
 NucSpn=           0           0           0           0           0           0           0           0           0           0
 AtZEff=  -0.0000000  -0.0000000  -0.0000000  -0.0000000  -0.0000000  -0.0000000  -0.0000000  -0.0000000  -0.0000000  -0.0000000
 NQMom=    0.0000000   0.0000000   0.0000000   0.0000000   0.0000000   0.0000000   0.0000000   0.0000000   0.0000000   0.0000000
 NMagM=    0.0000000   0.0000000   0.0000000   0.0000000   0.0000000   0.0000000   0.0000000   0.0000000   0.0000000   0.0000000
 AtZNuc=   6.0000000   6.0000000   6.0000000   6.0000000   6.0000000   6.0000000   6.0000000   6.0000000   6.0000000   6.0000000

  Atom        61          62          63          64          65          66          67          68          69          70
 IAtWgt=          12          12          12          12          12          12          12          12          12          12
 AtmWgt=  12.0000000  12.0000000  12.0000000  12.0000000  12.0000000  12.0000000  12.0000000  12.0000000  12.0000000  12.0000000
 NucSpn=           0           0           0           0           0           0           0           0           0           0
 AtZEff=  -0.0000000  -0.0000000  -0.0000000  -0.0000000  -0.0000000  -0.0000000  -0.0000000  -0.0000000  -0.0000000  -0.0000000
 NQMom=    0.0000000   0.0000000   0.0000000   0.0000000   0.0000000   0.0000000   0.0000000   0.0000000   0.0000000   0.0000000
 NMagM=    0.0000000   0.0000000   0.0000000   0.0000000   0.0000000   0.0000000   0.0000000   0.0000000   0.0000000   0.0000000
 AtZNuc=   6.0000000   6.0000000   6.0000000   6.0000000   6.0000000   6.0000000   6.0000000   6.0000000   6.0000000   6.0000000

  Atom        71          72          73          74          75          76          77          78          79          80
 IAtWgt=          12          12          12          12          12          12          12          12          12          12
 AtmWgt=  12.0000000  12.0000000  12.0000000  12.0000000  12.0000000  12.0000000  12.0000000  12.0000000  12.0000000  12.0000000
 NucSpn=           0           0           0           0           0           0           0           0           0           0
 AtZEff=  -0.0000000  -0.0000000  -0.0000000  -0.0000000  -0.0000000  -0.0000000  -0.0000000  -0.0000000  -0.0000000  -0.0000000
 NQMom=    0.0000000   0.0000000   0.0000000   0.0000000   0.0000000   0.0000000   0.0000000   0.0000000   0.0000000   0.0000000
 NMagM=    0.0000000   0.0000000   0.0000000   0.0000000   0.0000000   0.0000000   0.0000000   0.0000000   0.0000000   0.0000000
 AtZNuc=   6.0000000   6.0000000   6.0000000   6.0000000   6.0000000   6.0000000   6.0000000   6.0000000   6.0000000   6.0000000

  Atom        81          82          83          84          85          86          87          88          89          90
 IAtWgt=          12          12          12          12          35          35          35          35          35          35
 AtmWgt=  12.0000000  12.0000000  12.0000000  12.0000000  34.9688527  34.9688527  34.9688527  34.9688527  34.9688527  34.9688527
 NucSpn=           0           0           0           0           3           3           3           3           3           3
 AtZEff=  -0.0000000  -0.0000000  -0.0000000  -0.0000000  -0.0000000  -0.0000000  -0.0000000  -0.0000000  -0.0000000  -0.0000000
 NQMom=    0.0000000   0.0000000   0.0000000   0.0000000  -8.1650000  -8.1650000  -8.1650000  -8.1650000  -8.1650000  -8.1650000
 NMagM=    0.0000000   0.0000000   0.0000000   0.0000000   0.8218740   0.8218740   0.8218740   0.8218740   0.8218740   0.8218740
 AtZNuc=   6.0000000   6.0000000   6.0000000   6.0000000  17.0000000  17.0000000  17.0000000  17.0000000  17.0000000  17.0000000

  Atom        91          92          93          94          95          96          97          98
 IAtWgt=          35          35          35          35          35          35          35          35
 AtmWgt=  34.9688527  34.9688527  34.9688527  34.9688527  34.9688527  34.9688527  34.9688527  34.9688527
 NucSpn=           3           3           3           3           3           3           3           3
 AtZEff=  -0.0000000  -0.0000000  -0.0000000  -0.0000000  -0.0000000  -0.0000000  -0.0000000  -0.0000000
 NQMom=   -8.1650000  -8.1650000  -8.1650000  -8.1650000  -8.1650000  -8.1650000  -8.1650000  -8.1650000
 NMagM=    0.8218740   0.8218740   0.8218740   0.8218740   0.8218740   0.8218740   0.8218740   0.8218740
 AtZNuc=  17.0000000  17.0000000  17.0000000  17.0000000  17.0000000  17.0000000  17.0000000  17.0000000
 Leave Link  101 at Wed Jun 29 10:40:50 2022, MaxMem=  1342177280 cpu:               6.7 elap:               0.3
 (Enter /home/mkliu/g16/l103.exe)

 GradGradGradGradGradGradGradGradGradGradGradGradGradGradGradGradGradGrad
 Berny optimization.
 Initialization pass.
                           ----------------------------
                           !    Initial Parameters    !
                           ! (Angstroms and Degrees)  !
 --------------------------                            --------------------------
 ! Name  Definition              Value          Derivative Info.                !
 --------------------------------------------------------------------------------
 ! R1    R(1,5)                  1.4027         estimate D2E/DX2                !
 ! R2    R(1,17)                 1.4115         estimate D2E/DX2                !
 ! R3    R(1,25)                 1.4417         estimate D2E/DX2                !
 ! R4    R(2,6)                  1.4983         estimate D2E/DX2                !
 ! R5    R(2,43)                 1.5182         estimate D2E/DX2                !
 ! R6    R(2,44)                 1.5053         estimate D2E/DX2                !
 ! R7    R(2,93)                 1.7992         estimate D2E/DX2                !
 ! R8    R(3,7)                  1.4195         estimate D2E/DX2                !
 ! R9    R(3,18)                 1.4113         estimate D2E/DX2                !
 ! R10   R(3,26)                 1.4236         estimate D2E/DX2                !
 ! R11   R(4,8)                  1.5001         estimate D2E/DX2                !
 ! R12   R(4,45)                 1.5065         estimate D2E/DX2                !
 ! R13   R(4,46)                 1.517          estimate D2E/DX2                !
 ! R14   R(4,95)                 1.8007         estimate D2E/DX2                !
 ! R15   R(5,9)                  1.4243         estimate D2E/DX2                !
 ! R16   R(5,29)                 1.4264         estimate D2E/DX2                !
 ! R17   R(6,10)                 1.3613         estimate D2E/DX2                !
 ! R18   R(6,15)                 1.4099         estimate D2E/DX2                !
 ! R19   R(7,12)                 1.4131         estimate D2E/DX2                !
 ! R20   R(7,30)                 1.4204         estimate D2E/DX2                !
 ! R21   R(8,11)                 1.3534         estimate D2E/DX2                !
 ! R22   R(8,16)                 1.4283         estimate D2E/DX2                !
 ! R23   R(9,13)                 1.3993         estimate D2E/DX2                !
 ! R24   R(9,35)                 1.4288         estimate D2E/DX2                !
 ! R25   R(10,49)                1.4989         estimate D2E/DX2                !
 ! R26   R(10,53)                1.4143         estimate D2E/DX2                !
 ! R27   R(11,50)                1.5042         estimate D2E/DX2                !
 ! R28   R(11,54)                1.4325         estimate D2E/DX2                !
 ! R29   R(12,14)                1.4104         estimate D2E/DX2                !
 ! R30   R(12,36)                1.4282         estimate D2E/DX2                !
 ! R31   R(13,15)                1.4234         estimate D2E/DX2                !
 ! R32   R(13,43)                1.4221         estimate D2E/DX2                !
 ! R33   R(14,16)                1.4122         estimate D2E/DX2                !
 ! R34   R(14,46)                1.4245         estimate D2E/DX2                !
 ! R35   R(15,17)                1.4102         estimate D2E/DX2                !
 ! R36   R(16,18)                1.414          estimate D2E/DX2                !
 ! R37   R(17,19)                1.4243         estimate D2E/DX2                !
 ! R38   R(18,20)                1.4297         estimate D2E/DX2                !
 ! R39   R(19,21)                1.5033         estimate D2E/DX2                !
 ! R40   R(19,53)                1.3759         estimate D2E/DX2                !
 ! R41   R(20,22)                1.4052         estimate D2E/DX2                !
 ! R42   R(20,54)                1.4231         estimate D2E/DX2                !
 ! R43   R(21,23)                1.5044         estimate D2E/DX2                !
 ! R44   R(21,57)                1.5016         estimate D2E/DX2                !
 ! R45   R(21,97)                1.8194         estimate D2E/DX2                !
 ! R46   R(22,24)                1.4232         estimate D2E/DX2                !
 ! R47   R(22,58)                1.424          estimate D2E/DX2                !
 ! R48   R(23,25)                1.334          estimate D2E/DX2                !
 ! R49   R(23,61)                1.4981         estimate D2E/DX2                !
 ! R50   R(24,26)                1.3547         estimate D2E/DX2                !
 ! R51   R(24,62)                1.5032         estimate D2E/DX2                !
 ! R52   R(25,27)                1.5033         estimate D2E/DX2                !
 ! R53   R(26,28)                1.5013         estimate D2E/DX2                !
 ! R54   R(27,29)                1.4978         estimate D2E/DX2                !
 ! R55   R(27,65)                1.5226         estimate D2E/DX2                !
 ! R56   R(27,85)                1.7963         estimate D2E/DX2                !
 ! R57   R(28,30)                1.4994         estimate D2E/DX2                !
 ! R58   R(28,66)                1.5289         estimate D2E/DX2                !
 ! R59   R(28,88)                1.7956         estimate D2E/DX2                !
 ! R60   R(29,31)                1.3477         estimate D2E/DX2                !
 ! R61   R(30,32)                1.3513         estimate D2E/DX2                !
 ! R62   R(31,33)                1.4298         estimate D2E/DX2                !
 ! R63   R(31,69)                1.5047         estimate D2E/DX2                !
 ! R64   R(32,34)                1.4244         estimate D2E/DX2                !
 ! R65   R(32,70)                1.5042         estimate D2E/DX2                !
 ! R66   R(33,35)                1.4137         estimate D2E/DX2                !
 ! R67   R(33,73)                1.4124         estimate D2E/DX2                !
 ! R68   R(34,36)                1.4145         estimate D2E/DX2                !
 ! R69   R(34,74)                1.4162         estimate D2E/DX2                !
 ! R70   R(35,37)                1.4432         estimate D2E/DX2                !
 ! R71   R(36,38)                1.4431         estimate D2E/DX2                !
 ! R72   R(37,39)                1.44           estimate D2E/DX2                !
 ! R73   R(37,77)                1.4043         estimate D2E/DX2                !
 ! R74   R(38,42)                1.4423         estimate D2E/DX2                !
 ! R75   R(38,78)                1.4017         estimate D2E/DX2                !
 ! R76   R(39,43)                1.3659         estimate D2E/DX2                !
 ! R77   R(39,79)                1.5104         estimate D2E/DX2                !
 ! R78   R(40,41)                1.3881         estimate D2E/DX2                !
 ! R79   R(40,44)                1.3825         estimate D2E/DX2                !
 ! R80   R(40,79)                1.5076         estimate D2E/DX2                !
 ! R81   R(41,45)                1.3818         estimate D2E/DX2                !
 ! R82   R(41,80)                1.5064         estimate D2E/DX2                !
 ! R83   R(42,46)                1.3644         estimate D2E/DX2                !
 ! R84   R(42,80)                1.5106         estimate D2E/DX2                !
 ! R85   R(44,47)                1.4036         estimate D2E/DX2                !
 ! R86   R(45,48)                1.4022         estimate D2E/DX2                !
 ! R87   R(47,48)                1.4023         estimate D2E/DX2                !
 ! R88   R(47,49)                1.5223         estimate D2E/DX2                !
 ! R89   R(48,50)                1.5149         estimate D2E/DX2                !
 ! R90   R(49,51)                1.4986         estimate D2E/DX2                !
 ! R91   R(49,91)                1.8055         estimate D2E/DX2                !
 ! R92   R(50,52)                1.5046         estimate D2E/DX2                !
 ! R93   R(50,92)                1.8007         estimate D2E/DX2                !
 ! R94   R(51,52)                1.3358         estimate D2E/DX2                !
 ! R95   R(51,55)                1.5047         estimate D2E/DX2                !
 ! R96   R(52,56)                1.4415         estimate D2E/DX2                !
 ! R97   R(53,55)                1.5032         estimate D2E/DX2                !
 ! R98   R(54,56)                1.4019         estimate D2E/DX2                !
 ! R99   R(55,83)                1.5026         estimate D2E/DX2                !
 ! R100  R(55,98)                1.82           estimate D2E/DX2                !
 ! R101  R(56,84)                1.415          estimate D2E/DX2                !
 ! R102  R(57,59)                1.412          estimate D2E/DX2                !
 ! R103  R(57,83)                1.3769         estimate D2E/DX2                !
 ! R104  R(58,60)                1.4107         estimate D2E/DX2                !
 ! R105  R(58,84)                1.4099         estimate D2E/DX2                !
 ! R106  R(59,60)                1.3585         estimate D2E/DX2                !
 ! R107  R(59,61)                1.4941         estimate D2E/DX2                !
 ! R108  R(60,62)                1.5001         estimate D2E/DX2                !
 ! R109  R(61,63)                1.5301         estimate D2E/DX2                !
 ! R110  R(61,89)                1.8033         estimate D2E/DX2                !
 ! R111  R(62,64)                1.5263         estimate D2E/DX2                !
 ! R112  R(62,90)                1.7964         estimate D2E/DX2                !
 ! R113  R(63,64)                1.4031         estimate D2E/DX2                !
 ! R114  R(63,65)                1.3988         estimate D2E/DX2                !
 ! R115  R(64,66)                1.4014         estimate D2E/DX2                !
 ! R116  R(65,67)                1.403          estimate D2E/DX2                !
 ! R117  R(66,68)                1.4042         estimate D2E/DX2                !
 ! R118  R(67,68)                1.4006         estimate D2E/DX2                !
 ! R119  R(67,69)                1.5295         estimate D2E/DX2                !
 ! R120  R(68,70)                1.5297         estimate D2E/DX2                !
 ! R121  R(69,71)                1.5018         estimate D2E/DX2                !
 ! R122  R(69,86)                1.7978         estimate D2E/DX2                !
 ! R123  R(70,72)                1.5025         estimate D2E/DX2                !
 ! R124  R(70,87)                1.7977         estimate D2E/DX2                !
 ! R125  R(71,72)                1.3558         estimate D2E/DX2                !
 ! R126  R(71,73)                1.432          estimate D2E/DX2                !
 ! R127  R(72,74)                1.4317         estimate D2E/DX2                !
 ! R128  R(73,75)                1.3917         estimate D2E/DX2                !
 ! R129  R(74,76)                1.3883         estimate D2E/DX2                !
 ! R130  R(75,76)                1.4357         estimate D2E/DX2                !
 ! R131  R(75,77)                1.4122         estimate D2E/DX2                !
 ! R132  R(76,78)                1.4155         estimate D2E/DX2                !
 ! R133  R(77,81)                1.4569         estimate D2E/DX2                !
 ! R134  R(78,81)                1.4567         estimate D2E/DX2                !
 ! R135  R(79,82)                1.4977         estimate D2E/DX2                !
 ! R136  R(79,94)                1.8134         estimate D2E/DX2                !
 ! R137  R(80,82)                1.4978         estimate D2E/DX2                !
 ! R138  R(80,96)                1.8137         estimate D2E/DX2                !
 ! R139  R(81,82)                1.3397         estimate D2E/DX2                !
 ! R140  R(83,84)                1.4238         estimate D2E/DX2                !
 ! A1    A(5,1,17)             121.7934         estimate D2E/DX2                !
 ! A2    A(5,1,25)             108.3552         estimate D2E/DX2                !
 ! A3    A(17,1,25)            119.9828         estimate D2E/DX2                !
 ! A4    A(6,2,43)             101.4252         estimate D2E/DX2                !
 ! A5    A(6,2,44)             109.0941         estimate D2E/DX2                !
 ! A6    A(6,2,93)             113.5586         estimate D2E/DX2                !
 ! A7    A(43,2,44)            109.6688         estimate D2E/DX2                !
 ! A8    A(43,2,93)            112.3571         estimate D2E/DX2                !
 ! A9    A(44,2,93)            110.3706         estimate D2E/DX2                !
 ! A10   A(7,3,18)             121.7165         estimate D2E/DX2                !
 ! A11   A(7,3,26)             108.2495         estimate D2E/DX2                !
 ! A12   A(18,3,26)            121.7299         estimate D2E/DX2                !
 ! A13   A(8,4,45)             109.7755         estimate D2E/DX2                !
 ! A14   A(8,4,46)             101.6702         estimate D2E/DX2                !
 ! A15   A(8,4,95)             113.27           estimate D2E/DX2                !
 ! A16   A(45,4,46)            109.4107         estimate D2E/DX2                !
 ! A17   A(45,4,95)            110.1542         estimate D2E/DX2                !
 ! A18   A(46,4,95)            112.2438         estimate D2E/DX2                !
 ! A19   A(1,5,9)              122.2526         estimate D2E/DX2                !
 ! A20   A(1,5,29)             108.7594         estimate D2E/DX2                !
 ! A21   A(9,5,29)             120.7564         estimate D2E/DX2                !
 ! A22   A(2,6,10)             123.0158         estimate D2E/DX2                !
 ! A23   A(2,6,15)             110.7624         estimate D2E/DX2                !
 ! A24   A(10,6,15)            119.2115         estimate D2E/DX2                !
 ! A25   A(3,7,12)             121.6753         estimate D2E/DX2                !
 ! A26   A(3,7,30)             108.2931         estimate D2E/DX2                !
 ! A27   A(12,7,30)            121.3366         estimate D2E/DX2                !
 ! A28   A(4,8,11)             122.3748         estimate D2E/DX2                !
 ! A29   A(4,8,16)             110.2055         estimate D2E/DX2                !
 ! A30   A(11,8,16)            120.2209         estimate D2E/DX2                !
 ! A31   A(5,9,13)             115.6966         estimate D2E/DX2                !
 ! A32   A(5,9,35)             119.9966         estimate D2E/DX2                !
 ! A33   A(13,9,35)            118.6779         estimate D2E/DX2                !
 ! A34   A(6,10,49)            122.3604         estimate D2E/DX2                !
 ! A35   A(6,10,53)            120.0531         estimate D2E/DX2                !
 ! A36   A(49,10,53)           112.3776         estimate D2E/DX2                !
 ! A37   A(8,11,50)            122.895          estimate D2E/DX2                !
 ! A38   A(8,11,54)            119.7762         estimate D2E/DX2                !
 ! A39   A(50,11,54)           110.3985         estimate D2E/DX2                !
 ! A40   A(7,12,14)            115.9161         estimate D2E/DX2                !
 ! A41   A(7,12,36)            119.8282         estimate D2E/DX2                !
 ! A42   A(14,12,36)           118.8035         estimate D2E/DX2                !
 ! A43   A(9,13,15)            121.66           estimate D2E/DX2                !
 ! A44   A(9,13,43)            121.7265         estimate D2E/DX2                !
 ! A45   A(15,13,43)           108.9355         estimate D2E/DX2                !
 ! A46   A(12,14,16)           122.2407         estimate D2E/DX2                !
 ! A47   A(12,14,46)           121.1078         estimate D2E/DX2                !
 ! A48   A(16,14,46)           109.4271         estimate D2E/DX2                !
 ! A49   A(6,15,13)            108.5785         estimate D2E/DX2                !
 ! A50   A(6,15,17)            121.4231         estimate D2E/DX2                !
 ! A51   A(13,15,17)           122.0354         estimate D2E/DX2                !
 ! A52   A(8,16,14)            108.4856         estimate D2E/DX2                !
 ! A53   A(8,16,18)            121.6577         estimate D2E/DX2                !
 ! A54   A(14,16,18)           121.4786         estimate D2E/DX2                !
 ! A55   A(1,17,15)            115.6684         estimate D2E/DX2                !
 ! A56   A(1,17,19)            120.1123         estimate D2E/DX2                !
 ! A57   A(15,17,19)           118.5486         estimate D2E/DX2                !
 ! A58   A(3,18,16)            116.1688         estimate D2E/DX2                !
 ! A59   A(3,18,20)            118.531          estimate D2E/DX2                !
 ! A60   A(16,18,20)           118.3662         estimate D2E/DX2                !
 ! A61   A(17,19,21)           119.9731         estimate D2E/DX2                !
 ! A62   A(17,19,53)           118.6586         estimate D2E/DX2                !
 ! A63   A(21,19,53)           118.6718         estimate D2E/DX2                !
 ! A64   A(18,20,22)           118.1343         estimate D2E/DX2                !
 ! A65   A(18,20,54)           118.6459         estimate D2E/DX2                !
 ! A66   A(22,20,54)           116.132          estimate D2E/DX2                !
 ! A67   A(19,21,23)           112.9139         estimate D2E/DX2                !
 ! A68   A(19,21,57)           110.8003         estimate D2E/DX2                !
 ! A69   A(19,21,97)           109.6618         estimate D2E/DX2                !
 ! A70   A(23,21,57)           101.2411         estimate D2E/DX2                !
 ! A71   A(23,21,97)           111.021          estimate D2E/DX2                !
 ! A72   A(57,21,97)           110.9882         estimate D2E/DX2                !
 ! A73   A(20,22,24)           122.1332         estimate D2E/DX2                !
 ! A74   A(20,22,58)           121.1069         estimate D2E/DX2                !
 ! A75   A(24,22,58)           108.0646         estimate D2E/DX2                !
 ! A76   A(21,23,25)           122.1479         estimate D2E/DX2                !
 ! A77   A(21,23,61)           113.0524         estimate D2E/DX2                !
 ! A78   A(25,23,61)           120.4475         estimate D2E/DX2                !
 ! A79   A(22,24,26)           119.7634         estimate D2E/DX2                !
 ! A80   A(22,24,62)           111.1479         estimate D2E/DX2                !
 ! A81   A(26,24,62)           121.3887         estimate D2E/DX2                !
 ! A82   A(1,25,23)            121.2962         estimate D2E/DX2                !
 ! A83   A(1,25,27)            110.5056         estimate D2E/DX2                !
 ! A84   A(23,25,27)           122.3101         estimate D2E/DX2                !
 ! A85   A(3,26,24)            119.6921         estimate D2E/DX2                !
 ! A86   A(3,26,28)            111.2249         estimate D2E/DX2                !
 ! A87   A(24,26,28)           121.4901         estimate D2E/DX2                !
 ! A88   A(25,27,29)           101.0712         estimate D2E/DX2                !
 ! A89   A(25,27,65)           110.1077         estimate D2E/DX2                !
 ! A90   A(25,27,85)           112.93           estimate D2E/DX2                !
 ! A91   A(29,27,65)           109.0798         estimate D2E/DX2                !
 ! A92   A(29,27,85)           114.2277         estimate D2E/DX2                !
 ! A93   A(65,27,85)           109.158          estimate D2E/DX2                !
 ! A94   A(26,28,30)           100.7704         estimate D2E/DX2                !
 ! A95   A(26,28,66)           109.8687         estimate D2E/DX2                !
 ! A96   A(26,28,88)           113.7286         estimate D2E/DX2                !
 ! A97   A(30,28,66)           108.7886         estimate D2E/DX2                !
 ! A98   A(30,28,88)           114.3842         estimate D2E/DX2                !
 ! A99   A(66,28,88)           108.9905         estimate D2E/DX2                !
 ! A100  A(5,29,27)            111.1827         estimate D2E/DX2                !
 ! A101  A(5,29,31)            119.5431         estimate D2E/DX2                !
 ! A102  A(27,29,31)           121.9194         estimate D2E/DX2                !
 ! A103  A(7,30,28)            111.4186         estimate D2E/DX2                !
 ! A104  A(7,30,32)            119.3366         estimate D2E/DX2                !
 ! A105  A(28,30,32)           121.9363         estimate D2E/DX2                !
 ! A106  A(29,31,33)           120.4478         estimate D2E/DX2                !
 ! A107  A(29,31,69)           121.2484         estimate D2E/DX2                !
 ! A108  A(33,31,69)           111.3481         estimate D2E/DX2                !
 ! A109  A(30,32,34)           120.2166         estimate D2E/DX2                !
 ! A110  A(30,32,70)           121.1697         estimate D2E/DX2                !
 ! A111  A(34,32,70)           111.5068         estimate D2E/DX2                !
 ! A112  A(31,33,35)           122.1329         estimate D2E/DX2                !
 ! A113  A(31,33,73)           107.4922         estimate D2E/DX2                !
 ! A114  A(35,33,73)           121.8455         estimate D2E/DX2                !
 ! A115  A(32,34,36)           122.2371         estimate D2E/DX2                !
 ! A116  A(32,34,74)           107.5043         estimate D2E/DX2                !
 ! A117  A(36,34,74)           121.7965         estimate D2E/DX2                !
 ! A118  A(9,35,33)            116.5903         estimate D2E/DX2                !
 ! A119  A(9,35,37)            119.2497         estimate D2E/DX2                !
 ! A120  A(33,35,37)           118.9757         estimate D2E/DX2                !
 ! A121  A(12,36,34)           116.5105         estimate D2E/DX2                !
 ! A122  A(12,36,38)           119.4144         estimate D2E/DX2                !
 ! A123  A(34,36,38)           118.8946         estimate D2E/DX2                !
 ! A124  A(35,37,39)           119.815          estimate D2E/DX2                !
 ! A125  A(35,37,77)           117.928          estimate D2E/DX2                !
 ! A126  A(39,37,77)           117.6726         estimate D2E/DX2                !
 ! A127  A(36,38,42)           119.6876         estimate D2E/DX2                !
 ! A128  A(36,38,78)           118.0539         estimate D2E/DX2                !
 ! A129  A(42,38,78)           117.731          estimate D2E/DX2                !
 ! A130  A(37,39,43)           119.5835         estimate D2E/DX2                !
 ! A131  A(37,39,79)           121.6351         estimate D2E/DX2                !
 ! A132  A(43,39,79)           116.3989         estimate D2E/DX2                !
 ! A133  A(41,40,44)           120.9206         estimate D2E/DX2                !
 ! A134  A(41,40,79)           111.4329         estimate D2E/DX2                !
 ! A135  A(44,40,79)           125.3213         estimate D2E/DX2                !
 ! A136  A(40,41,45)           120.7671         estimate D2E/DX2                !
 ! A137  A(40,41,80)           111.5734         estimate D2E/DX2                !
 ! A138  A(45,41,80)           125.2483         estimate D2E/DX2                !
 ! A139  A(38,42,46)           119.7195         estimate D2E/DX2                !
 ! A140  A(38,42,80)           121.4509         estimate D2E/DX2                !
 ! A141  A(46,42,80)           116.5528         estimate D2E/DX2                !
 ! A142  A(2,43,13)            109.2266         estimate D2E/DX2                !
 ! A143  A(2,43,39)            125.2193         estimate D2E/DX2                !
 ! A144  A(13,43,39)           120.79           estimate D2E/DX2                !
 ! A145  A(2,44,40)            115.9852         estimate D2E/DX2                !
 ! A146  A(2,44,47)            123.5433         estimate D2E/DX2                !
 ! A147  A(40,44,47)           119.2281         estimate D2E/DX2                !
 ! A148  A(4,45,41)            116.1377         estimate D2E/DX2                !
 ! A149  A(4,45,48)            123.6022         estimate D2E/DX2                !
 ! A150  A(41,45,48)           119.0136         estimate D2E/DX2                !
 ! A151  A(4,46,14)            109.1892         estimate D2E/DX2                !
 ! A152  A(4,46,42)            125.2142         estimate D2E/DX2                !
 ! A153  A(14,46,42)           121.1243         estimate D2E/DX2                !
 ! A154  A(44,47,48)           119.6394         estimate D2E/DX2                !
 ! A155  A(44,47,49)           119.1264         estimate D2E/DX2                !
 ! A156  A(48,47,49)           120.5642         estimate D2E/DX2                !
 ! A157  A(45,48,47)           120.37           estimate D2E/DX2                !
 ! A158  A(45,48,50)           118.979          estimate D2E/DX2                !
 ! A159  A(47,48,50)           119.9748         estimate D2E/DX2                !
 ! A160  A(10,49,47)           109.2127         estimate D2E/DX2                !
 ! A161  A(10,49,51)           100.6819         estimate D2E/DX2                !
 ! A162  A(10,49,91)           113.2462         estimate D2E/DX2                !
 ! A163  A(47,49,51)           111.3759         estimate D2E/DX2                !
 ! A164  A(47,49,91)           108.6478         estimate D2E/DX2                !
 ! A165  A(51,49,91)           113.4869         estimate D2E/DX2                !
 ! A166  A(11,50,48)           110.0592         estimate D2E/DX2                !
 ! A167  A(11,50,52)           101.4345         estimate D2E/DX2                !
 ! A168  A(11,50,92)           113.2962         estimate D2E/DX2                !
 ! A169  A(48,50,52)           110.1835         estimate D2E/DX2                !
 ! A170  A(48,50,92)           109.0375         estimate D2E/DX2                !
 ! A171  A(52,50,92)           112.6442         estimate D2E/DX2                !
 ! A172  A(49,51,52)           121.2314         estimate D2E/DX2                !
 ! A173  A(49,51,55)           112.4903         estimate D2E/DX2                !
 ! A174  A(52,51,55)           122.1087         estimate D2E/DX2                !
 ! A175  A(50,52,51)           122.9685         estimate D2E/DX2                !
 ! A176  A(50,52,56)           110.1961         estimate D2E/DX2                !
 ! A177  A(51,52,56)           121.4719         estimate D2E/DX2                !
 ! A178  A(10,53,19)           122.0537         estimate D2E/DX2                !
 ! A179  A(10,53,55)           109.7407         estimate D2E/DX2                !
 ! A180  A(19,53,55)           124.6691         estimate D2E/DX2                !
 ! A181  A(11,54,20)           121.2703         estimate D2E/DX2                !
 ! A182  A(11,54,56)           109.0358         estimate D2E/DX2                !
 ! A183  A(20,54,56)           122.1731         estimate D2E/DX2                !
 ! A184  A(51,55,53)           101.258          estimate D2E/DX2                !
 ! A185  A(51,55,83)           113.0662         estimate D2E/DX2                !
 ! A186  A(51,55,98)           110.9642         estimate D2E/DX2                !
 ! A187  A(53,55,83)           110.8617         estimate D2E/DX2                !
 ! A188  A(53,55,98)           110.8383         estimate D2E/DX2                !
 ! A189  A(83,55,98)           109.6362         estimate D2E/DX2                !
 ! A190  A(52,56,54)           108.5935         estimate D2E/DX2                !
 ! A191  A(52,56,84)           120.0259         estimate D2E/DX2                !
 ! A192  A(54,56,84)           121.6924         estimate D2E/DX2                !
 ! A193  A(21,57,59)           109.5627         estimate D2E/DX2                !
 ! A194  A(21,57,83)           124.7994         estimate D2E/DX2                !
 ! A195  A(59,57,83)           121.8785         estimate D2E/DX2                !
 ! A196  A(22,58,60)           108.4547         estimate D2E/DX2                !
 ! A197  A(22,58,84)           122.308          estimate D2E/DX2                !
 ! A198  A(60,58,84)           121.3459         estimate D2E/DX2                !
 ! A199  A(57,59,60)           120.3987         estimate D2E/DX2                !
 ! A200  A(57,59,61)           112.9492         estimate D2E/DX2                !
 ! A201  A(60,59,61)           121.1463         estimate D2E/DX2                !
 ! A202  A(58,60,59)           119.073          estimate D2E/DX2                !
 ! A203  A(58,60,62)           111.5899         estimate D2E/DX2                !
 ! A204  A(59,60,62)           122.3571         estimate D2E/DX2                !
 ! A205  A(23,61,59)           100.4282         estimate D2E/DX2                !
 ! A206  A(23,61,63)           111.2822         estimate D2E/DX2                !
 ! A207  A(23,61,89)           113.7224         estimate D2E/DX2                !
 ! A208  A(59,61,63)           109.2275         estimate D2E/DX2                !
 ! A209  A(59,61,89)           113.661          estimate D2E/DX2                !
 ! A210  A(63,61,89)           108.3437         estimate D2E/DX2                !
 ! A211  A(24,62,60)           100.6713         estimate D2E/DX2                !
 ! A212  A(24,62,64)           109.948          estimate D2E/DX2                !
 ! A213  A(24,62,90)           113.9668         estimate D2E/DX2                !
 ! A214  A(60,62,64)           109.1406         estimate D2E/DX2                !
 ! A215  A(60,62,90)           114.0377         estimate D2E/DX2                !
 ! A216  A(64,62,90)           108.8008         estimate D2E/DX2                !
 ! A217  A(61,63,64)           120.3413         estimate D2E/DX2                !
 ! A218  A(61,63,65)           119.8201         estimate D2E/DX2                !
 ! A219  A(64,63,65)           119.561          estimate D2E/DX2                !
 ! A220  A(62,64,63)           119.7911         estimate D2E/DX2                !
 ! A221  A(62,64,66)           119.9367         estimate D2E/DX2                !
 ! A222  A(63,64,66)           120.0169         estimate D2E/DX2                !
 ! A223  A(27,65,63)           119.0481         estimate D2E/DX2                !
 ! A224  A(27,65,67)           120.0292         estimate D2E/DX2                !
 ! A225  A(63,65,67)           120.6047         estimate D2E/DX2                !
 ! A226  A(28,66,64)           119.759          estimate D2E/DX2                !
 ! A227  A(28,66,68)           119.694          estimate D2E/DX2                !
 ! A228  A(64,66,68)           120.2762         estimate D2E/DX2                !
 ! A229  A(65,67,68)           119.7988         estimate D2E/DX2                !
 ! A230  A(65,67,69)           119.5773         estimate D2E/DX2                !
 ! A231  A(68,67,69)           120.3788         estimate D2E/DX2                !
 ! A232  A(66,68,67)           119.7328         estimate D2E/DX2                !
 ! A233  A(66,68,70)           119.85           estimate D2E/DX2                !
 ! A234  A(67,68,70)           120.1788         estimate D2E/DX2                !
 ! A235  A(31,69,67)           108.6368         estimate D2E/DX2                !
 ! A236  A(31,69,71)           101.257          estimate D2E/DX2                !
 ! A237  A(31,69,86)           114.0535         estimate D2E/DX2                !
 ! A238  A(67,69,71)           110.5278         estimate D2E/DX2                !
 ! A239  A(67,69,86)           108.4868         estimate D2E/DX2                !
 ! A240  A(71,69,86)           113.6652         estimate D2E/DX2                !
 ! A241  A(32,70,68)           108.5689         estimate D2E/DX2                !
 ! A242  A(32,70,72)           101.2083         estimate D2E/DX2                !
 ! A243  A(32,70,87)           114.1749         estimate D2E/DX2                !
 ! A244  A(68,70,72)           110.5213         estimate D2E/DX2                !
 ! A245  A(68,70,87)           108.561          estimate D2E/DX2                !
 ! A246  A(72,70,87)           113.5821         estimate D2E/DX2                !
 ! A247  A(69,71,72)           121.8658         estimate D2E/DX2                !
 ! A248  A(69,71,73)           110.0641         estimate D2E/DX2                !
 ! A249  A(72,71,73)           119.6923         estimate D2E/DX2                !
 ! A250  A(70,72,71)           121.9215         estimate D2E/DX2                !
 ! A251  A(70,72,74)           110.0537         estimate D2E/DX2                !
 ! A252  A(71,72,74)           119.7312         estimate D2E/DX2                !
 ! A253  A(33,73,71)           109.4859         estimate D2E/DX2                !
 ! A254  A(33,73,75)           118.7994         estimate D2E/DX2                !
 ! A255  A(71,73,75)           121.4198         estimate D2E/DX2                !
 ! A256  A(34,74,72)           109.3292         estimate D2E/DX2                !
 ! A257  A(34,74,76)           118.795          estimate D2E/DX2                !
 ! A258  A(72,74,76)           121.5085         estimate D2E/DX2                !
 ! A259  A(73,75,76)           118.7776         estimate D2E/DX2                !
 ! A260  A(73,75,77)           120.3616         estimate D2E/DX2                !
 ! A261  A(76,75,77)           109.0882         estimate D2E/DX2                !
 ! A262  A(74,76,75)           118.8287         estimate D2E/DX2                !
 ! A263  A(74,76,78)           120.3605         estimate D2E/DX2                !
 ! A264  A(75,76,78)           109.0005         estimate D2E/DX2                !
 ! A265  A(37,77,75)           121.9268         estimate D2E/DX2                !
 ! A266  A(37,77,81)           120.4546         estimate D2E/DX2                !
 ! A267  A(75,77,81)           106.6607         estimate D2E/DX2                !
 ! A268  A(38,78,76)           121.9109         estimate D2E/DX2                !
 ! A269  A(38,78,81)           120.4962         estimate D2E/DX2                !
 ! A270  A(76,78,81)           106.5628         estimate D2E/DX2                !
 ! A271  A(39,79,40)           109.323          estimate D2E/DX2                !
 ! A272  A(39,79,82)           113.6686         estimate D2E/DX2                !
 ! A273  A(39,79,94)           109.9753         estimate D2E/DX2                !
 ! A274  A(40,79,82)           100.0346         estimate D2E/DX2                !
 ! A275  A(40,79,94)           111.2808         estimate D2E/DX2                !
 ! A276  A(82,79,94)           112.1885         estimate D2E/DX2                !
 ! A277  A(41,80,42)           109.2007         estimate D2E/DX2                !
 ! A278  A(41,80,82)           100.0262         estimate D2E/DX2                !
 ! A279  A(41,80,96)           111.4121         estimate D2E/DX2                !
 ! A280  A(42,80,82)           113.6977         estimate D2E/DX2                !
 ! A281  A(42,80,96)           110.0027         estimate D2E/DX2                !
 ! A282  A(82,80,96)           112.1303         estimate D2E/DX2                !
 ! A283  A(77,81,78)           108.0907         estimate D2E/DX2                !
 ! A284  A(77,81,82)           122.1985         estimate D2E/DX2                !
 ! A285  A(78,81,82)           122.1991         estimate D2E/DX2                !
 ! A286  A(79,82,80)           112.6541         estimate D2E/DX2                !
 ! A287  A(79,82,81)           120.8622         estimate D2E/DX2                !
 ! A288  A(80,82,81)           120.8032         estimate D2E/DX2                !
 ! A289  A(55,83,57)           118.5558         estimate D2E/DX2                !
 ! A290  A(55,83,84)           120.2004         estimate D2E/DX2                !
 ! A291  A(57,83,84)           118.5837         estimate D2E/DX2                !
 ! A292  A(56,84,58)           115.8172         estimate D2E/DX2                !
 ! A293  A(56,84,83)           119.8668         estimate D2E/DX2                !
 ! A294  A(58,84,83)           118.6572         estimate D2E/DX2                !
 ! D1    D(17,1,5,9)            -0.4897         estimate D2E/DX2                !
 ! D2    D(17,1,5,29)         -149.0216         estimate D2E/DX2                !
 ! D3    D(25,1,5,9)           145.1133         estimate D2E/DX2                !
 ! D4    D(25,1,5,29)           -3.4186         estimate D2E/DX2                !
 ! D5    D(5,1,17,15)           -7.6132         estimate D2E/DX2                !
 ! D6    D(5,1,17,19)          145.4716         estimate D2E/DX2                !
 ! D7    D(25,1,17,15)        -149.3684         estimate D2E/DX2                !
 ! D8    D(25,1,17,19)           3.7164         estimate D2E/DX2                !
 ! D9    D(5,1,25,23)         -149.8706         estimate D2E/DX2                !
 ! D10   D(5,1,25,27)            3.6626         estimate D2E/DX2                !
 ! D11   D(17,1,25,23)          -3.5361         estimate D2E/DX2                !
 ! D12   D(17,1,25,27)         149.9971         estimate D2E/DX2                !
 ! D13   D(43,2,6,10)         -141.2558         estimate D2E/DX2                !
 ! D14   D(43,2,6,15)            9.0623         estimate D2E/DX2                !
 ! D15   D(44,2,6,10)          -25.5763         estimate D2E/DX2                !
 ! D16   D(44,2,6,15)          124.7419         estimate D2E/DX2                !
 ! D17   D(93,2,6,10)           97.9823         estimate D2E/DX2                !
 ! D18   D(93,2,6,15)         -111.6996         estimate D2E/DX2                !
 ! D19   D(6,2,43,13)          -10.2992         estimate D2E/DX2                !
 ! D20   D(6,2,43,39)          145.1788         estimate D2E/DX2                !
 ! D21   D(44,2,43,13)        -125.5543         estimate D2E/DX2                !
 ! D22   D(44,2,43,39)          29.9237         estimate D2E/DX2                !
 ! D23   D(93,2,43,13)         111.3038         estimate D2E/DX2                !
 ! D24   D(93,2,43,39)         -93.2183         estimate D2E/DX2                !
 ! D25   D(6,2,44,40)         -143.8847         estimate D2E/DX2                !
 ! D26   D(6,2,44,47)           23.2452         estimate D2E/DX2                !
 ! D27   D(43,2,44,40)         -33.6209         estimate D2E/DX2                !
 ! D28   D(43,2,44,47)         133.509          estimate D2E/DX2                !
 ! D29   D(93,2,44,40)          90.6852         estimate D2E/DX2                !
 ! D30   D(93,2,44,47)        -102.1848         estimate D2E/DX2                !
 ! D31   D(18,3,7,12)            2.8361         estimate D2E/DX2                !
 ! D32   D(18,3,7,30)          150.7875         estimate D2E/DX2                !
 ! D33   D(26,3,7,12)         -145.8984         estimate D2E/DX2                !
 ! D34   D(26,3,7,30)            2.053          estimate D2E/DX2                !
 ! D35   D(7,3,18,16)            5.4382         estimate D2E/DX2                !
 ! D36   D(7,3,18,20)         -144.9838         estimate D2E/DX2                !
 ! D37   D(26,3,18,16)         150.0217         estimate D2E/DX2                !
 ! D38   D(26,3,18,20)          -0.4003         estimate D2E/DX2                !
 ! D39   D(7,3,26,24)          147.9403         estimate D2E/DX2                !
 ! D40   D(7,3,26,28)           -2.1156         estimate D2E/DX2                !
 ! D41   D(18,3,26,24)          -0.7891         estimate D2E/DX2                !
 ! D42   D(18,3,26,28)        -150.8451         estimate D2E/DX2                !
 ! D43   D(45,4,8,11)           25.4582         estimate D2E/DX2                !
 ! D44   D(45,4,8,16)         -124.8137         estimate D2E/DX2                !
 ! D45   D(46,4,8,11)          141.2359         estimate D2E/DX2                !
 ! D46   D(46,4,8,16)           -9.0359         estimate D2E/DX2                !
 ! D47   D(95,4,8,11)          -98.1274         estimate D2E/DX2                !
 ! D48   D(95,4,8,16)          111.6007         estimate D2E/DX2                !
 ! D49   D(8,4,45,41)          144.6538         estimate D2E/DX2                !
 ! D50   D(8,4,45,48)          -22.4335         estimate D2E/DX2                !
 ! D51   D(46,4,45,41)          33.8849         estimate D2E/DX2                !
 ! D52   D(46,4,45,48)        -133.2023         estimate D2E/DX2                !
 ! D53   D(95,4,45,41)         -89.9544         estimate D2E/DX2                !
 ! D54   D(95,4,45,48)         102.9583         estimate D2E/DX2                !
 ! D55   D(8,4,46,14)           10.0169         estimate D2E/DX2                !
 ! D56   D(8,4,46,42)         -146.2644         estimate D2E/DX2                !
 ! D57   D(45,4,46,14)         126.0619         estimate D2E/DX2                !
 ! D58   D(45,4,46,42)         -30.2193         estimate D2E/DX2                !
 ! D59   D(95,4,46,14)        -111.3363         estimate D2E/DX2                !
 ! D60   D(95,4,46,42)          92.3824         estimate D2E/DX2                !
 ! D61   D(1,5,9,13)             7.0351         estimate D2E/DX2                !
 ! D62   D(1,5,9,35)          -146.179          estimate D2E/DX2                !
 ! D63   D(29,5,9,13)          151.9219         estimate D2E/DX2                !
 ! D64   D(29,5,9,35)           -1.2922         estimate D2E/DX2                !
 ! D65   D(1,5,29,27)            1.9695         estimate D2E/DX2                !
 ! D66   D(1,5,29,31)          152.593          estimate D2E/DX2                !
 ! D67   D(9,5,29,27)         -147.1176         estimate D2E/DX2                !
 ! D68   D(9,5,29,31)            3.5059         estimate D2E/DX2                !
 ! D69   D(2,6,10,49)           -1.9532         estimate D2E/DX2                !
 ! D70   D(2,6,10,53)          150.586          estimate D2E/DX2                !
 ! D71   D(15,6,10,49)        -149.9145         estimate D2E/DX2                !
 ! D72   D(15,6,10,53)           2.6247         estimate D2E/DX2                !
 ! D73   D(2,6,15,13)           -4.7118         estimate D2E/DX2                !
 ! D74   D(2,6,15,17)         -154.1562         estimate D2E/DX2                !
 ! D75   D(10,6,15,13)         146.8819         estimate D2E/DX2                !
 ! D76   D(10,6,15,17)          -2.5626         estimate D2E/DX2                !
 ! D77   D(3,7,12,14)           -7.8067         estimate D2E/DX2                !
 ! D78   D(3,7,12,36)          145.8419         estimate D2E/DX2                !
 ! D79   D(30,7,12,14)        -151.6591         estimate D2E/DX2                !
 ! D80   D(30,7,12,36)           1.9895         estimate D2E/DX2                !
 ! D81   D(3,7,30,28)           -1.2719         estimate D2E/DX2                !
 ! D82   D(3,7,30,32)         -151.9954         estimate D2E/DX2                !
 ! D83   D(12,7,30,28)         146.8091         estimate D2E/DX2                !
 ! D84   D(12,7,30,32)          -3.9143         estimate D2E/DX2                !
 ! D85   D(4,8,11,50)            0.1784         estimate D2E/DX2                !
 ! D86   D(4,8,11,54)         -147.8505         estimate D2E/DX2                !
 ! D87   D(16,8,11,50)         147.5925         estimate D2E/DX2                !
 ! D88   D(16,8,11,54)          -0.4364         estimate D2E/DX2                !
 ! D89   D(4,8,16,14)            4.9825         estimate D2E/DX2                !
 ! D90   D(4,8,16,18)          153.5193         estimate D2E/DX2                !
 ! D91   D(11,8,16,14)        -146.0261         estimate D2E/DX2                !
 ! D92   D(11,8,16,18)           2.5107         estimate D2E/DX2                !
 ! D93   D(5,9,13,15)           -5.354          estimate D2E/DX2                !
 ! D94   D(5,9,13,43)         -151.3975         estimate D2E/DX2                !
 ! D95   D(35,9,13,15)         148.2313         estimate D2E/DX2                !
 ! D96   D(35,9,13,43)           2.1877         estimate D2E/DX2                !
 ! D97   D(5,9,35,33)           -4.5918         estimate D2E/DX2                !
 ! D98   D(5,9,35,37)          149.7274         estimate D2E/DX2                !
 ! D99   D(13,9,35,33)        -157.0194         estimate D2E/DX2                !
 ! D100  D(13,9,35,37)          -2.7002         estimate D2E/DX2                !
 ! D101  D(6,10,49,47)          31.2733         estimate D2E/DX2                !
 ! D102  D(6,10,49,51)         148.5651         estimate D2E/DX2                !
 ! D103  D(6,10,49,91)         -89.9397         estimate D2E/DX2                !
 ! D104  D(53,10,49,47)       -123.1542         estimate D2E/DX2                !
 ! D105  D(53,10,49,51)         -5.8624         estimate D2E/DX2                !
 ! D106  D(53,10,49,91)        115.6328         estimate D2E/DX2                !
 ! D107  D(6,10,53,19)          -1.3301         estimate D2E/DX2                !
 ! D108  D(6,10,53,55)        -161.0092         estimate D2E/DX2                !
 ! D109  D(49,10,53,19)        153.7565         estimate D2E/DX2                !
 ! D110  D(49,10,53,55)         -5.9226         estimate D2E/DX2                !
 ! D111  D(8,11,50,48)         -28.7874         estimate D2E/DX2                !
 ! D112  D(8,11,50,52)        -145.4414         estimate D2E/DX2                !
 ! D113  D(8,11,50,92)          93.577          estimate D2E/DX2                !
 ! D114  D(54,11,50,48)        121.8503         estimate D2E/DX2                !
 ! D115  D(54,11,50,52)          5.1963         estimate D2E/DX2                !
 ! D116  D(54,11,50,92)       -115.7854         estimate D2E/DX2                !
 ! D117  D(8,11,54,20)          -1.4372         estimate D2E/DX2                !
 ! D118  D(8,11,54,56)         148.8537         estimate D2E/DX2                !
 ! D119  D(50,11,54,20)       -153.1207         estimate D2E/DX2                !
 ! D120  D(50,11,54,56)         -2.8298         estimate D2E/DX2                !
 ! D121  D(7,12,14,16)           4.6724         estimate D2E/DX2                !
 ! D122  D(7,12,14,46)         151.7998         estimate D2E/DX2                !
 ! D123  D(36,12,14,16)       -149.2595         estimate D2E/DX2                !
 ! D124  D(36,12,14,46)         -2.1321         estimate D2E/DX2                !
 ! D125  D(7,12,36,34)           4.0141         estimate D2E/DX2                !
 ! D126  D(7,12,36,38)        -150.2911         estimate D2E/DX2                !
 ! D127  D(14,12,36,34)        156.9101         estimate D2E/DX2                !
 ! D128  D(14,12,36,38)          2.6049         estimate D2E/DX2                !
 ! D129  D(9,13,15,6)         -152.0913         estimate D2E/DX2                !
 ! D130  D(9,13,15,17)          -2.8714         estimate D2E/DX2                !
 ! D131  D(43,13,15,6)          -2.2421         estimate D2E/DX2                !
 ! D132  D(43,13,15,17)        146.9778         estimate D2E/DX2                !
 ! D133  D(9,13,43,2)          158.022          estimate D2E/DX2                !
 ! D134  D(9,13,43,39)           1.2695         estimate D2E/DX2                !
 ! D135  D(15,13,43,2)           8.1966         estimate D2E/DX2                !
 ! D136  D(15,13,43,39)       -148.5559         estimate D2E/DX2                !
 ! D137  D(12,14,16,8)         152.2321         estimate D2E/DX2                !
 ! D138  D(12,14,16,18)          3.6281         estimate D2E/DX2                !
 ! D139  D(46,14,16,8)           1.7554         estimate D2E/DX2                !
 ! D140  D(46,14,16,18)       -146.8486         estimate D2E/DX2                !
 ! D141  D(12,14,46,4)        -158.5863         estimate D2E/DX2                !
 ! D142  D(12,14,46,42)         -1.1618         estimate D2E/DX2                !
 ! D143  D(16,14,46,4)          -7.7168         estimate D2E/DX2                !
 ! D144  D(16,14,46,42)        149.7077         estimate D2E/DX2                !
 ! D145  D(6,15,17,1)          154.6375         estimate D2E/DX2                !
 ! D146  D(6,15,17,19)           1.1109         estimate D2E/DX2                !
 ! D147  D(13,15,17,1)           9.2792         estimate D2E/DX2                !
 ! D148  D(13,15,17,19)       -144.2473         estimate D2E/DX2                !
 ! D149  D(8,16,18,3)         -153.0941         estimate D2E/DX2                !
 ! D150  D(8,16,18,20)          -2.6215         estimate D2E/DX2                !
 ! D151  D(14,16,18,3)          -8.5757         estimate D2E/DX2                !
 ! D152  D(14,16,18,20)        141.897          estimate D2E/DX2                !
 ! D153  D(1,17,19,21)           9.0575         estimate D2E/DX2                !
 ! D154  D(1,17,19,53)        -152.0976         estimate D2E/DX2                !
 ! D155  D(15,17,19,21)        161.3812         estimate D2E/DX2                !
 ! D156  D(15,17,19,53)          0.2262         estimate D2E/DX2                !
 ! D157  D(3,18,20,22)           1.0538         estimate D2E/DX2                !
 ! D158  D(3,18,20,54)         150.5064         estimate D2E/DX2                !
 ! D159  D(16,18,20,22)       -148.7168         estimate D2E/DX2                !
 ! D160  D(16,18,20,54)          0.7358         estimate D2E/DX2                !
 ! D161  D(17,19,21,23)        -20.2518         estimate D2E/DX2                !
 ! D162  D(17,19,21,57)       -133.0177         estimate D2E/DX2                !
 ! D163  D(17,19,21,97)        104.1216         estimate D2E/DX2                !
 ! D164  D(53,19,21,23)        140.9008         estimate D2E/DX2                !
 ! D165  D(53,19,21,57)         28.1349         estimate D2E/DX2                !
 ! D166  D(53,19,21,97)        -94.7258         estimate D2E/DX2                !
 ! D167  D(17,19,53,10)         -0.1356         estimate D2E/DX2                !
 ! D168  D(17,19,53,55)        156.4467         estimate D2E/DX2                !
 ! D169  D(21,19,53,10)       -161.5383         estimate D2E/DX2                !
 ! D170  D(21,19,53,55)         -4.956          estimate D2E/DX2                !
 ! D171  D(18,20,22,24)         -0.5964         estimate D2E/DX2                !
 ! D172  D(18,20,22,58)        143.1769         estimate D2E/DX2                !
 ! D173  D(54,20,22,24)       -150.8062         estimate D2E/DX2                !
 ! D174  D(54,20,22,58)         -7.0329         estimate D2E/DX2                !
 ! D175  D(18,20,54,11)          1.2657         estimate D2E/DX2                !
 ! D176  D(18,20,54,56)       -145.1278         estimate D2E/DX2                !
 ! D177  D(22,20,54,11)        151.3167         estimate D2E/DX2                !
 ! D178  D(22,20,54,56)          4.9231         estimate D2E/DX2                !
 ! D179  D(19,21,23,25)         20.9807         estimate D2E/DX2                !
 ! D180  D(19,21,23,61)       -135.6406         estimate D2E/DX2                !
 ! D181  D(57,21,23,25)        139.4761         estimate D2E/DX2                !
 ! D182  D(57,21,23,61)        -17.1452         estimate D2E/DX2                !
 ! D183  D(97,21,23,25)       -102.6457         estimate D2E/DX2                !
 ! D184  D(97,21,23,61)        100.7331         estimate D2E/DX2                !
 ! D185  D(19,21,57,59)        134.4471         estimate D2E/DX2                !
 ! D186  D(19,21,57,83)        -23.9116         estimate D2E/DX2                !
 ! D187  D(23,21,57,59)         14.4379         estimate D2E/DX2                !
 ! D188  D(23,21,57,83)       -143.9208         estimate D2E/DX2                !
 ! D189  D(97,21,57,59)       -103.4641         estimate D2E/DX2                !
 ! D190  D(97,21,57,83)         98.1772         estimate D2E/DX2                !
 ! D191  D(20,22,24,26)         -0.5894         estimate D2E/DX2                !
 ! D192  D(20,22,24,62)        149.2395         estimate D2E/DX2                !
 ! D193  D(58,22,24,26)       -148.4327         estimate D2E/DX2                !
 ! D194  D(58,22,24,62)          1.3962         estimate D2E/DX2                !
 ! D195  D(20,22,58,60)       -147.8685         estimate D2E/DX2                !
 ! D196  D(20,22,58,84)          1.4357         estimate D2E/DX2                !
 ! D197  D(24,22,58,60)          0.3691         estimate D2E/DX2                !
 ! D198  D(24,22,58,84)        149.6733         estimate D2E/DX2                !
 ! D199  D(21,23,25,1)          -9.7665         estimate D2E/DX2                !
 ! D200  D(21,23,25,27)       -160.1683         estimate D2E/DX2                !
 ! D201  D(61,23,25,1)         145.176          estimate D2E/DX2                !
 ! D202  D(61,23,25,27)         -5.2258         estimate D2E/DX2                !
 ! D203  D(21,23,61,59)         12.8943         estimate D2E/DX2                !
 ! D204  D(21,23,61,63)        128.4282         estimate D2E/DX2                !
 ! D205  D(21,23,61,89)       -108.8818         estimate D2E/DX2                !
 ! D206  D(25,23,61,59)       -144.1692         estimate D2E/DX2                !
 ! D207  D(25,23,61,63)        -28.6352         estimate D2E/DX2                !
 ! D208  D(25,23,61,89)         94.0547         estimate D2E/DX2                !
 ! D209  D(22,24,26,3)           1.265          estimate D2E/DX2                !
 ! D210  D(22,24,26,28)        148.1957         estimate D2E/DX2                !
 ! D211  D(62,24,26,3)        -145.4301         estimate D2E/DX2                !
 ! D212  D(62,24,26,28)          1.5007         estimate D2E/DX2                !
 ! D213  D(22,24,62,60)         -2.4127         estimate D2E/DX2                !
 ! D214  D(22,24,62,64)       -117.4586         estimate D2E/DX2                !
 ! D215  D(22,24,62,90)        120.093          estimate D2E/DX2                !
 ! D216  D(26,24,62,60)        146.8516         estimate D2E/DX2                !
 ! D217  D(26,24,62,64)         31.8056         estimate D2E/DX2                !
 ! D218  D(26,24,62,90)        -90.6428         estimate D2E/DX2                !
 ! D219  D(1,25,27,29)          -2.3241         estimate D2E/DX2                !
 ! D220  D(1,25,27,65)        -117.5596         estimate D2E/DX2                !
 ! D221  D(1,25,27,85)         120.1418         estimate D2E/DX2                !
 ! D222  D(23,25,27,29)        150.8939         estimate D2E/DX2                !
 ! D223  D(23,25,27,65)         35.6584         estimate D2E/DX2                !
 ! D224  D(23,25,27,85)        -86.6403         estimate D2E/DX2                !
 ! D225  D(3,26,28,30)           1.272          estimate D2E/DX2                !
 ! D226  D(3,26,28,66)         115.9391         estimate D2E/DX2                !
 ! D227  D(3,26,28,88)        -121.5943         estimate D2E/DX2                !
 ! D228  D(24,26,28,30)       -148.164          estimate D2E/DX2                !
 ! D229  D(24,26,28,66)        -33.4968         estimate D2E/DX2                !
 ! D230  D(24,26,28,88)         88.9697         estimate D2E/DX2                !
 ! D231  D(25,27,29,5)           0.2341         estimate D2E/DX2                !
 ! D232  D(25,27,29,31)       -149.5809         estimate D2E/DX2                !
 ! D233  D(65,27,29,5)         116.2326         estimate D2E/DX2                !
 ! D234  D(65,27,29,31)        -33.5823         estimate D2E/DX2                !
 ! D235  D(85,27,29,5)        -121.3258         estimate D2E/DX2                !
 ! D236  D(85,27,29,31)         88.8592         estimate D2E/DX2                !
 ! D237  D(25,27,65,63)        -31.246          estimate D2E/DX2                !
 ! D238  D(25,27,65,67)        142.3185         estimate D2E/DX2                !
 ! D239  D(29,27,65,63)       -141.3063         estimate D2E/DX2                !
 ! D240  D(29,27,65,67)         32.2582         estimate D2E/DX2                !
 ! D241  D(85,27,65,63)         93.2542         estimate D2E/DX2                !
 ! D242  D(85,27,65,67)        -93.1813         estimate D2E/DX2                !
 ! D243  D(26,28,30,7)           0.0118         estimate D2E/DX2                !
 ! D244  D(26,28,30,32)        149.8563         estimate D2E/DX2                !
 ! D245  D(66,28,30,7)        -115.4651         estimate D2E/DX2                !
 ! D246  D(66,28,30,32)         34.3794         estimate D2E/DX2                !
 ! D247  D(88,28,30,7)         122.4211         estimate D2E/DX2                !
 ! D248  D(88,28,30,32)        -87.7343         estimate D2E/DX2                !
 ! D249  D(26,28,66,64)         31.578          estimate D2E/DX2                !
 ! D250  D(26,28,66,68)       -142.4623         estimate D2E/DX2                !
 ! D251  D(30,28,66,64)        141.0185         estimate D2E/DX2                !
 ! D252  D(30,28,66,68)        -33.0219         estimate D2E/DX2                !
 ! D253  D(88,28,66,64)        -93.6525         estimate D2E/DX2                !
 ! D254  D(88,28,66,68)         92.3072         estimate D2E/DX2                !
 ! D255  D(5,29,31,33)           0.3834         estimate D2E/DX2                !
 ! D256  D(5,29,31,69)        -147.8934         estimate D2E/DX2                !
 ! D257  D(27,29,31,33)        147.7757         estimate D2E/DX2                !
 ! D258  D(27,29,31,69)         -0.5011         estimate D2E/DX2                !
 ! D259  D(7,30,32,34)          -0.3797         estimate D2E/DX2                !
 ! D260  D(7,30,32,70)         147.6293         estimate D2E/DX2                !
 ! D261  D(28,30,32,34)       -147.9374         estimate D2E/DX2                !
 ! D262  D(28,30,32,70)          0.0716         estimate D2E/DX2                !
 ! D263  D(29,31,33,35)         -6.7084         estimate D2E/DX2                !
 ! D264  D(29,31,33,73)       -155.0539         estimate D2E/DX2                !
 ! D265  D(69,31,33,35)        144.4329         estimate D2E/DX2                !
 ! D266  D(69,31,33,73)         -3.9126         estimate D2E/DX2                !
 ! D267  D(29,31,69,67)         34.8847         estimate D2E/DX2                !
 ! D268  D(29,31,69,71)        151.2731         estimate D2E/DX2                !
 ! D269  D(29,31,69,86)        -86.2456         estimate D2E/DX2                !
 ! D270  D(33,31,69,67)       -115.9916         estimate D2E/DX2                !
 ! D271  D(33,31,69,71)          0.3968         estimate D2E/DX2                !
 ! D272  D(33,31,69,86)        122.8781         estimate D2E/DX2                !
 ! D273  D(30,32,34,36)          6.7827         estimate D2E/DX2                !
 ! D274  D(30,32,34,74)        155.2197         estimate D2E/DX2                !
 ! D275  D(70,32,34,36)       -144.0587         estimate D2E/DX2                !
 ! D276  D(70,32,34,74)          4.3784         estimate D2E/DX2                !
 ! D277  D(30,32,70,68)        -34.8908         estimate D2E/DX2                !
[...]
 Alpha virt. eigenvalues --    1.45071   1.45473   1.45777   1.46189   1.46381
 Alpha virt. eigenvalues --    1.46990   1.47486   1.47579   1.48466   1.48698
 Alpha virt. eigenvalues --    1.49495   1.49893   1.50666   1.51002   1.51529
 Alpha virt. eigenvalues --    1.52332   1.52511   1.53548   1.53894   1.54207
 Alpha virt. eigenvalues --    1.55295   1.55893   1.56429   1.56586   1.56773
 Alpha virt. eigenvalues --    1.57312   1.57925   1.58421   1.58988   1.59859
 Alpha virt. eigenvalues --    1.59998   1.60343   1.60780   1.61525   1.61915
 Alpha virt. eigenvalues --    1.62083   1.62164   1.62547   1.63047   1.63286
 Alpha virt. eigenvalues --    1.63519   1.63742   1.63955   1.64039   1.64437
 Alpha virt. eigenvalues --    1.64713   1.64861   1.65180   1.65345   1.65497
 Alpha virt. eigenvalues --    1.65795   1.66137   1.66181   1.66585   1.66816
 Alpha virt. eigenvalues --    1.66940   1.67080   1.67363   1.67556   1.67589
 Alpha virt. eigenvalues --    1.67989   1.68217   1.68692   1.68780   1.69075
 Alpha virt. eigenvalues --    1.69172   1.69458   1.69639   1.69807   1.70190
 Alpha virt. eigenvalues --    1.70546   1.70615   1.70796   1.71233   1.71339
 Alpha virt. eigenvalues --    1.71589   1.71873   1.71971   1.72184   1.72429
 Alpha virt. eigenvalues --    1.72918   1.73239   1.73553   1.73688   1.74031
 Alpha virt. eigenvalues --    1.74349   1.74790   1.74938   1.75054   1.75239
 Alpha virt. eigenvalues --    1.75607   1.75819   1.76002   1.76300   1.76525
 Alpha virt. eigenvalues --    1.76696   1.76971   1.77227   1.77270   1.77575
 Alpha virt. eigenvalues --    1.77608   1.77898   1.77945   1.78240   1.78386
 Alpha virt. eigenvalues --    1.78499   1.78745   1.78894   1.79089   1.79504
 Alpha virt. eigenvalues --    1.79748   1.79996   1.80371   1.80629   1.80751
 Alpha virt. eigenvalues --    1.81309   1.81410   1.81800   1.81872   1.82103
 Alpha virt. eigenvalues --    1.82243   1.82765   1.83006   1.83247   1.83456
 Alpha virt. eigenvalues --    1.83729   1.84178   1.84656   1.85004   1.85332
 Alpha virt. eigenvalues --    1.85783   1.85961   1.86309   1.86782   1.86889
 Alpha virt. eigenvalues --    1.87292   1.87383   1.87704   1.88102   1.88472
 Alpha virt. eigenvalues --    1.88621   1.88817   1.89308   1.89523   1.89976
 Alpha virt. eigenvalues --    1.90432   1.90713   1.90946   1.91551   1.91741
 Alpha virt. eigenvalues --    1.92072   1.92468   1.92744   1.92987   1.93363
 Alpha virt. eigenvalues --    1.93462   1.93822   1.94437   1.94560   1.94798
 Alpha virt. eigenvalues --    1.95117   1.95443   1.95830   1.96142   1.96235
 Alpha virt. eigenvalues --    1.96737   1.96918   1.97673   1.97894   1.98273
 Alpha virt. eigenvalues --    1.98782   1.99115   1.99401   1.99665   1.99939
 Alpha virt. eigenvalues --    2.00326   2.00437   2.00690   2.00938   2.01230
 Alpha virt. eigenvalues --    2.01694   2.01886   2.02133   2.02280   2.02652
 Alpha virt. eigenvalues --    2.03307   2.03626   2.04219   2.04412   2.04663
 Alpha virt. eigenvalues --    2.04941   2.05612   2.06154   2.06318   2.06903
 Alpha virt. eigenvalues --    2.07035   2.07765   2.08039   2.08274   2.08516
 Alpha virt. eigenvalues --    2.09093   2.09249   2.09599   2.10128   2.10357
 Alpha virt. eigenvalues --    2.10839   2.11149   2.11526   2.11755   2.12482
 Alpha virt. eigenvalues --    2.12760   2.13061   2.13644   2.14142   2.14406
 Alpha virt. eigenvalues --    2.14664   2.15227   2.15711   2.16107   2.16454
 Alpha virt. eigenvalues --    2.16698   2.17199   2.17559   2.18062   2.18619
 Alpha virt. eigenvalues --    2.18912   2.19231   2.19689   2.20195   2.20302
 Alpha virt. eigenvalues --    2.20655   2.21094   2.21506   2.21837   2.22081
 Alpha virt. eigenvalues --    2.22485   2.22942   2.23347   2.23697   2.24390
 Alpha virt. eigenvalues --    2.24788   2.25019   2.25161   2.25221   2.25757
 Alpha virt. eigenvalues --    2.26134   2.26937   2.27317   2.27479   2.27814
 Alpha virt. eigenvalues --    2.28595   2.28737   2.28949   2.29328   2.29551
 Alpha virt. eigenvalues --    2.30263   2.30946   2.31052   2.32003   2.32669
 Alpha virt. eigenvalues --    2.33100   2.33844   2.34366   2.34662   2.34772
 Alpha virt. eigenvalues --    2.35253   2.35321   2.36420   2.36617   2.37565
 Alpha virt. eigenvalues --    2.37975   2.38710   2.38779   2.39566   2.40014
 Alpha virt. eigenvalues --    2.40263   2.40551   2.41041   2.41639   2.41957
 Alpha virt. eigenvalues --    2.42802   2.43040   2.43813   2.44168   2.44401
 Alpha virt. eigenvalues --    2.44934   2.45199   2.45783   2.46119   2.46635
 Alpha virt. eigenvalues --    2.47509   2.47984   2.48521   2.48813   2.49690
 Alpha virt. eigenvalues --    2.50055   2.50553   2.50919   2.51083   2.51614
 Alpha virt. eigenvalues --    2.52573   2.52684   2.53108   2.53401   2.53717
 Alpha virt. eigenvalues --    2.54082   2.54518   2.54819   2.55582   2.55763
 Alpha virt. eigenvalues --    2.55960   2.56026   2.56607   2.56818   2.57254
 Alpha virt. eigenvalues --    2.57350   2.57579   2.58250   2.58417   2.58744
 Alpha virt. eigenvalues --    2.59061   2.59211   2.59605   2.60070   2.60614
 Alpha virt. eigenvalues --    2.61328   2.61387   2.61515   2.62198   2.62429
 Alpha virt. eigenvalues --    2.62754   2.62950   2.63232   2.64149   2.64327
 Alpha virt. eigenvalues --    2.64390   2.64778   2.65015   2.65306   2.65435
 Alpha virt. eigenvalues --    2.66027   2.66405   2.66872   2.66943   2.67453
 Alpha virt. eigenvalues --    2.67821   2.67969   2.68323   2.69136   2.69668
 Alpha virt. eigenvalues --    2.69878   2.70129   2.70317   2.70427   2.71147
 Alpha virt. eigenvalues --    2.71178   2.71766   2.71885   2.72471   2.72586
 Alpha virt. eigenvalues --    2.73453   2.73707   2.73872   2.74490   2.74779
 Alpha virt. eigenvalues --    2.75168   2.75379   2.75581   2.75848   2.75988
 Alpha virt. eigenvalues --    2.76531   2.76950   2.77632   2.78230   2.78589
 Alpha virt. eigenvalues --    2.78856   2.79735   2.79917   2.80514   2.80714
 Alpha virt. eigenvalues --    2.81364   2.81591   2.81991   2.83164   2.83676
 Alpha virt. eigenvalues --    2.83790   2.84495   2.84753   2.86211   2.86589
 Alpha virt. eigenvalues --    2.86697   2.87148   2.87413   2.88216   2.88532
 Alpha virt. eigenvalues --    2.89159   2.89325   2.90008   2.90051   2.91033
 Alpha virt. eigenvalues --    2.91122   2.91680   2.92200   2.92553   2.93335
 Alpha virt. eigenvalues --    2.93676   2.94705   2.95094   2.95676   2.96749
 Alpha virt. eigenvalues --    2.97251   2.97792   2.98890   3.00053   3.00606
 Alpha virt. eigenvalues --    3.02302   3.03663   3.04833   3.07454   3.08287
 Alpha virt. eigenvalues --    3.09217   3.09940   3.11098   3.11420   3.12566
 Alpha virt. eigenvalues --    3.13671   3.14355   3.17229   3.17472   3.18914
 Alpha virt. eigenvalues --    3.19052   3.19777   3.21858   3.23715   3.24814
 Alpha virt. eigenvalues --    3.26559   3.27561   3.28024   3.30747   3.33115
 Alpha virt. eigenvalues --    3.34795   3.34804   3.38365   3.40832   3.41992
 Alpha virt. eigenvalues --    3.45567   3.47082   3.48558   3.49470   3.51299
 Alpha virt. eigenvalues --    3.54361   3.62113   4.00629   4.01283   4.01639
 Alpha virt. eigenvalues --    4.02091   4.03070   4.03543   4.04229   4.05187
 Alpha virt. eigenvalues --    4.06444   4.06965   4.07179   4.08168   4.08674
 Alpha virt. eigenvalues --    4.09224   4.09906   4.10065   4.10963   4.11408
 Alpha virt. eigenvalues --    4.12129   4.12236   4.13504   4.15697   4.16144
 Alpha virt. eigenvalues --    4.16399   4.17784   4.18371   4.19197   4.19714
 Alpha virt. eigenvalues --    4.19895   4.20544   4.21032   4.21694   4.22753
 Alpha virt. eigenvalues --    4.23816   4.24781   4.25220   4.25748   4.26151
 Alpha virt. eigenvalues --    4.26545   4.26776   4.27846   4.28132   4.28416
 Alpha virt. eigenvalues --    4.28684   4.29066   4.29203   4.30115   4.31122
 Alpha virt. eigenvalues --    4.32063   4.33514   4.34448   4.35386   4.35664
 Alpha virt. eigenvalues --    4.38026   4.38196   4.39327   4.39700   4.40752
 Alpha virt. eigenvalues --    4.41232   4.41887   4.42968   4.43618   4.44140
 Alpha virt. eigenvalues --    4.44924   4.46931   4.47816   4.49307   4.50402
 Alpha virt. eigenvalues --    4.51690   4.54191   4.54388   4.55256   4.57907
 Alpha virt. eigenvalues --    4.58242   4.59304   4.59557   4.60605   4.64159
 Alpha virt. eigenvalues --    4.65032   4.66828   4.68544   4.71689   4.76667
 Alpha virt. eigenvalues --    4.78313   4.79683   4.80362   4.83807   4.85403
 Alpha virt. eigenvalues --    4.86717   4.90285   4.92317   4.98485   5.00583
 Alpha virt. eigenvalues --    5.03236   5.06429   5.12183   5.15766   5.24267
          Condensed to atoms (all electrons):
 Mulliken charges:
               1
     1  C   -0.016704
     2  C   -0.391153
     3  C    0.007716
     4  C   -0.387578
     5  C    0.016079
     6  C    0.083332
     7  C    0.008895
     8  C    0.088200
     9  C    0.040603
    10  C    0.128775
    11  C    0.093673
    12  C    0.039413
    13  C    0.006251
    14  C    0.008043
    15  C    0.012470
    16  C    0.009818
    17  C    0.069551
    18  C    0.043064
    19  C    0.121643
    20  C    0.045409
    21  C   -0.360282
    22  C    0.007028
    23  C    0.154744
    24  C    0.092308
    25  C    0.111361
    26  C    0.089628
    27  C   -0.381479
    28  C   -0.376199
    29  C    0.091009
    30  C    0.087439
    31  C    0.088146
    32  C    0.090349
    33  C    0.007458
    34  C    0.006507
    35  C    0.033754
    36  C    0.035623
    37  C    0.071098
    38  C    0.070996
    39  C    0.117872
    40  C    0.116320
    41  C    0.115383
    42  C    0.117784
    43  C    0.082578
    44  C    0.148509
    45  C    0.147872
    46  C    0.079791
    47  C    0.124365
    48  C    0.121788
    49  C   -0.365427
    50  C   -0.386236
    51  C    0.152496
    52  C    0.112066
    53  C    0.110397
    54  C    0.014372
    55  C   -0.358734
    56  C   -0.014948
    57  C    0.109899
    58  C    0.010500
    59  C    0.128288
    60  C    0.081572
    61  C   -0.361784
    62  C   -0.379906
    63  C    0.125423
    64  C    0.126960
    65  C    0.128054
    66  C    0.128211
    67  C    0.125877
    68  C    0.122779
    69  C   -0.373045
    70  C   -0.372721
    71  C    0.091076
    72  C    0.089877
    73  C    0.020151
    74  C    0.020622
    75  C   -0.006871
    76  C   -0.008124
    77  C   -0.038454
    78  C   -0.040751
    79  C   -0.357102
    80  C   -0.357370
    81  C    0.034527
    82  C    0.144862
    83  C    0.121498
    84  C    0.068498
    85  Cl   0.028324
    86  Cl   0.022195
    87  Cl   0.020934
    88  Cl   0.026472
    89  Cl   0.020476
    90  Cl   0.028371
    91  Cl   0.016307
    92  Cl   0.022714
    93  Cl   0.028723
    94  Cl   0.003084
    95  Cl   0.025438
    96  Cl   0.000224
    97  Cl  -0.004595
    98  Cl  -0.004449
 Sum of Mulliken charges =  -0.00000
 Mulliken charges with hydrogens summed into heavy atoms:
               1
     1  C   -0.016704
     2  C   -0.391153
     3  C    0.007716
     4  C   -0.387578
     5  C    0.016079
     6  C    0.083332
     7  C    0.008895
     8  C    0.088200
     9  C    0.040603
    10  C    0.128775
    11  C    0.093673
    12  C    0.039413
    13  C    0.006251
    14  C    0.008043
    15  C    0.012470
    16  C    0.009818
    17  C    0.069551
    18  C    0.043064
    19  C    0.121643
    20  C    0.045409
    21  C   -0.360282
    22  C    0.007028
    23  C    0.154744
    24  C    0.092308
    25  C    0.111361
    26  C    0.089628
    27  C   -0.381479
    28  C   -0.376199
    29  C    0.091009
    30  C    0.087439
    31  C    0.088146
    32  C    0.090349
    33  C    0.007458
    34  C    0.006507
    35  C    0.033754
    36  C    0.035623
    37  C    0.071098
    38  C    0.070996
    39  C    0.117872
    40  C    0.116320
    41  C    0.115383
    42  C    0.117784
    43  C    0.082578
    44  C    0.148509
    45  C    0.147872
    46  C    0.079791
    47  C    0.124365
    48  C    0.121788
    49  C   -0.365427
    50  C   -0.386236
    51  C    0.152496
    52  C    0.112066
    53  C    0.110397
    54  C    0.014372
    55  C   -0.358734
    56  C   -0.014948
    57  C    0.109899
    58  C    0.010500
    59  C    0.128288
    60  C    0.081572
    61  C   -0.361784
    62  C   -0.379906
    63  C    0.125423
    64  C    0.126960
    65  C    0.128054
    66  C    0.128211
    67  C    0.125877
    68  C    0.122779
    69  C   -0.373045
    70  C   -0.372721
    71  C    0.091076
    72  C    0.089877
    73  C    0.020151
    74  C    0.020622
    75  C   -0.006871
    76  C   -0.008124
    77  C   -0.038454
    78  C   -0.040751
    79  C   -0.357102
    80  C   -0.357370
    81  C    0.034527
    82  C    0.144862
    83  C    0.121498
    84  C    0.068498
    85  Cl   0.028324
    86  Cl   0.022195
    87  Cl   0.020934
    88  Cl   0.026472
    89  Cl   0.020476
    90  Cl   0.028371
    91  Cl   0.016307
    92  Cl   0.022714
    93  Cl   0.028723
    94  Cl   0.003084
    95  Cl   0.025438
    96  Cl   0.000224
    97  Cl  -0.004595
    98  Cl  -0.004449
 Electronic spatial extent (au):  <R**2>=          66740.2646
 Charge=              0.0000 electrons
 Dipole moment (field-independent basis, Debye):
    X=              0.6392    Y=             -3.6520    Z=              0.6888  Tot=              3.7709
 Quadrupole moment (field-independent basis, Debye-Ang):
   XX=           -702.9232   YY=           -662.6488   ZZ=           -630.5239
   XY=             -4.7464   XZ=             -1.0391   YZ=              1.6203
 Traceless Quadrupole moment (field-independent basis, Debye-Ang):
   XX=            -37.5579   YY=              2.7165   ZZ=             34.8414
   XY=             -4.7464   XZ=             -1.0391   YZ=              1.6203
 Octapole moment (field-independent basis, Debye-Ang**2):
  XXX=             14.8862  YYY=            -84.8214  ZZZ=              5.2738  XYY=             27.7272
  XXY=             41.0188  XXZ=              4.8997  XZZ=              6.1656  YZZ=             22.7936
  YYZ=             10.0598  XYZ=             15.8606
 Hexadecapole moment (field-independent basis, Debye-Ang**3):
 XXXX=         -39589.2434 YYYY=         -30772.9965 ZZZZ=         -23640.2280 XXXY=             19.0385
 XXXZ=             14.4148 YYYX=            -31.6662 YYYZ=             17.1134 ZZZX=            -17.7086
 ZZZY=            -47.2884 XXYY=         -11977.9464 XXZZ=         -10770.1359 YYZZ=          -8960.7161
 XXYZ=            -39.7495 YYXZ=             26.2511 ZZXY=            -22.2134
 N-N= 2.605895504529D+04 E-N=-7.482232609854D+04  KE= 9.594204120580D+03
 No NMR shielding tensors so no spin-rotation constants.
 Leave Link  601 at Wed Jun 29 12:15:09 2022, MaxMem=  1342177280 cpu:              27.6 elap:               1.4
 (Enter /home/mkliu/g16/l9999.exe)
 1\1\GINC-NODE03\FOpt\RB3LYP\6-31G(d,p)\C84Cl14\MKLIU\29-Jun-2022\0\\#P
  opt b3lyp/6-31G(d, p) empiricaldispersion=GD3\\force\\0,1\C,8.2779368
 964,18.9100229005,10.5316233041\C,12.5073520983,20.0020367406,8.892440
 2927\C,8.2537617759,26.8576567834,10.5300862458\C,12.5005687595,25.762
 0559327,8.9035497695\C,7.9603709139,18.9644979739,9.1627535069\C,11.88
 28376959,19.5842088019,10.2012070721\C,7.9361894646,26.8121461139,9.13
 89008398\C,11.888859478,26.1894314591,10.2169945112\C,8.9685432234,19.
 1215551392,8.1483380493\C,12.1294103217,20.2284970162,11.3801417728\C,
 12.1498892343,25.5479143207,11.3795742625\C,8.9475883185,26.6456115063
 ,8.1522514234\C,10.299128645,19.0733380351,8.5927489609\C,10.289389159
 4,26.6959188867,8.6136887237\C,10.6216579521,18.9851437656,9.987725801
 9\C,10.6080396909,26.8005284294,9.9905971374\C,9.6187436233,18.9986176
 407,10.9916092371\C,9.5947302548,26.7916577092,10.9903968993\C,9.90282
 16467,19.6558976402,12.234962149\C,9.8615566597,26.1045973962,12.23200
 97322\C,8.7688439532,20.0735038805,13.1491457576\C,8.7752753911,25.512
 3560536,12.9101879641\C,7.4382966595,20.1720014502,12.4368111794\C,7.4
 367323392,25.5899659282,12.4137675879\C,7.2113281267,19.5520511953,11.
 2758586294\C,7.1812868261,26.2542880316,11.259600533\C,6.090084141,19.
 9605488586,10.3413829248\C,6.0656677803,25.830206612,10.3275098962\C,6
 .6612097496,19.5546789316,9.0037647068\C,6.6436951111,26.2264473296,8.
 9862536712\C,6.3586330845,20.2114616025,7.8670800328\C,6.344380896,25.
 5571044211,7.8497006491\C,7.3243388721,20.3236055788,6.8035735114\C,7.
 3135612067,25.4412063902,6.8001831548\C,8.6661963931,19.8665445078,6.9
 520525287\C,8.6551168488,25.9002209446,6.954948872\C,9.7334247177,20.5
 900023784,6.2758572349\C,9.7256801367,25.177032328,6.2819194198\C,11.0
 818286716,20.5532877454,6.8187691314\C,12.7248835908,22.1880370794,7.7
 537942635\C,12.7252391752,23.5805769086,7.7541764691\C,11.0749215336,2
 5.2132383266,6.8339144092\C,11.3435888036,19.77844696,7.9174080215\C,1
 2.8873933594,21.4705946164,8.9360482637\C,12.8860806684,24.2927838228,
 8.9381768054\C,11.3320323917,25.9817959598,7.9354119007\C,13.096140027
 1,22.1699477388,10.144857361\C,13.0941819273,23.5857622406,10.14026731
 93\C,13.0780384469,21.3983041771,11.4748404863\C,13.0697014137,24.3464
 209036,11.464471568\C,12.4371027825,22.1919217244,12.5843502414\C,12.3
 950917263,23.5291430635,12.5503234147\C,11.1420275808,20.2507963557,12
 .3997137039\C,11.1403776278,25.4747971638,12.407563297\C,11.4283800342
 ,21.3804972831,13.3678795856\C,11.2939162561,24.2768624078,13.12590635
 28\C,8.950038259,21.4957953943,13.6330653678\C,8.9278547026,24.2669256
 764,13.6073238543\C,7.7233075125,22.196813864,13.5266521523\C,7.705517
 273,23.5599429378,13.5366949279\C,6.6591786197,21.4046122465,12.817110
 8544\C,6.6432999592,24.3620681354,12.8156126029\C,6.1599721349,22.1801
 672344,11.5730030997\C,6.1561706854,23.5949213947,11.5695865181\C,5.87
 19970595,21.4821814926,10.3838490396\C,5.8677742265,24.2982882822,10.3
 795081178\C,5.5660756127,22.1824320787,9.19439592\C,5.5640481195,23.59
 29683793,9.1907845628\C,5.4141551912,21.4017365697,7.868274379\C,5.406
 2895469,24.363022409,7.858784615\C,5.9411774535,22.2010418941,6.695863
 8339\C,5.9387927323,23.5572757504,6.6917033168\C,7.014259662,21.481537
 6066,6.0523829983\C,7.0081936821,24.2778097442,6.0442045556\C,8.043201
 1658,22.1580751393,5.3874182394\C,8.0380169214,23.6083387932,5.3859629
 832\C,9.3784295905,21.6984762973,5.4748453543\C,9.3766439376,24.074670
 6705,5.4779154592\C,12.1022380308,21.6348377282,6.4806064748\C,12.0986
 174706,24.1380101754,6.4864328478\C,10.2413150294,22.8873596774,5.4262
 332635\C,11.4891118329,22.8870130665,5.9156013583\C,10.1682765582,22.1
 537417608,13.6986750163\C,10.1720257311,23.5869195232,13.6705690162\Cl
 ,4.5300046135,19.0775329501,10.7412969188\Cl,3.6560224766,20.916278110
 6,7.6337348101\Cl,3.6443350033,24.8326325458,7.6188223023\Cl,4.4891605
 791,26.6897607956,10.7097479959\Cl,5.2207059018,21.0293581586,13.91429
 09904\Cl,5.2190425266,24.7752696753,13.8989641883\Cl,14.801303596,20.8
 603414314,11.8799008761\Cl,14.7820688395,24.824528352,11.94322193\Cl,1
 3.9601523497,18.9576803738,8.4679815075\Cl,13.3962862567,20.9447107027
 ,5.3357228391\Cl,13.9493383996,26.8096450189,8.4658546569\Cl,13.387466
 9847,24.8372640858,5.3387627718\Cl,8.6591761553,18.897613156,14.595969
 0145\Cl,12.190528896,20.7169781039,14.93895036\\Version=ES64L-G16RevA.
 03\State=1-A\HF=-9643.82818\RMSD=7.950e-09\RMSF=2.453e-05\Dipole=-0.44
 4722,0.8818859,-1.1070591\Quadrupole=-25.7631216,20.2088382,5.5542834,
 0.7894277,9.1876312,10.2650368\PG=C01 [X(C84Cl14)]\\@


 FIREWORKS ENDED
 AND SPECTATORS GONE AWAY....
 AH, HOW VAST AND DARK
                     SHIKI
 Job cpu time:       1 days 13 hours 32 minutes  0.5 seconds.
 Elapsed time:       0 days  1 hours 33 minutes 57.9 seconds.
 File lengths (MBytes):  RWF=   1429 Int=      0 D2E=      0 Chk=    179 Scr=      1
 Normal termination of Gaussian 16 at Wed Jun 29 12:15:12 2022.
