 Entering Gaussian System, Link 0=g16
 Input=14_addons_C84_14_Cl22_rank_9.gjf
 Output=14_addons_C84_14_Cl22_rank_9.log
 Initial command:
 /home/mkliu/g16/l1.exe "/data/scratch/Gau-119076.inp" -scrdir="/data/scratch/"
 Entering Link 1 = /home/mkliu/g16/l1.exe PID=    119077.
  
 Copyright (c) 1988,1990,1992,1993,1995,1998,2003,2009,2016,
            Gaussian, Inc.  All Rights Reserved.
  
 This is part of the Gaussian(R) 16 program.  It is based on
 the Gaussian(R) 09 system (copyright 2009, Gaussian, Inc.),
 the Gaussian(R) 03 system (copyright 2003, Gaussian, Inc.),
 the Gaussian(R) 98 system (copyright 1998, Gaussian, Inc.),
 the Gaussian(R) 94 system (copyright 1995, Gaussian, Inc.),
 the Gaussian 92(TM) system (copyright 1992, Gaussian, Inc.),
 the Gaussian 90(TM) system (copyright 1990, Gaussian, Inc.),
 the Gaussian 88(TM) system (copyright 1988, Gaussian, Inc.),
 the Gaussian 86(TM) system (copyright 1986, Carnegie Mellon
 University), and the Gaussian 82(TM) system (copyright 1983,
 Carnegie Mellon University). Gaussian is a federally registered
 trademark of Gaussian, Inc.
  
 This software contains proprietary and confidential information,
 including trade secrets, belonging to Gaussian, Inc.
  
 This software is provided under written license and may be
 used, copied, transmitted, or stored only in accord with that
 written license.
  
 The following legend is applicable only to US Government
 contracts under FAR:
  
                    RESTRICTED RIGHTS LEGEND
  
 Use, reproduction and disclosure by the US Government is
 subject to restrictions as set forth in subparagraphs (a)
 and (c) of the Commercial Computer Software - Restricted
 Rights clause in FAR 52.227-19.
  
 Gaussian, Inc.
 340 Quinnipiac St., Bldg. 40, Wallingford CT 06492
  
  
 ---------------------------------------------------------------
 Warning -- This program may not be used in any manner that
 competes with the business of Gaussian, Inc. or will provide
 assistance to any competitor of Gaussian, Inc.  The licensee
 of this program is prohibited from giving any competitor of
 Gaussian, Inc. access to this program.  By using this program,
 the user acknowledges that Gaussian, Inc. is engaged in the
 business of creating and licensing software in the field of
 computational chemistry and represents and warrants to the
 licensee that it is not a competitor of Gaussian, Inc. and that
 it will not use this program in any manner prohibited above.
 ---------------------------------------------------------------
  

 Cite this work as:
 Gaussian 16, Revision A.03,
 M. J. Frisch, G. W. Trucks, H. B. Schlegel, G. E. Scuseria, 
 M. A. Robb, J. R. Cheeseman, G. Scalmani, V. Barone, 
 G. A. Petersson, H. Nakatsuji, X. Li, M. Caricato, A. V. Marenich, 
 J. Bloino, B. G. Janesko, R. Gomperts, B. Mennucci, H. P. Hratchian, 
 J. V. Ortiz, A. F. Izmaylov, J. L. Sonnenberg, D. Williams-Young, 
 F. Ding, F. Lipparini, F. Egidi, J. Goings, B. Peng, A. Petrone, 
 T. Henderson, D. Ranasinghe, V. G. Zakrzewski, J. Gao, N. Rega, 
 G. Zheng, W. Liang, M. Hada, M. Ehara, K. Toyota, R. Fukuda, 
 J. Hasegawa, M. Ishida, T. Nakajima, Y. Honda, O. Kitao, H. Nakai, 
 T. Vreven, K. Throssell, J. A. Montgomery, Jr., J. E. Peralta, 
 F. Ogliaro, M. J. Bearpark, J. J. Heyd, E. N. Brothers, K. N. Kudin, 
 V. N. Staroverov, T. A. Keith, R. Kobayashi, J. Normand, 
 K. Raghavachari, A. P. Rendell, J. C. Burant, S. S. Iyengar, 
 J. Tomasi, M. Cossi, J. M. Millam, M. Klene, C. Adamo, R. Cammi, 
 J. W. Ochterski, R. L. Martin, K. Morokuma, O. Farkas, 
 J. B. Foresman, and D. J. Fox, Gaussian, Inc., Wallingford CT, 2016.
 
 ******************************************
 Gaussian 16:  ES64L-G16RevA.03 25-Dec-2016
                26-Jun-2022 
 ******************************************
 %mem=10GB
 %chk=14_addons_C84_14_Cl22_rank_9.chk
 %nprocshared=24
 Will use up to   24 processors via shared memory.
 ------------------------------------------------
 #P opt b3lyp/6-31G(d, p) empiricaldispersion=GD3
 ------------------------------------------------
 1/18=20,19=15,26=3,38=1/1,3;
 2/9=110,12=2,17=6,18=5,40=1/2;
 3/5=1,6=6,7=101,11=2,25=1,30=1,71=1,74=-5,124=31/1,2,3;
 4//1;
 5/5=2,38=5/2;
 6/7=2,8=2,9=2,10=2,28=1/1;
 7//1,2,3,16;
 1/18=20,19=15,26=3/3(2);
 2/9=110/2;
 99//99;
 2/9=110/2;
 3/5=1,6=6,7=101,11=2,25=1,30=1,71=1,74=-5,124=31/1,2,3;
 4/5=5,16=3,69=1/1;
 5/5=2,38=5/2;
 7//1,2,3,16;
 1/18=20,19=15,26=3/3(-5);
 2/9=110/2;
 6/7=2,8=2,9=2,10=2,19=2,28=1/1;
 99/9=1/99;
 Leave Link    1 at Sun Jun 26 21:59:57 2022, MaxMem=  1342177280 cpu:               0.6 elap:               0.0
 (Enter /home/mkliu/g16/l101.exe)
 -----
 force
 -----
 Symbolic Z-matrix:
 Charge =  0 Multiplicity = 1
 C                     8.2778    18.90945   10.5372 
 C                     12.48361   20.01     8.90892 
 C                     8.27382   26.83394   10.53993 
 C                     12.46634   25.75305   8.92083 
 C                     7.96349   18.97128   9.17067 
 C                     11.88012   19.572    10.20969 
 C                     7.95662   26.77601   9.13913 
 C                     11.87316   26.20335   10.22538 
 C                     8.96133   19.14064   8.16984 
 C                     12.13035   20.20898   11.38161 
 C                     12.13591   25.55412   11.40682 
 C                     8.95885   26.5962   8.15928 
 C                     10.28778   19.08967   8.62099 
 C                     10.28701   26.65034   8.6192 
 C                     10.61001   18.98072   9.99891 
 C                     10.61661   26.79172   10.01605 
 C                     9.61073   18.99089   11.00084 
 C                     9.60829   26.78291   11.00421 
 C                     9.88849   19.64222   12.23136 
 C                     9.87624   26.10457   12.23389 
 C                     8.76839   20.0708   13.13654 
 C                     8.79021   25.50332   12.9094 
 C                     7.44783   20.17248   12.43034 
 C                     7.47702   25.56564   12.41294 
 C                     7.21617   19.54931   11.27288 
 C                     7.2174    26.23711   11.24861 
 C                     6.11082   19.97251   10.34609 
 C                     6.11613   25.80195   10.32374 
 C                     6.67401   19.56223   9.0209 
 C                     6.689     26.1982   8.99599 
 C                     6.37053   20.2216   7.8852 
 C                     6.38966   25.52187   7.84426 
 C                     7.33423   20.33106   6.83542 
 C                     7.32952   25.42409   6.8086 
 C                     8.66599   19.88666   6.98956 
 C                     8.67617   25.85146   6.97382 
 C                     9.72149   20.61727   6.32957 
 C                     9.7331    25.14628   6.32387 
 C                     11.05606   20.57419   6.86296 
 C                     12.63875   22.19366   7.8046 
 C                     12.63237   23.58071   7.80355 
 C                     11.02715   25.17196   6.84996 
 C                     11.32604   19.7963   7.95201 
 C                     12.80581   21.48103   8.97738 
 C                     12.79217   24.28605   8.98301 
 C                     11.30529   25.95868   7.96693 
 C                     13.00981   22.17854   10.17751 
 C                     13.0031   23.58304   10.17972 
 C                     13.04629   21.39769   11.48166 
 C                     13.04605   24.3548   11.48754 
 C                     12.37814   22.18197   12.57543 
 C                     12.38448   23.55643   12.57616 
 C                     11.1215   20.25436   12.3875 
 C                     11.14225   25.49427   12.40073 
 C                     11.29886   21.47923   13.12843 
 C                     11.29135   24.25325   13.11361 
 C                     8.94046   21.47518   13.63397 
 C                     8.943     24.25209   13.60343 
 C                     7.74616   22.178    13.51672 
 C                     7.73415   23.55301   13.52898 
 C                     6.68338   21.40897   12.79709 
 C                     6.6898    24.34357   12.79596 
 C                     6.25202   22.18123   11.55015 
 C                     6.26136   23.58426   11.54427 
 C                     5.95776   21.48794   10.37103 
 C                     5.97605   24.28209   10.36118 
 C                     5.65442   22.18241   9.19043 
 C                     5.66448   23.58338   9.18277 
 C                     5.43741   21.4024   7.89249 
 C                     5.45279   24.34627   7.87265 
 C                     5.95497   22.18802   6.72198 
 C                     5.96652   23.54475   6.71187 
 C                     7.01752   21.48484   6.08688 
 C                     7.02447   24.24332   6.05005 
 C                     8.04023   22.17229   5.42732 
 C                     8.01488   23.58544   5.36854 
 C                     9.37629   21.71453   5.52639 
 C                     9.40787   24.13126   5.25034 
 C                     12.0637   21.64278   6.52778 
 C                     12.06906   24.13141   6.51584 
 C                     10.2318   22.87869   5.43086 
 C                     11.46263   22.88685   5.944 
 C                     10.17739   22.14708   13.67963 
 C                     10.18107   23.57772   13.66867 
 Cl                    4.53234   19.21484   10.74577 
 Cl                    3.6986    20.97115   7.7678 
 Cl                    3.71356   24.77883   7.7386 
 Cl                    4.52645   26.54576   10.69944 
 Cl                    5.21988   21.08888   13.80086 
 Cl                    5.22967   24.70397   13.779 
 Cl                    14.75408   20.96348   11.849 
 Cl                    14.75458   24.78635   11.85044 
 Cl                    13.94759   19.07549   8.44097 
 Cl                    13.36259   20.96301   5.4593 
 Cl                    13.92345   26.69574   8.4469 
 Cl                    13.35813   24.84462   5.4729 
 Cl                    8.66178   18.89783   14.54382 
 Cl                    9.7053    24.89311   3.63023 
 
 ITRead=  0  0  0  0  0  0  0  0  0  0  0  0  0  0  0  0  0  0  0  0
 ITRead=  0  0  0  0  0  0  0  0  0  0  0  0  0  0  0  0  0  0  0  0
 ITRead=  0  0  0  0  0  0  0  0  0  0  0  0  0  0  0  0  0  0  0  0
 ITRead=  0  0  0  0  0  0  0  0  0  0  0  0  0  0  0  0  0  0  0  0
 ITRead=  0  0  0  0  0  0  0  0  0  0  0  0  0  0  0  0  0  0
 MicOpt= -1 -1 -1 -1 -1 -1 -1 -1 -1 -1 -1 -1 -1 -1 -1 -1 -1 -1 -1 -1
 MicOpt= -1 -1 -1 -1 -1 -1 -1 -1 -1 -1 -1 -1 -1 -1 -1 -1 -1 -1 -1 -1
 MicOpt= -1 -1 -1 -1 -1 -1 -1 -1 -1 -1 -1 -1 -1 -1 -1 -1 -1 -1 -1 -1
 MicOpt= -1 -1 -1 -1 -1 -1 -1 -1 -1 -1 -1 -1 -1 -1 -1 -1 -1 -1 -1 -1
 MicOpt= -1 -1 -1 -1 -1 -1 -1 -1 -1 -1 -1 -1 -1 -1 -1 -1 -1 -1
 NAtoms=     98 NQM=       98 NQMF=       0 NMMI=      0 NMMIF=      0
                NMic=       0 NMicF=      0.
                    Isotopes and Nuclear Properties:
 (Nuclear quadrupole moments (NQMom) in fm**2, nuclear magnetic moments (NMagM)
  in nuclear magnetons)

  Atom         1           2           3           4           5           6           7           8           9          10
 IAtWgt=          12          12          12          12          12          12          12          12          12          12
 AtmWgt=  12.0000000  12.0000000  12.0000000  12.0000000  12.0000000  12.0000000  12.0000000  12.0000000  12.0000000  12.0000000
 NucSpn=           0           0           0           0           0           0           0           0           0           0
 AtZEff=  -0.0000000  -0.0000000  -0.0000000  -0.0000000  -0.0000000  -0.0000000  -0.0000000  -0.0000000  -0.0000000  -0.0000000
 NQMom=    0.0000000   0.0000000   0.0000000   0.0000000   0.0000000   0.0000000   0.0000000   0.0000000   0.0000000   0.0000000
 NMagM=    0.0000000   0.0000000   0.0000000   0.0000000   0.0000000   0.0000000   0.0000000   0.0000000   0.0000000   0.0000000
 AtZNuc=   6.0000000   6.0000000   6.0000000   6.0000000   6.0000000   6.0000000   6.0000000   6.0000000   6.0000000   6.0000000

  Atom        11          12          13          14          15          16          17          18          19          20
 IAtWgt=          12          12          12          12          12          12          12          12          12          12
 AtmWgt=  12.0000000  12.0000000  12.0000000  12.0000000  12.0000000  12.0000000  12.0000000  12.0000000  12.0000000  12.0000000
 NucSpn=           0           0           0           0           0           0           0           0           0           0
 AtZEff=  -0.0000000  -0.0000000  -0.0000000  -0.0000000  -0.0000000  -0.0000000  -0.0000000  -0.0000000  -0.0000000  -0.0000000
 NQMom=    0.0000000   0.0000000   0.0000000   0.0000000   0.0000000   0.0000000   0.0000000   0.0000000   0.0000000   0.0000000
 NMagM=    0.0000000   0.0000000   0.0000000   0.0000000   0.0000000   0.0000000   0.0000000   0.0000000   0.0000000   0.0000000
 AtZNuc=   6.0000000   6.0000000   6.0000000   6.0000000   6.0000000   6.0000000   6.0000000   6.0000000   6.0000000   6.0000000

  Atom        21          22          23          24          25          26          27          28          29          30
 IAtWgt=          12          12          12          12          12          12          12          12          12          12
 AtmWgt=  12.0000000  12.0000000  12.0000000  12.0000000  12.0000000  12.0000000  12.0000000  12.0000000  12.0000000  12.0000000
 NucSpn=           0           0           0           0           0           0           0           0           0           0
 AtZEff=  -0.0000000  -0.0000000  -0.0000000  -0.0000000  -0.0000000  -0.0000000  -0.0000000  -0.0000000  -0.0000000  -0.0000000
 NQMom=    0.0000000   0.0000000   0.0000000   0.0000000   0.0000000   0.0000000   0.0000000   0.0000000   0.0000000   0.0000000
 NMagM=    0.0000000   0.0000000   0.0000000   0.0000000   0.0000000   0.0000000   0.0000000   0.0000000   0.0000000   0.0000000
 AtZNuc=   6.0000000   6.0000000   6.0000000   6.0000000   6.0000000   6.0000000   6.0000000   6.0000000   6.0000000   6.0000000

  Atom        31          32          33          34          35          36          37          38          39          40
 IAtWgt=          12          12          12          12          12          12          12          12          12          12
 AtmWgt=  12.0000000  12.0000000  12.0000000  12.0000000  12.0000000  12.0000000  12.0000000  12.0000000  12.0000000  12.0000000
 NucSpn=           0           0           0           0           0           0           0           0           0           0
 AtZEff=  -0.0000000  -0.0000000  -0.0000000  -0.0000000  -0.0000000  -0.0000000  -0.0000000  -0.0000000  -0.0000000  -0.0000000
 NQMom=    0.0000000   0.0000000   0.0000000   0.0000000   0.0000000   0.0000000   0.0000000   0.0000000   0.0000000   0.0000000
 NMagM=    0.0000000   0.0000000   0.0000000   0.0000000   0.0000000   0.0000000   0.0000000   0.0000000   0.0000000   0.0000000
 AtZNuc=   6.0000000   6.0000000   6.0000000   6.0000000   6.0000000   6.0000000   6.0000000   6.0000000   6.0000000   6.0000000

  Atom        41          42          43          44          45          46          47          48          49          50
 IAtWgt=          12          12          12          12          12          12          12          12          12          12
 AtmWgt=  12.0000000  12.0000000  12.0000000  12.0000000  12.0000000  12.0000000  12.0000000  12.0000000  12.0000000  12.0000000
 NucSpn=           0           0           0           0           0           0           0           0           0           0
 AtZEff=  -0.0000000  -0.0000000  -0.0000000  -0.0000000  -0.0000000  -0.0000000  -0.0000000  -0.0000000  -0.0000000  -0.0000000
 NQMom=    0.0000000   0.0000000   0.0000000   0.0000000   0.0000000   0.0000000   0.0000000   0.0000000   0.0000000   0.0000000
 NMagM=    0.0000000   0.0000000   0.0000000   0.0000000   0.0000000   0.0000000   0.0000000   0.0000000   0.0000000   0.0000000
 AtZNuc=   6.0000000   6.0000000   6.0000000   6.0000000   6.0000000   6.0000000   6.0000000   6.0000000   6.0000000   6.0000000

  Atom        51          52          53          54          55          56          57          58          59          60
 IAtWgt=          12          12          12          12          12          12          12          12          12          12
 AtmWgt=  12.0000000  12.0000000  12.0000000  12.0000000  12.0000000  12.0000000  12.0000000  12.0000000  12.0000000  12.0000000
 NucSpn=           0           0           0           0           0           0           0           0           0           0
 AtZEff=  -0.0000000  -0.0000000  -0.0000000  -0.0000000  -0.0000000  -0.0000000  -0.0000000  -0.0000000  -0.0000000  -0.0000000
 NQMom=    0.0000000   0.0000000   0.0000000   0.0000000   0.0000000   0.0000000   0.0000000   0.0000000   0.0000000   0.0000000
 NMagM=    0.0000000   0.0000000   0.0000000   0.0000000   0.0000000   0.0000000   0.0000000   0.0000000   0.0000000   0.0000000
 AtZNuc=   6.0000000   6.0000000   6.0000000   6.0000000   6.0000000   6.0000000   6.0000000   6.0000000   6.0000000   6.0000000

  Atom        61          62          63          64          65          66          67          68          69          70
 IAtWgt=          12          12          12          12          12          12          12          12          12          12
 AtmWgt=  12.0000000  12.0000000  12.0000000  12.0000000  12.0000000  12.0000000  12.0000000  12.0000000  12.0000000  12.0000000
 NucSpn=           0           0           0           0           0           0           0           0           0           0
 AtZEff=  -0.0000000  -0.0000000  -0.0000000  -0.0000000  -0.0000000  -0.0000000  -0.0000000  -0.0000000  -0.0000000  -0.0000000
 NQMom=    0.0000000   0.0000000   0.0000000   0.0000000   0.0000000   0.0000000   0.0000000   0.0000000   0.0000000   0.0000000
 NMagM=    0.0000000   0.0000000   0.0000000   0.0000000   0.0000000   0.0000000   0.0000000   0.0000000   0.0000000   0.0000000
 AtZNuc=   6.0000000   6.0000000   6.0000000   6.0000000   6.0000000   6.0000000   6.0000000   6.0000000   6.0000000   6.0000000

  Atom        71          72          73          74          75          76          77          78          79          80
 IAtWgt=          12          12          12          12          12          12          12          12          12          12
 AtmWgt=  12.0000000  12.0000000  12.0000000  12.0000000  12.0000000  12.0000000  12.0000000  12.0000000  12.0000000  12.0000000
 NucSpn=           0           0           0           0           0           0           0           0           0           0
 AtZEff=  -0.0000000  -0.0000000  -0.0000000  -0.0000000  -0.0000000  -0.0000000  -0.0000000  -0.0000000  -0.0000000  -0.0000000
 NQMom=    0.0000000   0.0000000   0.0000000   0.0000000   0.0000000   0.0000000   0.0000000   0.0000000   0.0000000   0.0000000
 NMagM=    0.0000000   0.0000000   0.0000000   0.0000000   0.0000000   0.0000000   0.0000000   0.0000000   0.0000000   0.0000000
 AtZNuc=   6.0000000   6.0000000   6.0000000   6.0000000   6.0000000   6.0000000   6.0000000   6.0000000   6.0000000   6.0000000

  Atom        81          82          83          84          85          86          87          88          89          90
 IAtWgt=          12          12          12          12          35          35          35          35          35          35
 AtmWgt=  12.0000000  12.0000000  12.0000000  12.0000000  34.9688527  34.9688527  34.9688527  34.9688527  34.9688527  34.9688527
 NucSpn=           0           0           0           0           3           3           3           3           3           3
 AtZEff=  -0.0000000  -0.0000000  -0.0000000  -0.0000000  -0.0000000  -0.0000000  -0.0000000  -0.0000000  -0.0000000  -0.0000000
 NQMom=    0.0000000   0.0000000   0.0000000   0.0000000  -8.1650000  -8.1650000  -8.1650000  -8.1650000  -8.1650000  -8.1650000
 NMagM=    0.0000000   0.0000000   0.0000000   0.0000000   0.8218740   0.8218740   0.8218740   0.8218740   0.8218740   0.8218740
 AtZNuc=   6.0000000   6.0000000   6.0000000   6.0000000  17.0000000  17.0000000  17.0000000  17.0000000  17.0000000  17.0000000

  Atom        91          92          93          94          95          96          97          98
 IAtWgt=          35          35          35          35          35          35          35          35
 AtmWgt=  34.9688527  34.9688527  34.9688527  34.9688527  34.9688527  34.9688527  34.9688527  34.9688527
 NucSpn=           3           3           3           3           3           3           3           3
 AtZEff=  -0.0000000  -0.0000000  -0.0000000  -0.0000000  -0.0000000  -0.0000000  -0.0000000  -0.0000000
 NQMom=   -8.1650000  -8.1650000  -8.1650000  -8.1650000  -8.1650000  -8.1650000  -8.1650000  -8.1650000
 NMagM=    0.8218740   0.8218740   0.8218740   0.8218740   0.8218740   0.8218740   0.8218740   0.8218740
 AtZNuc=  17.0000000  17.0000000  17.0000000  17.0000000  17.0000000  17.0000000  17.0000000  17.0000000
 Leave Link  101 at Sun Jun 26 21:59:57 2022, MaxMem=  1342177280 cpu:               6.7 elap:               0.3
 (Enter /home/mkliu/g16/l103.exe)

 GradGradGradGradGradGradGradGradGradGradGradGradGradGradGradGradGradGrad
 Berny optimization.
 Initialization pass.
                           ----------------------------
                           !    Initial Parameters    !
                           ! (Angstroms and Degrees)  !
 --------------------------                            --------------------------
 ! Name  Definition              Value          Derivative Info.                !
 --------------------------------------------------------------------------------
 ! R1    R(1,5)                  1.4036         estimate D2E/DX2                !
 ! R2    R(1,17)                 1.4136         estimate D2E/DX2                !
 ! R3    R(1,25)                 1.4414         estimate D2E/DX2                !
 ! R4    R(2,6)                  1.4993         estimate D2E/DX2                !
 ! R5    R(2,43)                 1.517          estimate D2E/DX2                !
 ! R6    R(2,44)                 1.5075         estimate D2E/DX2                !
 ! R7    R(2,93)                 1.7988         estimate D2E/DX2                !
 ! R8    R(3,7)                  1.4374         estimate D2E/DX2                !
 ! R9    R(3,18)                 1.4138         estimate D2E/DX2                !
 ! R10   R(3,26)                 1.4052         estimate D2E/DX2                !
 ! R11   R(4,8)                  1.5022         estimate D2E/DX2                !
 ! R12   R(4,45)                 1.504          estimate D2E/DX2                !
 ! R13   R(4,46)                 1.5167         estimate D2E/DX2                !
 ! R14   R(4,95)                 1.799          estimate D2E/DX2                !
 ! R15   R(5,9)                  1.4234         estimate D2E/DX2                !
 ! R16   R(5,29)                 1.4263         estimate D2E/DX2                !
 ! R17   R(6,10)                 1.3571         estimate D2E/DX2                !
 ! R18   R(6,15)                 1.4168         estimate D2E/DX2                !
 ! R19   R(7,12)                 1.4131         estimate D2E/DX2                !
 ! R20   R(7,30)                 1.4004         estimate D2E/DX2                !
 ! R21   R(8,11)                 1.3734         estimate D2E/DX2                !
 ! R22   R(8,16)                 1.4032         estimate D2E/DX2                !
 ! R23   R(9,13)                 1.402          estimate D2E/DX2                !
 ! R24   R(9,35)                 1.4272         estimate D2E/DX2                !
 ! R25   R(10,49)                1.504          estimate D2E/DX2                !
 ! R26   R(10,53)                1.4254         estimate D2E/DX2                !
 ! R27   R(11,50)                1.5077         estimate D2E/DX2                !
 ! R28   R(11,54)                1.4067         estimate D2E/DX2                !
 ! R29   R(12,14)                1.4066         estimate D2E/DX2                !
 ! R30   R(12,36)                1.4282         estimate D2E/DX2                !
 ! R31   R(13,15)                1.4193         estimate D2E/DX2                !
 ! R32   R(13,43)                1.423          estimate D2E/DX2                !
 ! R33   R(14,16)                1.4422         estimate D2E/DX2                !
 ! R34   R(14,46)                1.3931         estimate D2E/DX2                !
 ! R35   R(15,17)                1.4151         estimate D2E/DX2                !
 ! R36   R(16,18)                1.4118         estimate D2E/DX2                !
 ! R37   R(17,19)                1.4197         estimate D2E/DX2                !
 ! R38   R(18,20)                1.4297         estimate D2E/DX2                !
 ! R39   R(19,21)                1.5025         estimate D2E/DX2                !
 ! R40   R(19,53)                1.3854         estimate D2E/DX2                !
 ! R41   R(20,22)                1.4132         estimate D2E/DX2                !
 ! R42   R(20,54)                1.4153         estimate D2E/DX2                !
 ! R43   R(21,23)                1.501          estimate D2E/DX2                !
 ! R44   R(21,57)                1.4998         estimate D2E/DX2                !
 ! R45   R(21,97)                1.8351         estimate D2E/DX2                !
 ! R46   R(22,24)                1.4053         estimate D2E/DX2                !
 ! R47   R(22,58)                1.439          estimate D2E/DX2                !
 ! R48   R(23,25)                1.3348         estimate D2E/DX2                !
 ! R49   R(23,61)                1.4993         estimate D2E/DX2                !
 ! R50   R(24,26)                1.3689         estimate D2E/DX2                !
 ! R51   R(24,62)                1.5033         estimate D2E/DX2                !
 ! R52   R(25,27)                1.5033         estimate D2E/DX2                !
 ! R53   R(26,28)                1.5025         estimate D2E/DX2                !
 ! R54   R(27,29)                1.4972         estimate D2E/DX2                !
 ! R55   R(27,65)                1.5233         estimate D2E/DX2                !
 ! R56   R(27,85)                1.7959         estimate D2E/DX2                !
 ! R57   R(28,30)                1.4994         estimate D2E/DX2                !
 ! R58   R(28,66)                1.5268         estimate D2E/DX2                !
 ! R59   R(28,88)                1.7949         estimate D2E/DX2                !
 ! R60   R(29,31)                1.3479         estimate D2E/DX2                !
 ! R61   R(30,32)                1.3688         estimate D2E/DX2                !
 ! R62   R(31,33)                1.4292         estimate D2E/DX2                !
 ! R63   R(31,69)                1.505          estimate D2E/DX2                !
 ! R64   R(32,34)                1.402          estimate D2E/DX2                !
 ! R65   R(32,70)                1.5035         estimate D2E/DX2                !
 ! R66   R(33,35)                1.4124         estimate D2E/DX2                !
 ! R67   R(33,73)                1.4113         estimate D2E/DX2                !
 ! R68   R(34,36)                1.4225         estimate D2E/DX2                !
 ! R69   R(34,74)                1.4362         estimate D2E/DX2                !
 ! R70   R(35,37)                1.4434         estimate D2E/DX2                !
 ! R71   R(36,38)                1.4272         estimate D2E/DX2                !
 ! R72   R(37,39)                1.4379         estimate D2E/DX2                !
 ! R73   R(37,77)                1.4029         estimate D2E/DX2                !
 ! R74   R(38,42)                1.3971         estimate D2E/DX2                !
 ! R75   R(38,78)                1.5128         estimate D2E/DX2                !
 ! R76   R(39,43)                1.3653         estimate D2E/DX2                !
 ! R77   R(39,79)                1.5065         estimate D2E/DX2                !
 ! R78   R(40,41)                1.3871         estimate D2E/DX2                !
 ! R79   R(40,44)                1.3824         estimate D2E/DX2                !
 ! R80   R(40,79)                1.5048         estimate D2E/DX2                !
 ! R81   R(41,45)                1.3835         estimate D2E/DX2                !
 ! R82   R(41,80)                1.5096         estimate D2E/DX2                !
 ! R83   R(42,46)                1.3942         estimate D2E/DX2                !
 ! R84   R(42,80)                1.51           estimate D2E/DX2                !
 ! R85   R(44,47)                1.403          estimate D2E/DX2                !
 ! R86   R(45,48)                1.4039         estimate D2E/DX2                !
 ! R87   R(47,48)                1.4045         estimate D2E/DX2                !
 ! R88   R(47,49)                1.5205         estimate D2E/DX2                !
 ! R89   R(48,50)                1.5192         estimate D2E/DX2                !
 ! R90   R(49,51)                1.5026         estimate D2E/DX2                !
 ! R91   R(49,91)                1.8            estimate D2E/DX2                !
 ! R92   R(50,52)                1.5034         estimate D2E/DX2                !
 ! R93   R(50,92)                1.7992         estimate D2E/DX2                !
 ! R94   R(51,52)                1.3745         estimate D2E/DX2                !
 ! R95   R(51,55)                1.4016         estimate D2E/DX2                !
 ! R96   R(52,56)                1.4033         estimate D2E/DX2                !
 ! R97   R(53,55)                1.4425         estimate D2E/DX2                !
 ! R98   R(54,56)                1.4389         estimate D2E/DX2                !
 ! R99   R(55,83)                1.4169         estimate D2E/DX2                !
 ! R100  R(56,84)                1.4132         estimate D2E/DX2                !
 ! R101  R(57,59)                1.3907         estimate D2E/DX2                !
 ! R102  R(57,83)                1.4084         estimate D2E/DX2                !
 ! R103  R(58,60)                1.3984         estimate D2E/DX2                !
 ! R104  R(58,84)                1.4113         estimate D2E/DX2                !
 ! R105  R(59,60)                1.3751         estimate D2E/DX2                !
 ! R106  R(59,61)                1.4963         estimate D2E/DX2                !
 ! R107  R(60,62)                1.501          estimate D2E/DX2                !
 ! R108  R(61,63)                1.5288         estimate D2E/DX2                !
 ! R109  R(61,89)                1.8033         estimate D2E/DX2                !
 ! R110  R(62,64)                1.5254         estimate D2E/DX2                !
 ! R111  R(62,90)                1.7967         estimate D2E/DX2                !
 ! R112  R(63,64)                1.4031         estimate D2E/DX2                !
 ! R113  R(63,65)                1.3991         estimate D2E/DX2                !
 ! R114  R(64,66)                1.4029         estimate D2E/DX2                !
 ! R115  R(65,67)                1.4029         estimate D2E/DX2                !
 ! R116  R(66,68)                1.405          estimate D2E/DX2                !
 ! R117  R(67,68)                1.401          estimate D2E/DX2                !
 ! R118  R(67,69)                1.5298         estimate D2E/DX2                !
 ! R119  R(68,70)                1.5308         estimate D2E/DX2                !
 ! R120  R(69,71)                1.5017         estimate D2E/DX2                !
 ! R121  R(69,86)                1.7958         estimate D2E/DX2                !
 ! R122  R(70,72)                1.5012         estimate D2E/DX2                !
 ! R123  R(70,87)                1.7972         estimate D2E/DX2                !
 ! R124  R(71,72)                1.3568         estimate D2E/DX2                !
 ! R125  R(71,73)                1.4237         estimate D2E/DX2                !
 ! R126  R(72,74)                1.4301         estimate D2E/DX2                !
 ! R127  R(73,75)                1.3977         estimate D2E/DX2                !
 ! R128  R(74,76)                1.3705         estimate D2E/DX2                !
 ! R129  R(75,76)                1.4146         estimate D2E/DX2                !
 ! R130  R(75,77)                1.4158         estimate D2E/DX2                !
 ! R131  R(76,78)                1.5008         estimate D2E/DX2                !
 ! R132  R(77,81)                1.4479         estimate D2E/DX2                !
 ! R133  R(78,81)                1.5101         estimate D2E/DX2                !
 ! R134  R(78,98)                1.8148         estimate D2E/DX2                !
 ! R135  R(79,82)                1.4999         estimate D2E/DX2                !
 ! R136  R(79,94)                1.8141         estimate D2E/DX2                !
 ! R137  R(80,82)                1.4979         estimate D2E/DX2                !
 ! R138  R(80,96)                1.805          estimate D2E/DX2                !
 ! R139  R(81,82)                1.3335         estimate D2E/DX2                !
 ! R140  R(83,84)                1.4307         estimate D2E/DX2                !
 ! A1    A(5,1,17)             121.8668         estimate D2E/DX2                !
 ! A2    A(5,1,25)             108.2057         estimate D2E/DX2                !
 ! A3    A(17,1,25)            120.0995         estimate D2E/DX2                !
 ! A4    A(6,2,43)             101.4764         estimate D2E/DX2                !
 ! A5    A(6,2,44)             109.3721         estimate D2E/DX2                !
 ! A6    A(6,2,93)             113.673          estimate D2E/DX2                !
 ! A7    A(43,2,44)            109.2207         estimate D2E/DX2                !
 ! A8    A(43,2,93)            112.5663         estimate D2E/DX2                !
 ! A9    A(44,2,93)            110.1715         estimate D2E/DX2                !
 ! A10   A(7,3,18)             121.7925         estimate D2E/DX2                !
 ! A11   A(7,3,26)             107.9664         estimate D2E/DX2                !
 ! A12   A(18,3,26)            121.9149         estimate D2E/DX2                !
 ! A13   A(8,4,45)             110.0006         estimate D2E/DX2                !
 ! A14   A(8,4,46)             101.7283         estimate D2E/DX2                !
 ! A15   A(8,4,95)             113.0503         estimate D2E/DX2                !
 ! A16   A(45,4,46)            108.9105         estimate D2E/DX2                !
 ! A17   A(45,4,95)            110.2751         estimate D2E/DX2                !
 ! A18   A(46,4,95)            112.5387         estimate D2E/DX2                !
 ! A19   A(1,5,9)              122.1967         estimate D2E/DX2                !
 ! A20   A(1,5,29)             108.8403         estimate D2E/DX2                !
 ! A21   A(9,5,29)             120.7067         estimate D2E/DX2                !
 ! A22   A(2,6,10)             122.5369         estimate D2E/DX2                !
 ! A23   A(2,6,15)             110.7125         estimate D2E/DX2                !
 ! A24   A(10,6,15)            119.3184         estimate D2E/DX2                !
 ! A25   A(3,7,12)             121.6238         estimate D2E/DX2                !
 ! A26   A(3,7,30)             108.4203         estimate D2E/DX2                !
 ! A27   A(12,7,30)            121.2387         estimate D2E/DX2                !
 ! A28   A(4,8,11)             121.9923         estimate D2E/DX2                !
 ! A29   A(4,8,16)             110.4725         estimate D2E/DX2                !
 ! A30   A(11,8,16)            119.8581         estimate D2E/DX2                !
 ! A31   A(5,9,13)             115.6369         estimate D2E/DX2                !
 ! A32   A(5,9,35)             119.9085         estimate D2E/DX2                !
 ! A33   A(13,9,35)            118.7454         estimate D2E/DX2                !
 ! A34   A(6,10,49)            122.7315         estimate D2E/DX2                !
 ! A35   A(6,10,53)            119.5936         estimate D2E/DX2                !
 ! A36   A(49,10,53)           111.0348         estimate D2E/DX2                !
 ! A37   A(8,11,50)            122.5166         estimate D2E/DX2                !
 ! A38   A(8,11,54)            119.5226         estimate D2E/DX2                !
 ! A39   A(50,11,54)           110.777          estimate D2E/DX2                !
 ! A40   A(7,12,14)            115.9814         estimate D2E/DX2                !
 ! A41   A(7,12,36)            120.099          estimate D2E/DX2                !
 ! A42   A(14,12,36)           118.5779         estimate D2E/DX2                !
 ! A43   A(9,13,15)            122.006          estimate D2E/DX2                !
 ! A44   A(9,13,43)            121.3981         estimate D2E/DX2                !
 ! A45   A(15,13,43)           109.2017         estimate D2E/DX2                !
 ! A46   A(12,14,16)           122.4306         estimate D2E/DX2                !
 ! A47   A(12,14,46)           121.1975         estimate D2E/DX2                !
 ! A48   A(16,14,46)           109.5801         estimate D2E/DX2                !
 ! A49   A(6,15,13)            108.4177         estimate D2E/DX2                !
 ! A50   A(6,15,17)            121.6492         estimate D2E/DX2                !
 ! A51   A(13,15,17)           121.7704         estimate D2E/DX2                !
 ! A52   A(8,16,14)            107.9417         estimate D2E/DX2                !
 ! A53   A(8,16,18)            122.1765         estimate D2E/DX2                !
 ! A54   A(14,16,18)           120.9366         estimate D2E/DX2                !
 ! A55   A(1,17,15)            115.6717         estimate D2E/DX2                !
 ! A56   A(1,17,19)            119.6819         estimate D2E/DX2                !
 ! A57   A(15,17,19)           118.6084         estimate D2E/DX2                !
 ! A58   A(3,18,16)            116.3614         estimate D2E/DX2                !
 ! A59   A(3,18,20)            118.4548         estimate D2E/DX2                !
 ! A60   A(16,18,20)           118.1056         estimate D2E/DX2                !
 ! A61   A(17,19,21)           120.4756         estimate D2E/DX2                !
 ! A62   A(17,19,53)           118.3273         estimate D2E/DX2                !
 ! A63   A(21,19,53)           118.0038         estimate D2E/DX2                !
 ! A64   A(18,20,22)           117.9653         estimate D2E/DX2                !
 ! A65   A(18,20,54)           118.2706         estimate D2E/DX2                !
 ! A66   A(22,20,54)           116.59           estimate D2E/DX2                !
 ! A67   A(19,21,23)           113.0627         estimate D2E/DX2                !
 ! A68   A(19,21,57)           112.4186         estimate D2E/DX2                !
 ! A69   A(19,21,97)           108.8429         estimate D2E/DX2                !
 ! A70   A(23,21,57)           101.1599         estimate D2E/DX2                !
 ! A71   A(23,21,97)           110.6705         estimate D2E/DX2                !
 ! A72   A(57,21,97)           110.5393         estimate D2E/DX2                !
 ! A73   A(20,22,24)           122.0306         estimate D2E/DX2                !
 ! A74   A(20,22,58)           121.2571         estimate D2E/DX2                !
 ! A75   A(24,22,58)           107.9495         estimate D2E/DX2                !
 ! A76   A(21,23,25)           121.9407         estimate D2E/DX2                !
 ! A77   A(21,23,61)           112.9152         estimate D2E/DX2                !
 ! A78   A(25,23,61)           120.5752         estimate D2E/DX2                !
 ! A79   A(22,24,26)           119.9645         estimate D2E/DX2                !
 ! A80   A(22,24,62)           111.3016         estimate D2E/DX2                !
 ! A81   A(26,24,62)           121.0743         estimate D2E/DX2                !
 ! A82   A(1,25,23)            121.4664         estimate D2E/DX2                !
 ! A83   A(1,25,27)            110.6012         estimate D2E/DX2                !
 ! A84   A(23,25,27)           122.058          estimate D2E/DX2                !
 ! A85   A(3,26,24)            119.6514         estimate D2E/DX2                !
 ! A86   A(3,26,28)            111.3224         estimate D2E/DX2                !
 ! A87   A(24,26,28)           121.3657         estimate D2E/DX2                !
 ! A88   A(25,27,29)           101.0666         estimate D2E/DX2                !
 ! A89   A(25,27,65)           110.1111         estimate D2E/DX2                !
 ! A90   A(25,27,85)           112.9724         estimate D2E/DX2                !
 ! A91   A(29,27,65)           108.9593         estimate D2E/DX2                !
 ! A92   A(29,27,85)           114.3295         estimate D2E/DX2                !
 ! A93   A(65,27,85)           109.131          estimate D2E/DX2                !
 ! A94   A(26,28,30)           100.8658         estimate D2E/DX2                !
 ! A95   A(26,28,66)           109.9053         estimate D2E/DX2                !
 ! A96   A(26,28,88)           113.5966         estimate D2E/DX2                !
 ! A97   A(30,28,66)           108.6544         estimate D2E/DX2                !
 ! A98   A(30,28,88)           114.4714         estimate D2E/DX2                !
 ! A99   A(66,28,88)           109.0349         estimate D2E/DX2                !
 ! A100  A(5,29,27)            111.1411         estimate D2E/DX2                !
 ! A101  A(5,29,31)            119.651          estimate D2E/DX2                !
 ! A102  A(27,29,31)           121.806          estimate D2E/DX2                !
 ! A103  A(7,30,28)            111.3685         estimate D2E/DX2                !
 ! A104  A(7,30,32)            119.1977         estimate D2E/DX2                !
 ! A105  A(28,30,32)           122.0718         estimate D2E/DX2                !
 ! A106  A(29,31,33)           120.301          estimate D2E/DX2                !
 ! A107  A(29,31,69)           121.2876         estimate D2E/DX2                !
 ! A108  A(33,31,69)           111.1939         estimate D2E/DX2                !
 ! A109  A(30,32,34)           120.6268         estimate D2E/DX2                !
 ! A110  A(30,32,70)           120.4464         estimate D2E/DX2                !
 ! A111  A(34,32,70)           112.1576         estimate D2E/DX2                !
 ! A112  A(31,33,35)           122.1085         estimate D2E/DX2                !
 ! A113  A(31,33,73)           107.5098         estimate D2E/DX2                !
 ! A114  A(35,33,73)           121.7831         estimate D2E/DX2                !
 ! A115  A(32,34,36)           121.8637         estimate D2E/DX2                !
 ! A116  A(32,34,74)           107.7649         estimate D2E/DX2                !
 ! A117  A(36,34,74)           120.6264         estimate D2E/DX2                !
 ! A118  A(9,35,33)            116.7345         estimate D2E/DX2                !
 ! A119  A(9,35,37)            119.4326         estimate D2E/DX2                !
 ! A120  A(33,35,37)           118.7078         estimate D2E/DX2                !
 ! A121  A(12,36,34)           116.1327         estimate D2E/DX2                !
 ! A122  A(12,36,38)           119.2793         estimate D2E/DX2                !
 ! A123  A(34,36,38)           119.9839         estimate D2E/DX2                !
 ! A124  A(35,37,39)           119.5998         estimate D2E/DX2                !
 ! A125  A(35,37,77)           118.5368         estimate D2E/DX2                !
 ! A126  A(39,37,77)           117.6573         estimate D2E/DX2                !
 ! A127  A(36,38,42)           120.3556         estimate D2E/DX2                !
 ! A128  A(36,38,78)           119.7021         estimate D2E/DX2                !
 ! A129  A(42,38,78)           118.5988         estimate D2E/DX2                !
 ! A130  A(37,39,43)           119.7696         estimate D2E/DX2                !
 ! A131  A(37,39,79)           121.1333         estimate D2E/DX2                !
 ! A132  A(43,39,79)           116.7014         estimate D2E/DX2                !
 ! A133  A(41,40,44)           121.11           estimate D2E/DX2                !
 ! A134  A(41,40,79)           111.3261         estimate D2E/DX2                !
 ! A135  A(44,40,79)           125.2595         estimate D2E/DX2                !
 ! A136  A(40,41,45)           120.5722         estimate D2E/DX2                !
 ! A137  A(40,41,80)           111.5412         estimate D2E/DX2                !
 ! A138  A(45,41,80)           125.7555         estimate D2E/DX2                !
 ! A139  A(38,42,46)           119.7891         estimate D2E/DX2                !
 ! A140  A(38,42,80)           122.8966         estimate D2E/DX2                !
 ! A141  A(46,42,80)           115.3703         estimate D2E/DX2                !
 ! A142  A(2,43,13)            109.2784         estimate D2E/DX2                !
 ! A143  A(2,43,39)            125.015          estimate D2E/DX2                !
 ! A144  A(13,43,39)           120.9079         estimate D2E/DX2                !
 ! A145  A(2,44,40)            116.0194         estimate D2E/DX2                !
 ! A146  A(2,44,47)            123.7147         estimate D2E/DX2                !
 ! A147  A(40,44,47)           119.1409         estimate D2E/DX2                !
 ! A148  A(4,45,41)            115.912          estimate D2E/DX2                !
 ! A149  A(4,45,48)            123.7954         estimate D2E/DX2                !
 ! A150  A(41,45,48)           119.2593         estimate D2E/DX2                !
 ! A151  A(4,46,14)            109.414          estimate D2E/DX2                !
 ! A152  A(4,46,42)            125.4563         estimate D2E/DX2                !
 ! A153  A(14,46,42)           120.6261         estimate D2E/DX2                !
 ! A154  A(44,47,48)           119.854          estimate D2E/DX2                !
 ! A155  A(44,47,49)           118.8074         estimate D2E/DX2                !
 ! A156  A(48,47,49)           120.8181         estimate D2E/DX2                !
 ! A157  A(45,48,47)           120.0093         estimate D2E/DX2                !
 ! A158  A(45,48,50)           118.9275         estimate D2E/DX2                !
 ! A159  A(47,48,50)           120.6124         estimate D2E/DX2                !
 ! A160  A(10,49,47)           109.5261         estimate D2E/DX2                !
 ! A161  A(10,49,51)           100.9617         estimate D2E/DX2                !
 ! A162  A(10,49,91)           113.6231         estimate D2E/DX2                !
 ! A163  A(47,49,51)           110.2206         estimate D2E/DX2                !
 ! A164  A(47,49,91)           108.7648         estimate D2E/DX2                !
 ! A165  A(51,49,91)           113.53           estimate D2E/DX2                !
 ! A166  A(11,50,48)           109.9341         estimate D2E/DX2                !
 ! A167  A(11,50,52)           101.2766         estimate D2E/DX2                !
 ! A168  A(11,50,92)           113.1563         estimate D2E/DX2                !
 ! A169  A(48,50,52)           109.9471         estimate D2E/DX2                !
 ! A170  A(48,50,92)           108.8051         estimate D2E/DX2                !
 ! A171  A(52,50,92)           113.529          estimate D2E/DX2                !
 ! A172  A(49,51,52)           121.3508         estimate D2E/DX2                !
 ! A173  A(49,51,55)           111.5864         estimate D2E/DX2                !
 ! A174  A(52,51,55)           120.3123         estimate D2E/DX2                !
 ! A175  A(50,52,51)           122.1867         estimate D2E/DX2                !
 ! A176  A(50,52,56)           110.8802         estimate D2E/DX2                !
 ! A177  A(51,52,56)           119.5482         estimate D2E/DX2                !
 ! A178  A(10,53,19)           122.4334         estimate D2E/DX2                !
 ! A179  A(10,53,55)           107.6081         estimate D2E/DX2                !
 ! A180  A(19,53,55)           122.8541         estimate D2E/DX2                !
 ! A181  A(11,54,20)           122.0206         estimate D2E/DX2                !
 ! A182  A(11,54,56)           108.2731         estimate D2E/DX2                !
 ! A183  A(20,54,56)           121.5327         estimate D2E/DX2                !
 ! A184  A(51,55,53)           108.5274         estimate D2E/DX2                !
 ! A185  A(51,55,83)           121.7788         estimate D2E/DX2                !
 ! A186  A(53,55,83)           120.1825         estimate D2E/DX2                !
 ! A187  A(52,56,54)           108.6161         estimate D2E/DX2                !
 ! A188  A(52,56,84)           121.6711         estimate D2E/DX2                !
 ! A189  A(54,56,84)           121.6985         estimate D2E/DX2                !
 ! A190  A(21,57,59)           110.2881         estimate D2E/DX2                !
 ! A191  A(21,57,83)           123.9342         estimate D2E/DX2                !
 ! A192  A(59,57,83)           121.0555         estimate D2E/DX2                !
 ! A193  A(22,58,60)           108.4953         estimate D2E/DX2                !
 ! A194  A(22,58,84)           122.0682         estimate D2E/DX2                !
 ! A195  A(60,58,84)           121.4602         estimate D2E/DX2                !
 ! A196  A(57,59,60)           120.8026         estimate D2E/DX2                !
 ! A197  A(57,59,61)           113.0034         estimate D2E/DX2                !
 ! A198  A(60,59,61)           120.7979         estimate D2E/DX2                !
 ! A199  A(58,60,59)           119.5244         estimate D2E/DX2                !
 ! A200  A(58,60,62)           111.3556         estimate D2E/DX2                !
 ! A201  A(59,60,62)           121.8959         estimate D2E/DX2                !
 ! A202  A(23,61,59)           100.3331         estimate D2E/DX2                !
 ! A203  A(23,61,63)           111.158          estimate D2E/DX2                !
 ! A204  A(23,61,89)           113.8022         estimate D2E/DX2                !
 ! A205  A(59,61,63)           109.4547         estimate D2E/DX2                !
 ! A206  A(59,61,89)           113.5766         estimate D2E/DX2                !
 ! A207  A(63,61,89)           108.3414         estimate D2E/DX2                !
 ! A208  A(24,62,60)           100.8504         estimate D2E/DX2                !
 ! A209  A(24,62,64)           110.0396         estimate D2E/DX2                !
 ! A210  A(24,62,90)           113.6971         estimate D2E/DX2                !
 ! A211  A(60,62,64)           109.51           estimate D2E/DX2                !
 ! A212  A(60,62,90)           113.8211         estimate D2E/DX2                !
 ! A213  A(64,62,90)           108.6961         estimate D2E/DX2                !
 ! A214  A(61,63,64)           120.4412         estimate D2E/DX2                !
 ! A215  A(61,63,65)           119.7625         estimate D2E/DX2                !
 ! A216  A(64,63,65)           119.5623         estimate D2E/DX2                !
 ! A217  A(62,64,63)           119.7488         estimate D2E/DX2                !
 ! A218  A(62,64,66)           120.1006         estimate D2E/DX2                !
 ! A219  A(63,64,66)           119.9729         estimate D2E/DX2                !
 ! A220  A(27,65,63)           119.0524         estimate D2E/DX2                !
 ! A221  A(27,65,67)           120.0261         estimate D2E/DX2                !
 ! A222  A(63,65,67)           120.624          estimate D2E/DX2                !
 ! A223  A(28,66,64)           119.815          estimate D2E/DX2                !
 ! A224  A(28,66,68)           119.6595         estimate D2E/DX2                !
 ! A225  A(64,66,68)           120.3356         estimate D2E/DX2                !
 ! A226  A(65,67,68)           119.8708         estimate D2E/DX2                !
 ! A227  A(65,67,69)           119.4911         estimate D2E/DX2                !
 ! A228  A(68,67,69)           120.4144         estimate D2E/DX2                !
 ! A229  A(66,68,67)           119.6239         estimate D2E/DX2                !
 ! A230  A(66,68,70)           120.0446         estimate D2E/DX2                !
 ! A231  A(67,68,70)           120.1347         estimate D2E/DX2                !
 ! A232  A(31,69,67)           108.4339         estimate D2E/DX2                !
 ! A233  A(31,69,71)           101.1276         estimate D2E/DX2                !
 ! A234  A(31,69,86)           114.3039         estimate D2E/DX2                !
 ! A235  A(67,69,71)           110.2242         estimate D2E/DX2                !
 ! A236  A(67,69,86)           108.5846         estimate D2E/DX2                !
 ! A237  A(71,69,86)           113.9045         estimate D2E/DX2                !
 ! A238  A(32,70,68)           108.6426         estimate D2E/DX2                !
 ! A239  A(32,70,72)           100.9305         estimate D2E/DX2                !
 ! A240  A(32,70,87)           114.4197         estimate D2E/DX2                !
 ! A241  A(68,70,72)           110.3868         estimate D2E/DX2                !
 ! A242  A(68,70,87)           108.5188         estimate D2E/DX2                !
 ! A243  A(72,70,87)           113.7027         estimate D2E/DX2                !
 ! A244  A(69,71,72)           122.131          estimate D2E/DX2                !
 ! A245  A(69,71,73)           110.2759         estimate D2E/DX2                !
 ! A246  A(72,71,73)           118.9611         estimate D2E/DX2                !
 ! A247  A(70,72,71)           121.6811         estimate D2E/DX2                !
 ! A248  A(70,72,74)           110.4979         estimate D2E/DX2                !
 ! A249  A(71,72,74)           119.8796         estimate D2E/DX2                !
 ! A250  A(33,73,71)           109.5522         estimate D2E/DX2                !
 ! A251  A(33,73,75)           119.221          estimate D2E/DX2                !
 ! A252  A(71,73,75)           120.9098         estimate D2E/DX2                !
 ! A253  A(34,74,72)           108.3186         estimate D2E/DX2                !
 ! A254  A(34,74,76)           120.2526         estimate D2E/DX2                !
 ! A255  A(72,74,76)           122.0226         estimate D2E/DX2                !
 ! A256  A(73,75,76)           119.8573         estimate D2E/DX2                !
 ! A257  A(73,75,77)           119.8987         estimate D2E/DX2                !
 ! A258  A(76,75,77)           110.0484         estimate D2E/DX2                !
 ! A259  A(74,76,75)           118.1536         estimate D2E/DX2                !
 ! A260  A(74,76,78)           122.3686         estimate D2E/DX2                !
 ! A261  A(75,76,78)           110.4848         estimate D2E/DX2                !
 ! A262  A(37,77,75)           121.6774         estimate D2E/DX2                !
 ! A263  A(37,77,81)           121.416          estimate D2E/DX2                !
 ! A264  A(75,77,81)           107.0391         estimate D2E/DX2                !
 ! A265  A(38,78,76)           112.8102         estimate D2E/DX2                !
 ! A266  A(38,78,81)           110.7572         estimate D2E/DX2                !
 ! A267  A(38,78,98)           108.4572         estimate D2E/DX2                !
 ! A268  A(76,78,81)           101.2652         estimate D2E/DX2                !
 ! A269  A(76,78,98)           112.0306         estimate D2E/DX2                !
 ! A270  A(81,78,98)           111.4381         estimate D2E/DX2                !
 ! A271  A(39,79,40)           109.0557         estimate D2E/DX2                !
 ! A272  A(39,79,82)           114.0087         estimate D2E/DX2                !
 ! A273  A(39,79,94)           110.1306         estimate D2E/DX2                !
 ! A274  A(40,79,82)           100.3544         estimate D2E/DX2                !
 ! A275  A(40,79,94)           111.3047         estimate D2E/DX2                !
 ! A276  A(82,79,94)           111.6223         estimate D2E/DX2                !
 ! A277  A(41,80,42)           108.6711         estimate D2E/DX2                !
 ! A278  A(41,80,82)            99.9984         estimate D2E/DX2                !
 ! A279  A(41,80,96)           111.7481         estimate D2E/DX2                !
 ! A280  A(42,80,82)           112.1908         estimate D2E/DX2                !
 ! A281  A(42,80,96)           110.3868         estimate D2E/DX2                !
 ! A282  A(82,80,96)           113.3813         estimate D2E/DX2                !
 ! A283  A(77,81,78)           110.6358         estimate D2E/DX2                !
 ! A284  A(77,81,82)           121.662          estimate D2E/DX2                !
 ! A285  A(78,81,82)           122.9914         estimate D2E/DX2                !
 ! A286  A(79,82,80)           112.2298         estimate D2E/DX2                !
 ! A287  A(79,82,81)           120.9676         estimate D2E/DX2                !
 ! A288  A(80,82,81)           121.7128         estimate D2E/DX2                !
 ! A289  A(55,83,57)           117.2367         estimate D2E/DX2                !
 ! A290  A(55,83,84)           117.7966         estimate D2E/DX2                !
 ! A291  A(57,83,84)           118.6241         estimate D2E/DX2                !
 ! A292  A(56,84,58)           116.2716         estimate D2E/DX2                !
 ! A293  A(56,84,83)           118.8833         estimate D2E/DX2                !
 ! A294  A(58,84,83)           118.419          estimate D2E/DX2                !
 ! D1    D(17,1,5,9)            -1.018          estimate D2E/DX2                !
 ! D2    D(17,1,5,29)         -149.4966         estimate D2E/DX2                !
 ! D3    D(25,1,5,9)           144.6797         estimate D2E/DX2                !
 ! D4    D(25,1,5,29)           -3.7989         estimate D2E/DX2                !
 ! D5    D(5,1,17,15)           -7.0859         estimate D2E/DX2                !
 ! D6    D(5,1,17,19)          145.2222         estimate D2E/DX2                !
 ! D7    D(25,1,17,15)        -148.8583         estimate D2E/DX2                !
 ! D8    D(25,1,17,19)           3.4498         estimate D2E/DX2                !
 ! D9    D(5,1,25,23)         -149.6851         estimate D2E/DX2                !
 ! D10   D(5,1,25,27)            3.8037         estimate D2E/DX2                !
 ! D11   D(17,1,25,23)          -3.273          estimate D2E/DX2                !
 ! D12   D(17,1,25,27)         150.2157         estimate D2E/DX2                !
 ! D13   D(43,2,6,10)         -141.2707         estimate D2E/DX2                !
 ! D14   D(43,2,6,15)            8.2928         estimate D2E/DX2                !
 ! D15   D(44,2,6,10)          -25.9636         estimate D2E/DX2                !
 ! D16   D(44,2,6,15)          123.5998         estimate D2E/DX2                !
 ! D17   D(93,2,6,10)           97.6272         estimate D2E/DX2                !
 ! D18   D(93,2,6,15)         -112.8094         estimate D2E/DX2                !
 ! D19   D(6,2,43,13)           -9.5239         estimate D2E/DX2                !
 ! D20   D(6,2,43,39)          145.9105         estimate D2E/DX2                !
 ! D21   D(44,2,43,13)        -124.9427         estimate D2E/DX2                !
 ! D22   D(44,2,43,39)          30.4916         estimate D2E/DX2                !
 ! D23   D(93,2,43,13)         112.3498         estimate D2E/DX2                !
 ! D24   D(93,2,43,39)         -92.2159         estimate D2E/DX2                !
 ! D25   D(6,2,44,40)         -144.7608         estimate D2E/DX2                !
 ! D26   D(6,2,44,47)           22.9765         estimate D2E/DX2                !
 ! D27   D(43,2,44,40)         -34.5216         estimate D2E/DX2                !
 ! D28   D(43,2,44,47)         133.2157         estimate D2E/DX2                !
 ! D29   D(93,2,44,40)          89.6062         estimate D2E/DX2                !
 ! D30   D(93,2,44,47)        -102.6565         estimate D2E/DX2                !
 ! D31   D(18,3,7,12)            3.293          estimate D2E/DX2                !
 ! D32   D(18,3,7,30)          151.1816         estimate D2E/DX2                !
 ! D33   D(26,3,7,12)         -145.4514         estimate D2E/DX2                !
 ! D34   D(26,3,7,30)            2.4372         estimate D2E/DX2                !
 ! D35   D(7,3,18,16)            5.4302         estimate D2E/DX2                !
 ! D36   D(7,3,18,20)         -144.6337         estimate D2E/DX2                !
 ! D37   D(26,3,18,16)         149.8775         estimate D2E/DX2                !
 ! D38   D(26,3,18,20)          -0.1863         estimate D2E/DX2                !
 ! D39   D(7,3,26,24)          147.6472         estimate D2E/DX2                !
 ! D40   D(7,3,26,28)           -2.2514         estimate D2E/DX2                !
 ! D41   D(18,3,26,24)          -1.051          estimate D2E/DX2                !
 ! D42   D(18,3,26,28)        -150.9497         estimate D2E/DX2                !
 ! D43   D(45,4,8,11)           25.5097         estimate D2E/DX2                !
 ! D44   D(45,4,8,16)         -123.7846         estimate D2E/DX2                !
 ! D45   D(46,4,8,11)          140.8384         estimate D2E/DX2                !
 ! D46   D(46,4,8,16)           -8.4559         estimate D2E/DX2                !
 ! D47   D(95,4,8,11)          -98.2453         estimate D2E/DX2                !
 ! D48   D(95,4,8,16)          112.4604         estimate D2E/DX2                !
 ! D49   D(8,4,45,41)          145.6844         estimate D2E/DX2                !
 ! D50   D(8,4,45,48)          -22.5691         estimate D2E/DX2                !
 ! D51   D(46,4,45,41)          34.9919         estimate D2E/DX2                !
 ! D52   D(46,4,45,48)        -133.2616         estimate D2E/DX2                !
 ! D53   D(95,4,45,41)         -88.9599         estimate D2E/DX2                !
 ! D54   D(95,4,45,48)         102.7866         estimate D2E/DX2                !
 ! D55   D(8,4,46,14)            9.1679         estimate D2E/DX2                !
 ! D56   D(8,4,46,42)         -146.9099         estimate D2E/DX2                !
 ! D57   D(45,4,46,14)         125.2957         estimate D2E/DX2                !
 ! D58   D(45,4,46,42)         -30.7821         estimate D2E/DX2                !
 ! D59   D(95,4,46,14)        -112.1049         estimate D2E/DX2                !
 ! D60   D(95,4,46,42)          91.8173         estimate D2E/DX2                !
 ! D61   D(1,5,9,13)             6.9511         estimate D2E/DX2                !
 ! D62   D(1,5,9,35)          -146.1043         estimate D2E/DX2                !
 ! D63   D(29,5,9,13)          151.8168         estimate D2E/DX2                !
 ! D64   D(29,5,9,35)           -1.2386         estimate D2E/DX2                !
 ! D65   D(1,5,29,27)            2.4598         estimate D2E/DX2                !
 ! D66   D(1,5,29,31)          152.959          estimate D2E/DX2                !
 ! D67   D(9,5,29,27)         -146.5717         estimate D2E/DX2                !
 ! D68   D(9,5,29,31)            3.9275         estimate D2E/DX2                !
 ! D69   D(2,6,10,49)           -0.7635         estimate D2E/DX2                !
 ! D70   D(2,6,10,53)          148.0789         estimate D2E/DX2                !
 ! D71   D(15,6,10,49)        -147.8446         estimate D2E/DX2                !
 ! D72   D(15,6,10,53)           0.9978         estimate D2E/DX2                !
 ! D73   D(2,6,15,13)           -4.2131         estimate D2E/DX2                !
 ! D74   D(2,6,15,17)         -153.2113         estimate D2E/DX2                !
 ! D75   D(10,6,15,13)         146.4586         estimate D2E/DX2                !
 ! D76   D(10,6,15,17)          -2.5395         estimate D2E/DX2                !
 ! D77   D(3,7,12,14)           -7.8582         estimate D2E/DX2                !
 ! D78   D(3,7,12,36)          145.9801         estimate D2E/DX2                !
 ! D79   D(30,7,12,14)        -151.7117         estimate D2E/DX2                !
 ! D80   D(30,7,12,36)           2.1266         estimate D2E/DX2                !
 ! D81   D(3,7,30,28)           -1.738          estimate D2E/DX2                !
 ! D82   D(3,7,30,32)         -152.4084         estimate D2E/DX2                !
 ! D83   D(12,7,30,28)         146.2979         estimate D2E/DX2                !
 ! D84   D(12,7,30,32)          -4.3725         estimate D2E/DX2                !
 ! D85   D(4,8,11,50)            0.6437         estimate D2E/DX2                !
 ! D86   D(4,8,11,54)         -146.9691         estimate D2E/DX2                !
 ! D87   D(16,8,11,50)         147.1672         estimate D2E/DX2                !
 ! D88   D(16,8,11,54)          -0.4456         estimate D2E/DX2                !
 ! D89   D(4,8,16,14)            4.8811         estimate D2E/DX2                !
 ! D90   D(4,8,16,18)          152.248          estimate D2E/DX2                !
 ! D91   D(11,8,16,14)        -145.1613         estimate D2E/DX2                !
 ! D92   D(11,8,16,18)           2.2055         estimate D2E/DX2                !
 ! D93   D(5,9,13,15)           -4.7096         estimate D2E/DX2                !
 ! D94   D(5,9,13,43)         -151.416          estimate D2E/DX2                !
 ! D95   D(35,9,13,15)         148.6757         estimate D2E/DX2                !
 ! D96   D(35,9,13,43)           1.9692         estimate D2E/DX2                !
 ! D97   D(5,9,35,33)           -5.0583         estimate D2E/DX2                !
 ! D98   D(5,9,35,37)          149.3295         estimate D2E/DX2                !
 ! D99   D(13,9,35,33)        -157.2872         estimate D2E/DX2                !
 ! D100  D(13,9,35,37)          -2.8995         estimate D2E/DX2                !
 ! D101  D(6,10,49,47)          30.2639         estimate D2E/DX2                !
 ! D102  D(6,10,49,51)         146.5102         estimate D2E/DX2                !
 ! D103  D(6,10,49,91)         -91.5819         estimate D2E/DX2                !
 ! D104  D(53,10,49,47)       -120.9186         estimate D2E/DX2                !
 ! D105  D(53,10,49,51)         -4.6724         estimate D2E/DX2                !
 ! D106  D(53,10,49,91)        117.2355         estimate D2E/DX2                !
 ! D107  D(6,10,53,19)           1.4937         estimate D2E/DX2                !
 ! D108  D(6,10,53,55)        -149.6734         estimate D2E/DX2                !
 ! D109  D(49,10,53,19)        153.6984         estimate D2E/DX2                !
 ! D110  D(49,10,53,55)          2.5313         estimate D2E/DX2                !
 ! D111  D(8,11,50,48)         -29.6263         estimate D2E/DX2                !
 ! D112  D(8,11,50,52)        -145.8805         estimate D2E/DX2                !
 ! D113  D(8,11,50,92)          92.2476         estimate D2E/DX2                !
 ! D114  D(54,11,50,48)        120.4722         estimate D2E/DX2                !
 ! D115  D(54,11,50,52)          4.218          estimate D2E/DX2                !
 ! D116  D(54,11,50,92)       -117.6539         estimate D2E/DX2                !
 ! D117  D(8,11,54,20)          -1.0844         estimate D2E/DX2                !
 ! D118  D(8,11,54,56)         147.7953         estimate D2E/DX2                !
 ! D119  D(50,11,54,20)       -152.1973         estimate D2E/DX2                !
 ! D120  D(50,11,54,56)         -3.3176         estimate D2E/DX2                !
 ! D121  D(7,12,14,16)           3.9659         estimate D2E/DX2                !
 ! D122  D(7,12,14,46)         152.0613         estimate D2E/DX2                !
 ! D123  D(36,12,14,16)       -150.2885         estimate D2E/DX2                !
 ! D124  D(36,12,14,46)         -2.1931         estimate D2E/DX2                !
 ! D125  D(7,12,36,34)           5.1779         estimate D2E/DX2                !
 ! D126  D(7,12,36,38)        -150.7836         estimate D2E/DX2                !
 ! D127  D(14,12,36,34)        158.3486         estimate D2E/DX2                !
 ! D128  D(14,12,36,38)          2.3871         estimate D2E/DX2                !
 ! D129  D(9,13,15,6)         -152.4655         estimate D2E/DX2                !
 ! D130  D(9,13,15,17)          -3.5124         estimate D2E/DX2                !
 ! D131  D(43,13,15,6)          -2.2111         estimate D2E/DX2                !
 ! D132  D(43,13,15,17)        146.7419         estimate D2E/DX2                !
 ! D133  D(9,13,43,2)          158.1445         estimate D2E/DX2                !
 ! D134  D(9,13,43,39)           1.5254         estimate D2E/DX2                !
 ! D135  D(15,13,43,2)           7.6765         estimate D2E/DX2                !
 ! D136  D(15,13,43,39)       -148.9426         estimate D2E/DX2                !
 ! D137  D(12,14,16,8)         152.6158         estimate D2E/DX2                !
 ! D138  D(12,14,16,18)          4.7658         estimate D2E/DX2                !
 ! D139  D(46,14,16,8)           1.2897         estimate D2E/DX2                !
 ! D140  D(46,14,16,18)       -146.5603         estimate D2E/DX2                !
 ! D141  D(12,14,46,4)        -158.5959         estimate D2E/DX2                !
 ! D142  D(12,14,46,42)         -1.1677         estimate D2E/DX2                !
 ! D143  D(16,14,46,4)          -6.855          estimate D2E/DX2                !
 ! D144  D(16,14,46,42)        150.5731         estimate D2E/DX2                !
 ! D145  D(6,15,17,1)          154.2135         estimate D2E/DX2                !
 ! D146  D(6,15,17,19)           1.5933         estimate D2E/DX2                !
 ! D147  D(13,15,17,1)           9.2999         estimate D2E/DX2                !
 ! D148  D(13,15,17,19)       -143.3203         estimate D2E/DX2                !
 ! D149  D(8,16,18,3)         -152.5297         estimate D2E/DX2                !
 ! D150  D(8,16,18,20)          -2.3579         estimate D2E/DX2                !
 ! D151  D(14,16,18,3)          -9.2654         estimate D2E/DX2                !
 ! D152  D(14,16,18,20)        140.9063         estimate D2E/DX2                !
 ! D153  D(1,17,19,21)           8.7536         estimate D2E/DX2                !
 ! D154  D(1,17,19,53)        -150.6578         estimate D2E/DX2                !
 ! D155  D(15,17,19,21)        160.258          estimate D2E/DX2                !
 ! D156  D(15,17,19,53)          0.8465         estimate D2E/DX2                !
 ! D157  D(3,18,20,22)           0.922          estimate D2E/DX2                !
 ! D158  D(3,18,20,54)         150.3444         estimate D2E/DX2                !
 ! D159  D(16,18,20,22)       -148.6194         estimate D2E/DX2                !
 ! D160  D(16,18,20,54)          0.803          estimate D2E/DX2                !
 ! D161  D(17,19,21,23)        -19.4906         estimate D2E/DX2                !
 ! D162  D(17,19,21,57)       -133.2697         estimate D2E/DX2                !
 ! D163  D(17,19,21,97)        103.9231         estimate D2E/DX2                !
 ! D164  D(53,19,21,23)        139.9857         estimate D2E/DX2                !
 ! D165  D(53,19,21,57)         26.2067         estimate D2E/DX2                !
 ! D166  D(53,19,21,97)        -96.6005         estimate D2E/DX2                !
 ! D167  D(17,19,53,10)         -2.4055         estimate D2E/DX2                !
 ! D168  D(17,19,53,55)        144.4206         estimate D2E/DX2                !
 ! D169  D(21,19,53,10)       -162.3297         estimate D2E/DX2                !
 ! D170  D(21,19,53,55)        -15.5036         estimate D2E/DX2                !
 ! D171  D(18,20,22,24)         -0.4836         estimate D2E/DX2                !
 ! D172  D(18,20,22,58)        143.1247         estimate D2E/DX2                !
 ! D173  D(54,20,22,24)       -150.4162         estimate D2E/DX2                !
 ! D174  D(54,20,22,58)         -6.8079         estimate D2E/DX2                !
 ! D175  D(18,20,54,11)          0.8821         estimate D2E/DX2                !
 ! D176  D(18,20,54,56)       -143.9627         estimate D2E/DX2                !
 ! D177  D(22,20,54,11)        150.72           estimate D2E/DX2                !
 ! D178  D(22,20,54,56)          5.8753         estimate D2E/DX2                !
 ! D179  D(19,21,23,25)         20.0555         estimate D2E/DX2                !
 ! D180  D(19,21,23,61)       -136.0548         estimate D2E/DX2                !
 ! D181  D(57,21,23,25)        140.4854         estimate D2E/DX2                !
 ! D182  D(57,21,23,61)        -15.6249         estimate D2E/DX2                !
 ! D183  D(97,21,23,25)       -102.3437         estimate D2E/DX2                !
 ! D184  D(97,21,23,61)        101.546          estimate D2E/DX2                !
 ! D185  D(19,21,57,59)        133.9072         estimate D2E/DX2                !
 ! D186  D(19,21,57,83)        -21.8238         estimate D2E/DX2                !
 ! D187  D(23,21,57,59)         13.0219         estimate D2E/DX2                !
 ! D188  D(23,21,57,83)       -142.7091         estimate D2E/DX2                !
 ! D189  D(97,21,57,59)       -104.2449         estimate D2E/DX2                !
 ! D190  D(97,21,57,83)        100.024          estimate D2E/DX2                !
 ! D191  D(20,22,24,26)         -0.7499         estimate D2E/DX2                !
 ! D192  D(20,22,24,62)        149.0494         estimate D2E/DX2                !
 ! D193  D(58,22,24,26)       -148.5326         estimate D2E/DX2                !
 ! D194  D(58,22,24,62)          1.2667         estimate D2E/DX2                !
 ! D195  D(20,22,58,60)       -147.9216         estimate D2E/DX2                !
 ! D196  D(20,22,58,84)          1.2826         estimate D2E/DX2                !
 ! D197  D(24,22,58,60)          0.1597         estimate D2E/DX2                !
 ! D198  D(24,22,58,84)        149.3639         estimate D2E/DX2                !
 ! D199  D(21,23,25,1)          -9.4045         estimate D2E/DX2                !
 ! D200  D(21,23,25,27)       -159.866          estimate D2E/DX2                !
 ! D201  D(61,23,25,1)         144.9212         estimate D2E/DX2                !
 ! D202  D(61,23,25,27)         -5.5404         estimate D2E/DX2                !
 ! D203  D(21,23,61,59)         12.0352         estimate D2E/DX2                !
 ! D204  D(21,23,61,63)        127.7308         estimate D2E/DX2                !
 ! D205  D(21,23,61,89)       -109.6188         estimate D2E/DX2                !
 ! D206  D(25,23,61,59)       -144.4391         estimate D2E/DX2                !
 ! D207  D(25,23,61,63)        -28.7435         estimate D2E/DX2                !
 ! D208  D(25,23,61,89)         93.9069         estimate D2E/DX2                !
 ! D209  D(22,24,26,3)           1.5009         estimate D2E/DX2                !
 ! D210  D(22,24,26,28)        148.3284         estimate D2E/DX2                !
 ! D211  D(62,24,26,3)        -145.3249         estimate D2E/DX2                !
 ! D212  D(62,24,26,28)          1.5026         estimate D2E/DX2                !
 ! D213  D(22,24,62,60)         -2.034          estimate D2E/DX2                !
 ! D214  D(22,24,62,64)       -117.6208         estimate D2E/DX2                !
 ! D215  D(22,24,62,90)        120.1898         estimate D2E/DX2                !
 ! D216  D(26,24,62,60)        147.3816         estimate D2E/DX2                !
 ! D217  D(26,24,62,64)         31.7947         estimate D2E/DX2                !
 ! D218  D(26,24,62,90)        -90.3947         estimate D2E/DX2                !
 ! D219  D(1,25,27,29)          -2.19           estimate D2E/DX2                !
 ! D220  D(1,25,27,65)        -117.288          estimate D2E/DX2                !
 ! D221  D(1,25,27,85)         120.416          estimate D2E/DX2                !
 ! D222  D(23,25,27,29)        151.1153         estimate D2E/DX2                !
 ! D223  D(23,25,27,65)         36.0174         estimate D2E/DX2                !
 ! D224  D(23,25,27,85)        -86.2787         estimate D2E/DX2                !
 ! D225  D(3,26,28,30)           1.1628         estimate D2E/DX2                !
 ! D226  D(3,26,28,66)         115.7387         estimate D2E/DX2                !
 ! D227  D(3,26,28,88)        -121.8028         estimate D2E/DX2                !
 ! D228  D(24,26,28,30)       -148.1433         estimate D2E/DX2                !
 ! D229  D(24,26,28,66)        -33.5673         estimate D2E/DX2                !
 ! D230  D(24,26,28,88)         88.8912         estimate D2E/DX2                !
 ! D231  D(25,27,29,5)          -0.14           estimate D2E/DX2                !
 ! D232  D(25,27,29,31)       -149.9034         estimate D2E/DX2                !
 ! D233  D(65,27,29,5)         115.8138         estimate D2E/DX2                !
 ! D234  D(65,27,29,31)        -33.9496         estimate D2E/DX2                !
 ! D235  D(85,27,29,5)        -121.7997         estimate D2E/DX2                !
 ! D236  D(85,27,29,31)         88.4368         estimate D2E/DX2                !
 ! D237  D(25,27,65,63)        -31.262          estimate D2E/DX2                !
 ! D238  D(25,27,65,67)        142.5134         estimate D2E/DX2                !
 ! D239  D(29,27,65,63)       -141.2565         estimate D2E/DX2                !
 ! D240  D(29,27,65,67)         32.5189         estimate D2E/DX2                !
 ! D241  D(85,27,65,63)         93.2755         estimate D2E/DX2                !
 ! D242  D(85,27,65,67)        -92.9491         estimate D2E/DX2                !
 ! D243  D(26,28,30,7)           0.3813         estimate D2E/DX2                !
 ! D244  D(26,28,30,32)        150.076          estimate D2E/DX2                !
 ! D245  D(66,28,30,7)        -115.1312         estimate D2E/DX2                !
 ! D246  D(66,28,30,32)         34.5636         estimate D2E/DX2                !
 ! D247  D(88,28,30,7)         122.7383         estimate D2E/DX2                !
 ! D248  D(88,28,30,32)        -87.5669         estimate D2E/DX2                !
 ! D249  D(26,28,66,64)         31.7937         estimate D2E/DX2                !
 ! D250  D(26,28,66,68)       -143.2163         estimate D2E/DX2                !
 ! D251  D(30,28,66,64)        141.2962         estimate D2E/DX2                !
 ! D252  D(30,28,66,68)        -33.7138         estimate D2E/DX2                !
 ! D253  D(88,28,66,64)        -93.3257         estimate D2E/DX2                !
 ! D254  D(88,28,66,68)         91.6643         estimate D2E/DX2                !
 ! D255  D(5,29,31,33)          -0.0739         estimate D2E/DX2                !
 ! D256  D(5,29,31,69)        -147.7587         estimate D2E/DX2                !
 ! D257  D(27,29,31,33)        147.212          estimate D2E/DX2                !
 ! D258  D(27,29,31,69)         -0.4728         estimate D2E/DX2                !
 ! D259  D(7,30,32,34)          -1.0153         estimate D2E/DX2                !
 ! D260  D(7,30,32,70)         147.8982         estimate D2E/DX2                !
 ! D261  D(28,30,32,34)       -148.4463         estimate D2E/DX2                !
 ! D262  D(28,30,32,70)          0.4672         estimate D2E/DX2                !
 ! D263  D(29,31,33,35)         -6.6774         estimate D2E/DX2                !
 ! D264  D(29,31,33,73)       -154.8889         estimate D2E/DX2                !
 ! D265  D(69,31,33,35)        143.9837         estimate D2E/DX2                !
 ! D266  D(69,31,33,73)         -4.2278         estimate D2E/DX2                !
 ! D267  D(29,31,69,67)         35.3023         estimate D2E/DX2                !
 ! D268  D(29,31,69,71)        151.2107         estimate D2E/DX2                !
 ! D269  D(29,31,69,86)        -85.9719         estimate D2E/DX2                !
 ! D270  D(33,31,69,67)       -115.026          estimate D2E/DX2                !
 ! D271  D(33,31,69,71)          0.8824         estimate D2E/DX2                !
 ! D272  D(33,31,69,86)        123.6998         estimate D2E/DX2                !
 ! D273  D(30,32,34,36)          8.8346         estimate D2E/DX2                !
 ! D274  D(30,32,34,74)        154.8314         estimate D2E/DX2                !
 ! D275  D(70,32,34,36)       -142.4391         estimate D2E/DX2                !
 ! D276  D(70,32,34,74)          3.5576         estimate D2E/DX2                !
 ! D277  D(30,32,70,68)        -35.3668         estimate D2E/DX2                !
[...]
 Alpha virt. eigenvalues --    1.49028   1.49721   1.50574   1.50991   1.52049
 Alpha virt. eigenvalues --    1.52539   1.52798   1.53309   1.54055   1.54461
 Alpha virt. eigenvalues --    1.54971   1.55345   1.56310   1.56834   1.57810
 Alpha virt. eigenvalues --    1.57832   1.58253   1.58991   1.59235   1.59620
 Alpha virt. eigenvalues --    1.60203   1.60819   1.61182   1.61425   1.61878
 Alpha virt. eigenvalues --    1.62072   1.62452   1.62740   1.62810   1.63133
 Alpha virt. eigenvalues --    1.63239   1.63523   1.64178   1.64618   1.64788
 Alpha virt. eigenvalues --    1.65053   1.65122   1.65378   1.65575   1.65686
 Alpha virt. eigenvalues --    1.65842   1.66071   1.66330   1.66511   1.66709
 Alpha virt. eigenvalues --    1.67199   1.67294   1.67648   1.67884   1.68104
 Alpha virt. eigenvalues --    1.68210   1.68306   1.68449   1.68830   1.69008
 Alpha virt. eigenvalues --    1.69081   1.69612   1.69776   1.70055   1.70227
 Alpha virt. eigenvalues --    1.70642   1.70796   1.70971   1.71397   1.71530
 Alpha virt. eigenvalues --    1.71801   1.71854   1.72134   1.72248   1.72475
 Alpha virt. eigenvalues --    1.73020   1.73335   1.73707   1.74003   1.74179
 Alpha virt. eigenvalues --    1.74517   1.74669   1.74920   1.75052   1.75433
 Alpha virt. eigenvalues --    1.75576   1.75795   1.76175   1.76279   1.76488
 Alpha virt. eigenvalues --    1.76680   1.77105   1.77320   1.77408   1.77495
 Alpha virt. eigenvalues --    1.77758   1.77834   1.78107   1.78305   1.78476
 Alpha virt. eigenvalues --    1.78667   1.78862   1.79166   1.79372   1.79572
 Alpha virt. eigenvalues --    1.79613   1.79779   1.80192   1.80373   1.80635
 Alpha virt. eigenvalues --    1.81017   1.81253   1.81456   1.81945   1.82222
 Alpha virt. eigenvalues --    1.82494   1.82535   1.83011   1.83196   1.83454
 Alpha virt. eigenvalues --    1.83731   1.83966   1.84411   1.84720   1.85309
 Alpha virt. eigenvalues --    1.85382   1.85612   1.85820   1.86312   1.86619
 Alpha virt. eigenvalues --    1.86861   1.87090   1.87338   1.87669   1.87845
 Alpha virt. eigenvalues --    1.88506   1.88774   1.88863   1.89142   1.89308
 Alpha virt. eigenvalues --    1.90067   1.90407   1.90758   1.90838   1.91266
 Alpha virt. eigenvalues --    1.91349   1.92224   1.92476   1.92917   1.93107
 Alpha virt. eigenvalues --    1.93489   1.93723   1.94300   1.94490   1.95200
 Alpha virt. eigenvalues --    1.95413   1.95621   1.96198   1.96307   1.96683
 Alpha virt. eigenvalues --    1.96932   1.97373   1.97409   1.97792   1.98362
 Alpha virt. eigenvalues --    1.98794   1.99167   1.99461   1.99675   2.00157
 Alpha virt. eigenvalues --    2.00432   2.00854   2.00979   2.01301   2.01387
 Alpha virt. eigenvalues --    2.01783   2.02199   2.02340   2.02750   2.03019
 Alpha virt. eigenvalues --    2.03604   2.04086   2.04288   2.04570   2.05312
 Alpha virt. eigenvalues --    2.05624   2.06121   2.06398   2.06588   2.07029
 Alpha virt. eigenvalues --    2.07197   2.07711   2.07831   2.08341   2.08515
 Alpha virt. eigenvalues --    2.09217   2.09451   2.09878   2.10113   2.10539
 Alpha virt. eigenvalues --    2.10930   2.11327   2.11585   2.11882   2.12388
 Alpha virt. eigenvalues --    2.12507   2.13009   2.13394   2.13906   2.14604
 Alpha virt. eigenvalues --    2.14708   2.14872   2.15309   2.15542   2.16351
 Alpha virt. eigenvalues --    2.16504   2.16858   2.17525   2.17549   2.18109
 Alpha virt. eigenvalues --    2.18541   2.18646   2.19067   2.19235   2.19733
 Alpha virt. eigenvalues --    2.20749   2.21122   2.21657   2.21786   2.22060
 Alpha virt. eigenvalues --    2.22527   2.22864   2.23551   2.23844   2.24150
 Alpha virt. eigenvalues --    2.24305   2.24775   2.25274   2.25574   2.26026
 Alpha virt. eigenvalues --    2.26443   2.27044   2.27221   2.27598   2.27967
 Alpha virt. eigenvalues --    2.28500   2.28787   2.28986   2.29388   2.29990
 Alpha virt. eigenvalues --    2.30326   2.30787   2.31083   2.31908   2.32344
 Alpha virt. eigenvalues --    2.32847   2.33856   2.34282   2.34936   2.35054
 Alpha virt. eigenvalues --    2.35276   2.35666   2.35921   2.36772   2.37482
 Alpha virt. eigenvalues --    2.38105   2.38416   2.39030   2.39394   2.39950
 Alpha virt. eigenvalues --    2.40265   2.40384   2.40785   2.41273   2.42062
 Alpha virt. eigenvalues --    2.42492   2.42949   2.43585   2.43691   2.43964
 Alpha virt. eigenvalues --    2.44555   2.45218   2.45491   2.46185   2.47027
 Alpha virt. eigenvalues --    2.47123   2.47650   2.48363   2.48890   2.49370
 Alpha virt. eigenvalues --    2.49947   2.50212   2.50476   2.51149   2.51531
 Alpha virt. eigenvalues --    2.52385   2.52462   2.52869   2.53191   2.53696
 Alpha virt. eigenvalues --    2.54277   2.54720   2.55121   2.55196   2.55382
 Alpha virt. eigenvalues --    2.55652   2.56059   2.56605   2.56683   2.56967
 Alpha virt. eigenvalues --    2.57248   2.57720   2.58206   2.58392   2.58680
 Alpha virt. eigenvalues --    2.58927   2.59149   2.59510   2.59933   2.60555
 Alpha virt. eigenvalues --    2.61305   2.61466   2.61836   2.62273   2.62627
 Alpha virt. eigenvalues --    2.62882   2.63288   2.63700   2.64044   2.64195
 Alpha virt. eigenvalues --    2.64571   2.65005   2.65215   2.65371   2.65704
 Alpha virt. eigenvalues --    2.66330   2.66941   2.67169   2.67326   2.67666
 Alpha virt. eigenvalues --    2.67999   2.68412   2.68627   2.69097   2.69769
 Alpha virt. eigenvalues --    2.70013   2.70326   2.70603   2.70780   2.70939
 Alpha virt. eigenvalues --    2.71196   2.71943   2.72241   2.72782   2.73026
 Alpha virt. eigenvalues --    2.73427   2.73941   2.74169   2.74526   2.74956
 Alpha virt. eigenvalues --    2.75148   2.75390   2.75560   2.76288   2.76438
 Alpha virt. eigenvalues --    2.76891   2.77144   2.77915   2.78128   2.78270
 Alpha virt. eigenvalues --    2.78745   2.79365   2.79613   2.79885   2.80401
 Alpha virt. eigenvalues --    2.81219   2.81357   2.82202   2.82407   2.83357
 Alpha virt. eigenvalues --    2.83931   2.84783   2.85285   2.85446   2.86172
 Alpha virt. eigenvalues --    2.87047   2.87136   2.88112   2.88507   2.88840
 Alpha virt. eigenvalues --    2.88881   2.89281   2.90178   2.90402   2.90817
 Alpha virt. eigenvalues --    2.91053   2.91567   2.91948   2.92761   2.93271
 Alpha virt. eigenvalues --    2.93754   2.94354   2.94520   2.94624   2.96612
 Alpha virt. eigenvalues --    2.97303   2.97947   2.98672   3.00234   3.01173
 Alpha virt. eigenvalues --    3.02161   3.02959   3.04143   3.06849   3.07764
 Alpha virt. eigenvalues --    3.09079   3.09409   3.10444   3.11799   3.12676
 Alpha virt. eigenvalues --    3.13876   3.14717   3.17708   3.17815   3.19215
 Alpha virt. eigenvalues --    3.19650   3.20839   3.21863   3.22708   3.24732
 Alpha virt. eigenvalues --    3.25754   3.27403   3.27983   3.31045   3.33634
 Alpha virt. eigenvalues --    3.34211   3.35966   3.38253   3.41404   3.41727
 Alpha virt. eigenvalues --    3.45221   3.47013   3.48026   3.49555   3.52345
 Alpha virt. eigenvalues --    3.54180   3.64450   4.00749   4.01354   4.01745
 Alpha virt. eigenvalues --    4.02337   4.02955   4.03544   4.03952   4.05190
 Alpha virt. eigenvalues --    4.06594   4.06876   4.07469   4.08403   4.08629
 Alpha virt. eigenvalues --    4.08934   4.09731   4.10177   4.11304   4.11772
 Alpha virt. eigenvalues --    4.12305   4.12641   4.14214   4.15544   4.16229
 Alpha virt. eigenvalues --    4.16270   4.16939   4.18485   4.18699   4.19691
 Alpha virt. eigenvalues --    4.19963   4.20447   4.21307   4.21700   4.22477
 Alpha virt. eigenvalues --    4.24432   4.25106   4.25235   4.25643   4.26012
 Alpha virt. eigenvalues --    4.26455   4.26803   4.27135   4.27663   4.28170
 Alpha virt. eigenvalues --    4.28517   4.29343   4.29546   4.30157   4.31140
 Alpha virt. eigenvalues --    4.32239   4.33540   4.34381   4.34641   4.36902
 Alpha virt. eigenvalues --    4.37074   4.38575   4.38806   4.39569   4.40138
 Alpha virt. eigenvalues --    4.41842   4.41918   4.42353   4.43571   4.44185
 Alpha virt. eigenvalues --    4.44992   4.46851   4.47816   4.48674   4.50133
 Alpha virt. eigenvalues --    4.51445   4.53813   4.55591   4.56390   4.57852
 Alpha virt. eigenvalues --    4.58151   4.58651   4.60338   4.60774   4.64103
 Alpha virt. eigenvalues --    4.65531   4.66843   4.67661   4.72514   4.76749
 Alpha virt. eigenvalues --    4.77610   4.80194   4.81032   4.83712   4.85688
 Alpha virt. eigenvalues --    4.87108   4.91033   4.92807   4.97946   5.01943
 Alpha virt. eigenvalues --    5.02996   5.04324   5.10739   5.16178   5.24535
          Condensed to atoms (all electrons):
 Mulliken charges:
               1
     1  C   -0.017503
     2  C   -0.389785
     3  C    0.009367
     4  C   -0.390909
     5  C    0.014652
     6  C    0.090240
     7  C    0.010672
     8  C    0.090231
     9  C    0.036672
    10  C    0.090897
    11  C    0.091116
    12  C    0.043220
    13  C    0.007454
    14  C    0.007568
    15  C    0.010191
    16  C    0.012314
    17  C    0.072849
    18  C    0.045053
    19  C    0.095659
    20  C    0.043653
    21  C   -0.330467
    22  C    0.008793
    23  C    0.158148
    24  C    0.091460
    25  C    0.109569
    26  C    0.089925
    27  C   -0.380375
    28  C   -0.379434
    29  C    0.090753
    30  C    0.086687
    31  C    0.088348
    32  C    0.095700
    33  C    0.005183
    34  C   -0.017296
    35  C    0.040095
    36  C    0.064245
    37  C    0.064502
    38  C    0.094737
    39  C    0.119499
    40  C    0.118807
    41  C    0.113804
    42  C    0.153783
    43  C    0.079570
    44  C    0.148091
    45  C    0.145630
    46  C    0.078746
    47  C    0.122018
    48  C    0.121289
    49  C   -0.381855
    50  C   -0.384010
    51  C    0.094650
    52  C    0.087675
    53  C    0.043489
    54  C    0.011005
    55  C   -0.013733
    56  C    0.010209
    57  C    0.080892
    58  C    0.009763
    59  C    0.131866
    60  C    0.080068
    61  C   -0.363518
    62  C   -0.380922
    63  C    0.124145
    64  C    0.126570
    65  C    0.129200
    66  C    0.126339
    67  C    0.125580
    68  C    0.121962
    69  C   -0.374630
    70  C   -0.373531
    71  C    0.093911
    72  C    0.088393
    73  C    0.013799
    74  C    0.041380
    75  C    0.021499
    76  C    0.066130
    77  C   -0.023741
    78  C   -0.359293
    79  C   -0.360974
    80  C   -0.370375
    81  C    0.111339
    82  C    0.158230
    83  C    0.060534
    84  C    0.048869
    85  Cl   0.027599
    86  Cl   0.025137
    87  Cl   0.022284
    88  Cl   0.030267
    89  Cl   0.020392
    90  Cl   0.030824
    91  Cl   0.022158
    92  Cl   0.025272
    93  Cl   0.027545
    94  Cl   0.000205
    95  Cl   0.029122
    96  Cl   0.019590
    97  Cl  -0.047898
    98  Cl  -0.008830
 Sum of Mulliken charges =  -0.00000
 Mulliken charges with hydrogens summed into heavy atoms:
               1
     1  C   -0.017503
     2  C   -0.389785
     3  C    0.009367
     4  C   -0.390909
     5  C    0.014652
     6  C    0.090240
     7  C    0.010672
     8  C    0.090231
     9  C    0.036672
    10  C    0.090897
    11  C    0.091116
    12  C    0.043220
    13  C    0.007454
    14  C    0.007568
    15  C    0.010191
    16  C    0.012314
    17  C    0.072849
    18  C    0.045053
    19  C    0.095659
    20  C    0.043653
    21  C   -0.330467
    22  C    0.008793
    23  C    0.158148
    24  C    0.091460
    25  C    0.109569
    26  C    0.089925
    27  C   -0.380375
    28  C   -0.379434
    29  C    0.090753
    30  C    0.086687
    31  C    0.088348
    32  C    0.095700
    33  C    0.005183
    34  C   -0.017296
    35  C    0.040095
    36  C    0.064245
    37  C    0.064502
    38  C    0.094737
    39  C    0.119499
    40  C    0.118807
    41  C    0.113804
    42  C    0.153783
    43  C    0.079570
    44  C    0.148091
    45  C    0.145630
    46  C    0.078746
    47  C    0.122018
    48  C    0.121289
    49  C   -0.381855
    50  C   -0.384010
    51  C    0.094650
    52  C    0.087675
    53  C    0.043489
    54  C    0.011005
    55  C   -0.013733
    56  C    0.010209
    57  C    0.080892
    58  C    0.009763
    59  C    0.131866
    60  C    0.080068
    61  C   -0.363518
    62  C   -0.380922
    63  C    0.124145
    64  C    0.126570
    65  C    0.129200
    66  C    0.126339
    67  C    0.125580
    68  C    0.121962
    69  C   -0.374630
    70  C   -0.373531
    71  C    0.093911
    72  C    0.088393
    73  C    0.013799
    74  C    0.041380
    75  C    0.021499
    76  C    0.066130
    77  C   -0.023741
    78  C   -0.359293
    79  C   -0.360974
    80  C   -0.370375
    81  C    0.111339
    82  C    0.158230
    83  C    0.060534
    84  C    0.048869
    85  Cl   0.027599
    86  Cl   0.025137
    87  Cl   0.022284
    88  Cl   0.030267
    89  Cl   0.020392
    90  Cl   0.030824
    91  Cl   0.022158
    92  Cl   0.025272
    93  Cl   0.027545
    94  Cl   0.000205
    95  Cl   0.029122
    96  Cl   0.019590
    97  Cl  -0.047898
    98  Cl  -0.008830
 Electronic spatial extent (au):  <R**2>=          66783.3265
 Charge=              0.0000 electrons
 Dipole moment (field-independent basis, Debye):
    X=              0.1147    Y=              0.4114    Z=              1.9656  Tot=              2.0114
 Quadrupole moment (field-independent basis, Debye-Ang):
   XX=           -702.5777   YY=           -665.1042   ZZ=           -630.5093
   XY=             -8.0934   XZ=              1.2812   YZ=             -4.3449
 Traceless Quadrupole moment (field-independent basis, Debye-Ang):
   XX=            -36.5139   YY=              0.9595   ZZ=             35.5544
   XY=             -8.0934   XZ=              1.2812   YZ=             -4.3449
 Octapole moment (field-independent basis, Debye-Ang**2):
  XXX=            -11.8242  YYY=             26.1460  ZZZ=              5.4661  XYY=              7.5626
  XXY=             -3.2471  XXZ=             17.7896  XZZ=             -6.9743  YZZ=              4.0621
  YYZ=             38.4607  XYZ=             23.7264
 Hexadecapole moment (field-independent basis, Debye-Ang**3):
 XXXX=         -39402.5225 YYYY=         -31081.6170 ZZZZ=         -23691.3343 XXXY=           -157.6692
 XXXZ=             11.5896 YYYX=           -283.9167 YYYZ=            -77.5441 ZZZX=             19.0574
 ZZZY=             30.2408 XXYY=         -11988.2924 XXZZ=         -10750.0362 YYZZ=          -8991.0387
 XXYZ=             21.1991 YYXZ=            -43.0030 ZZXY=             27.8303
 N-N= 2.605217294478D+04 E-N=-7.480852598434D+04  KE= 9.594204256207D+03
 No NMR shielding tensors so no spin-rotation constants.
 Leave Link  601 at Sun Jun 26 23:37:22 2022, MaxMem=  1342177280 cpu:              27.6 elap:               1.4
 (Enter /home/mkliu/g16/l9999.exe)
 1\1\GINC-NODE05\FOpt\RB3LYP\6-31G(d,p)\C84Cl14\MKLIU\26-Jun-2022\0\\#P
  opt b3lyp/6-31G(d, p) empiricaldispersion=GD3\\force\\0,1\C,8.2719672
 021,18.8861679295,10.5423208012\C,12.5011142082,19.9979605362,8.905889
 5063\C,8.2658701367,26.8594479045,10.5491894364\C,12.4800354116,25.774
 3371681,8.9218916245\C,7.954867467,18.9484643151,9.1700940779\C,11.892
 467267,19.5512529036,10.2131949069\C,7.9443375017,26.8006390808,9.1332
 846755\C,11.8789393304,26.230367433,10.2353254703\C,8.9621112293,19.11
 12014503,8.1599980651\C,12.1442539984,20.1837731892,11.3898454439\C,12
 .1440143528,25.5787825133,11.4249607868\C,8.9575299492,26.6270028224,8
 .1464470081\C,10.2963149835,19.0600605029,8.6083731839\C,10.2947959658
 ,26.6843819353,8.6051598847\C,10.6202478081,18.9551290817,9.9950515933
 \C,10.6261591183,26.8199100088,10.0202009328\C,9.6147550923,18.9630156
 029,11.0028674164\C,9.6100167902,26.807636069,11.0136796029\C,9.894424
 0653,19.6174456054,12.2455562818\C,9.8793265314,26.1244606101,12.25342
 52588\C,8.7652060246,20.0482770047,13.156811551\C,8.7847753214,25.5225
 854426,12.9345849002\C,7.4364267045,20.1485634122,12.45109232\C,7.4744
 814332,25.5892353838,12.4335461841\C,7.2090409208,19.530417862,11.2869
 092719\C,7.2134842678,26.264022638,11.262891026\C,6.0937395777,19.9531
 897951,10.3516481644\C,6.1027132315,25.8279925339,10.3268561402\C,6.65
 83419821,19.5412797026,9.0135671117\C,6.6778749194,26.2260313032,8.984
 2552902\C,6.3520158279,20.1969572046,7.8763184074\C,6.3759425685,25.54
 43591852,7.8271503648\C,7.3189582528,20.3125343019,6.8169974452\C,7.31
 47334437,25.4367611124,6.7886561992\C,8.6611363135,19.8621404983,6.969
 260892\C,8.67044226,25.8766409612,6.9540906969\C,9.725437256,20.596516
 7339,6.2968097679\C,9.7371451897,25.1666040453,6.2970816467\C,11.07205
 01542,20.5545684136,6.8389511878\C,12.6883173895,22.1946119982,7.78135
 68972\C,12.6724112915,23.5850713573,7.7834159515\C,11.0385750134,25.19
 99071952,6.8279158751\C,11.3355757371,19.774834717,7.9339661984\C,12.8
 532888634,21.4756343374,8.9609083994\C,12.824952834,24.2987448079,8.97
 06694843\C,11.315498574,25.9977982241,7.9493723269\C,13.04832771,22.17
 41694755,10.1716488791\C,13.0365370647,23.5928635954,10.1766750726\C,1
 3.061241343,21.3874735433,11.4893140843\C,13.0597561062,24.3643355355,
 11.5002804698\C,12.3911651683,22.1754283869,12.5978087718\C,12.3997442
 641,23.5570284832,12.6021926435\C,11.1346899182,20.2302763901,12.40281
 00318\C,11.156285499,25.5148818086,12.4229510346\C,11.3142754294,21.46
 32451032,13.1518817199\C,11.306349852,24.2564593072,13.1375697347\C,8.
 9376877587,21.4604438852,13.6564228291\C,8.93839223,24.254265584,13.63
 10857396\C,7.7444661649,22.1711928515,13.540476703\C,7.7310660942,23.5
 534075995,13.5608968636\C,6.6724353413,21.3939950758,12.8237175734\C,6
 .6797500737,24.3558109975,12.8231793637\C,6.196488619,22.1766253202,11
 .576212329\C,6.2095762391,23.5919805556,11.5700215445\C,5.897829603,21
 .4793785311,10.3894600022\C,5.9228580689,24.2967772658,10.3768668018\C
 ,5.5929607852,22.1796936537,9.2000874666\C,5.6063243291,23.5908558596,
 9.1897827044\C,5.4151967601,21.3933669698,7.88023466\C,5.4318081954,24
 .3561609681,7.8551305022\C,5.9420321425,22.1851014899,6.702656713\C,5.
 9508300887,23.5432219295,6.6894591368\C,7.0078508496,21.4707234819,6.0
 66687154\C,7.0136372912,24.2475893292,6.0242637142\C,8.0371293482,22.1
 630086513,5.4050863761\C,8.0057169282,23.5849667463,5.3457170446\C,9.3
 773838386,21.7013063739,5.4906673816\C,9.4077618124,24.1349440807,5.22
 49990139\C,12.0833990442,21.6392565518,6.5037105437\C,12.0780667935,24
 .1371987648,6.4939281147\C,10.2428902096,22.8715208138,5.4001015429\C,
 11.4723315473,22.8859912793,5.9209136636\C,10.1853595875,22.1352693222
 ,13.7053006251\C,10.1874620316,23.5765037355,13.6941515153\Cl,4.518901
 8387,19.0976472491,10.7525116353\Cl,3.6510122214,20.9322881096,7.66378
 01068\Cl,3.6682459619,24.828482304,7.640234322\Cl,4.519975597,26.67189
 0909,10.710945598\Cl,5.2210529349,21.0530180853,13.9138930729\Cl,5.240
 1881835,24.7769175067,13.8823208486\Cl,14.7916043816,20.9246977474,11.
 9102736172\Cl,14.7885026471,24.8375142244,11.9099363436\Cl,13.97301732
 39,18.9905683417,8.4610776901\Cl,13.3981064605,20.9622709803,5.3710482
 261\Cl,13.9597222294,26.7762862109,8.4889394158\Cl,13.3843636129,24.85
 25015506,5.3981996474\Cl,8.6658595729,18.8432550015,14.6147355449\Cl,9
 .6855813942,24.8841477635,3.5434012544\\Version=ES64L-G16RevA.03\State
 =1-A\HF=-9643.8277172\RMSD=3.383e-09\RMSF=3.732e-05\Dipole=0.045282,0.
 7694806,0.1791618\Quadrupole=-19.5265418,18.6563206,0.8702212,-0.94844
 13,14.7069847,13.5431844\PG=C01 [X(C84Cl14)]\\@


 THE WORLD OF CHEMICAL REACTIONS IS LIKE A STAGE,
 ON WHICH SCENE AFTER SCENE IS CEASELESSLY PLAYED.
 THE ACTORS ON IT ARE THE ELEMENTS.
   -- CLEMENS WINKLER   BER. 30,13(1897)
 (DISCOVERER OF GERMANIUM, FEB 6, 1886)
 Job cpu time:       1 days 14 hours 46 minutes 24.5 seconds.
 Elapsed time:       0 days  1 hours 37 minutes  3.9 seconds.
 File lengths (MBytes):  RWF=   1429 Int=      0 D2E=      0 Chk=    179 Scr=      1
 Normal termination of Gaussian 16 at Sun Jun 26 23:37:25 2022.
