 Entering Gaussian System, Link 0=g16
 Input=14_addons_C84_14_Cl22_rank_4.gjf
 Output=14_addons_C84_14_Cl22_rank_4.log
 Initial command:
 /home/mkliu/g16/l1.exe "/data/scratch/Gau-100164.inp" -scrdir="/data/scratch/"
 Entering Link 1 = /home/mkliu/g16/l1.exe PID=    100165.
  
 Copyright (c) 1988,1990,1992,1993,1995,1998,2003,2009,2016,
            Gaussian, Inc.  All Rights Reserved.
  
 This is part of the Gaussian(R) 16 program.  It is based on
 the Gaussian(R) 09 system (copyright 2009, Gaussian, Inc.),
 the Gaussian(R) 03 system (copyright 2003, Gaussian, Inc.),
 the Gaussian(R) 98 system (copyright 1998, Gaussian, Inc.),
 the Gaussian(R) 94 system (copyright 1995, Gaussian, Inc.),
 the Gaussian 92(TM) system (copyright 1992, Gaussian, Inc.),
 the Gaussian 90(TM) system (copyright 1990, Gaussian, Inc.),
 the Gaussian 88(TM) system (copyright 1988, Gaussian, Inc.),
 the Gaussian 86(TM) system (copyright 1986, Carnegie Mellon
 University), and the Gaussian 82(TM) system (copyright 1983,
 Carnegie Mellon University). Gaussian is a federally registered
 trademark of Gaussian, Inc.
  
 This software contains proprietary and confidential information,
 including trade secrets, belonging to Gaussian, Inc.
  
 This software is provided under written license and may be
 used, copied, transmitted, or stored only in accord with that
 written license.
  
 The following legend is applicable only to US Government
 contracts under FAR:
  
                    RESTRICTED RIGHTS LEGEND
  
 Use, reproduction and disclosure by the US Government is
 subject to restrictions as set forth in subparagraphs (a)
 and (c) of the Commercial Computer Software - Restricted
 Rights clause in FAR 52.227-19.
  
 Gaussian, Inc.
 340 Quinnipiac St., Bldg. 40, Wallingford CT 06492
  
  
 ---------------------------------------------------------------
 Warning -- This program may not be used in any manner that
 competes with the business of Gaussian, Inc. or will provide
 assistance to any competitor of Gaussian, Inc.  The licensee
 of this program is prohibited from giving any competitor of
 Gaussian, Inc. access to this program.  By using this program,
 the user acknowledges that Gaussian, Inc. is engaged in the
 business of creating and licensing software in the field of
 computational chemistry and represents and warrants to the
 licensee that it is not a competitor of Gaussian, Inc. and that
 it will not use this program in any manner prohibited above.
 ---------------------------------------------------------------
  

 Cite this work as:
 Gaussian 16, Revision A.03,
 M. J. Frisch, G. W. Trucks, H. B. Schlegel, G. E. Scuseria, 
 M. A. Robb, J. R. Cheeseman, G. Scalmani, V. Barone, 
 G. A. Petersson, H. Nakatsuji, X. Li, M. Caricato, A. V. Marenich, 
 J. Bloino, B. G. Janesko, R. Gomperts, B. Mennucci, H. P. Hratchian, 
 J. V. Ortiz, A. F. Izmaylov, J. L. Sonnenberg, D. Williams-Young, 
 F. Ding, F. Lipparini, F. Egidi, J. Goings, B. Peng, A. Petrone, 
 T. Henderson, D. Ranasinghe, V. G. Zakrzewski, J. Gao, N. Rega, 
 G. Zheng, W. Liang, M. Hada, M. Ehara, K. Toyota, R. Fukuda, 
 J. Hasegawa, M. Ishida, T. Nakajima, Y. Honda, O. Kitao, H. Nakai, 
 T. Vreven, K. Throssell, J. A. Montgomery, Jr., J. E. Peralta, 
 F. Ogliaro, M. J. Bearpark, J. J. Heyd, E. N. Brothers, K. N. Kudin, 
 V. N. Staroverov, T. A. Keith, R. Kobayashi, J. Normand, 
 K. Raghavachari, A. P. Rendell, J. C. Burant, S. S. Iyengar, 
 J. Tomasi, M. Cossi, J. M. Millam, M. Klene, C. Adamo, R. Cammi, 
 J. W. Ochterski, R. L. Martin, K. Morokuma, O. Farkas, 
 J. B. Foresman, and D. J. Fox, Gaussian, Inc., Wallingford CT, 2016.
 
 ******************************************
 Gaussian 16:  ES64L-G16RevA.03 25-Dec-2016
                28-Jun-2022 
 ******************************************
 %mem=10GB
 %chk=14_addons_C84_14_Cl22_rank_4.chk
 %nprocshared=24
 Will use up to   24 processors via shared memory.
 ------------------------------------------------
 #P opt b3lyp/6-31G(d, p) empiricaldispersion=GD3
 ------------------------------------------------
 1/18=20,19=15,26=3,38=1/1,3;
 2/9=110,12=2,17=6,18=5,40=1/2;
 3/5=1,6=6,7=101,11=2,25=1,30=1,71=1,74=-5,124=31/1,2,3;
 4//1;
 5/5=2,38=5/2;
 6/7=2,8=2,9=2,10=2,28=1/1;
 7//1,2,3,16;
 1/18=20,19=15,26=3/3(2);
 2/9=110/2;
 99//99;
 2/9=110/2;
 3/5=1,6=6,7=101,11=2,25=1,30=1,71=1,74=-5,124=31/1,2,3;
 4/5=5,16=3,69=1/1;
 5/5=2,38=5/2;
 7//1,2,3,16;
 1/18=20,19=15,26=3/3(-5);
 2/9=110/2;
 6/7=2,8=2,9=2,10=2,19=2,28=1/1;
 99/9=1/99;
 Leave Link    1 at Tue Jun 28 22:01:43 2022, MaxMem=  1342177280 cpu:               0.8 elap:               0.1
 (Enter /home/mkliu/g16/l101.exe)
 -----
 force
 -----
 Symbolic Z-matrix:
 Charge =  0 Multiplicity = 1
 C                     8.27357   18.92292   10.55872 
 C                     12.47098   20.009    8.92419 
 C                     8.27909   26.82312   10.54337 
 C                     12.48028   25.74944   8.92861 
 C                     7.95522   18.98504   9.1637 
 C                     11.8761   19.56351   10.22843 
 C                     7.96518   26.76721   9.15605 
 C                     11.88559   26.19387   10.23411 
 C                     8.95153   19.16169   8.17888 
 C                     12.1423   20.20279   11.40357 
 C                     12.14853   25.55004   11.40996 
 C                     8.96596   26.58803   8.17373 
 C                     10.28281   19.10052   8.63375 
 C                     10.29402   26.64554   8.6329 
 C                     10.60971   18.97152   10.01564 
 C                     10.62089   26.78334   10.02409 
 C                     9.60556   18.97989   11.01424 
 C                     9.61479   26.77101   11.01061 
 C                     9.87843   19.65829   12.24324 
 C                     9.88255   26.09416   12.24152 
 C                     8.79515   20.26041   12.92587 
 C                     8.79835   25.4922   12.92111 
 C                     7.47205   20.19308   12.43034 
 C                     7.47511   25.55789   12.41965 
 C                     7.21241   19.5247   11.27265 
 C                     7.21706   26.22211   11.26102 
 C                     6.10924   19.95509   10.34807 
 C                     6.1148    25.78927   10.3372 
 C                     6.68706   19.56633   9.02079 
 C                     6.68915   26.18016   9.00819 
 C                     6.39517   20.24616   7.87202 
 C                     6.39398   25.50354   7.86805 
 C                     7.32613   20.32993   6.83068 
 C                     7.33476   25.40384   6.81507 
 C                     8.65357   19.90211   6.99433 
 C                     8.68646   25.84545   6.98651 
 C                     9.72413   20.61497   6.32934 
 C                     9.73853   25.14745   6.34175 
 C                     11.041    20.57623   6.86567 
 C                     12.63449   22.1879   7.81443 
 C                     12.64051   23.57522   7.81108 
 C                     11.04119   25.1732   6.86289 
 C                     11.31282   19.79716   7.96804 
 C                     12.80038   21.47699   8.98859 
 C                     12.80728   24.28153   8.98894 
 C                     11.31833   25.95517   7.97627 
 C                     13.01659   22.1751   10.18564 
 C                     13.01838   23.57986   10.18589 
 C                     13.05795   21.39666   11.49018 
 C                     13.06154   24.35421   11.49321 
 C                     12.39806   22.19318   12.58055 
 C                     12.39961   23.55624   12.58159 
 C                     11.14463   20.26425   12.40963 
 C                     11.14953   25.48854   12.41109 
 C                     11.29898   21.48751   13.12671 
 C                     11.30078   24.26233   13.12795 
 C                     8.94867   21.49124   13.63062 
 C                     8.94941   24.2637   13.62715 
 C                     7.72323   22.19741   13.56316 
 C                     7.72403   23.55784   13.56148 
 C                     6.68219   21.41069   12.8194 
 C                     6.68401   24.34236   12.8143 
 C                     6.25557   22.17235   11.5649 
 C                     6.25702   23.57549   11.564 
 C                     5.96238   21.47347   10.38507 
 C                     5.96894   24.2703   10.38163 
 C                     5.65361   22.16936   9.20495 
 C                     5.66136   23.56911   9.20576 
 C                     5.44385   21.4052   7.89473 
 C                     5.46334   24.32627   7.89577 
 C                     5.93998   22.1888   6.71722 
 C                     5.98157   23.52354   6.73678 
 C                     6.88529   21.38414   5.86811 
 C                     7.02418   24.25755   6.04953 
 C                     8.04379   22.18184   5.41708 
 C                     8.02081   23.58006   5.37991 
 C                     9.36111   21.72987   5.54034 
 C                     9.41197   24.13472   5.26848 
 C                     12.0572   21.6392   6.53772 
 C                     12.0782   24.12898   6.52391 
 C                     10.23072   22.88537   5.44848 
 C                     11.46246   22.88662   5.9559 
 C                     10.19075   22.16119   13.69214 
 C                     10.19243   23.5914   13.69141 
 Cl                    4.52381   19.1999   10.72019 
 Cl                    3.70742   20.94212   7.77662 
 Cl                    3.72422   24.75313   7.73676 
 Cl                    4.52679   26.54065   10.70698 
 Cl                    5.2172    21.04651   13.79407 
 Cl                    5.22017   24.71415   13.78805 
 Cl                    14.76545   20.95951   11.85287 
 Cl                    14.76973   24.78733   11.85721 
 Cl                    13.93086   19.06768   8.45339 
 Cl                    13.35457   20.95512   5.47144 
 Cl                    13.93632   26.69425   8.45518 
 Cl                    13.36954   24.83453   5.47958 
 Cl                    6.02422   20.63018   4.43874 
 Cl                    9.70174   24.90626   3.6541 
 
 ITRead=  0  0  0  0  0  0  0  0  0  0  0  0  0  0  0  0  0  0  0  0
 ITRead=  0  0  0  0  0  0  0  0  0  0  0  0  0  0  0  0  0  0  0  0
 ITRead=  0  0  0  0  0  0  0  0  0  0  0  0  0  0  0  0  0  0  0  0
 ITRead=  0  0  0  0  0  0  0  0  0  0  0  0  0  0  0  0  0  0  0  0
 ITRead=  0  0  0  0  0  0  0  0  0  0  0  0  0  0  0  0  0  0
 MicOpt= -1 -1 -1 -1 -1 -1 -1 -1 -1 -1 -1 -1 -1 -1 -1 -1 -1 -1 -1 -1
 MicOpt= -1 -1 -1 -1 -1 -1 -1 -1 -1 -1 -1 -1 -1 -1 -1 -1 -1 -1 -1 -1
 MicOpt= -1 -1 -1 -1 -1 -1 -1 -1 -1 -1 -1 -1 -1 -1 -1 -1 -1 -1 -1 -1
 MicOpt= -1 -1 -1 -1 -1 -1 -1 -1 -1 -1 -1 -1 -1 -1 -1 -1 -1 -1 -1 -1
 MicOpt= -1 -1 -1 -1 -1 -1 -1 -1 -1 -1 -1 -1 -1 -1 -1 -1 -1 -1
 NAtoms=     98 NQM=       98 NQMF=       0 NMMI=      0 NMMIF=      0
                NMic=       0 NMicF=      0.
                    Isotopes and Nuclear Properties:
 (Nuclear quadrupole moments (NQMom) in fm**2, nuclear magnetic moments (NMagM)
  in nuclear magnetons)

  Atom         1           2           3           4           5           6           7           8           9          10
 IAtWgt=          12          12          12          12          12          12          12          12          12          12
 AtmWgt=  12.0000000  12.0000000  12.0000000  12.0000000  12.0000000  12.0000000  12.0000000  12.0000000  12.0000000  12.0000000
 NucSpn=           0           0           0           0           0           0           0           0           0           0
 AtZEff=  -0.0000000  -0.0000000  -0.0000000  -0.0000000  -0.0000000  -0.0000000  -0.0000000  -0.0000000  -0.0000000  -0.0000000
 NQMom=    0.0000000   0.0000000   0.0000000   0.0000000   0.0000000   0.0000000   0.0000000   0.0000000   0.0000000   0.0000000
 NMagM=    0.0000000   0.0000000   0.0000000   0.0000000   0.0000000   0.0000000   0.0000000   0.0000000   0.0000000   0.0000000
 AtZNuc=   6.0000000   6.0000000   6.0000000   6.0000000   6.0000000   6.0000000   6.0000000   6.0000000   6.0000000   6.0000000

  Atom        11          12          13          14          15          16          17          18          19          20
 IAtWgt=          12          12          12          12          12          12          12          12          12          12
 AtmWgt=  12.0000000  12.0000000  12.0000000  12.0000000  12.0000000  12.0000000  12.0000000  12.0000000  12.0000000  12.0000000
 NucSpn=           0           0           0           0           0           0           0           0           0           0
 AtZEff=  -0.0000000  -0.0000000  -0.0000000  -0.0000000  -0.0000000  -0.0000000  -0.0000000  -0.0000000  -0.0000000  -0.0000000
 NQMom=    0.0000000   0.0000000   0.0000000   0.0000000   0.0000000   0.0000000   0.0000000   0.0000000   0.0000000   0.0000000
 NMagM=    0.0000000   0.0000000   0.0000000   0.0000000   0.0000000   0.0000000   0.0000000   0.0000000   0.0000000   0.0000000
 AtZNuc=   6.0000000   6.0000000   6.0000000   6.0000000   6.0000000   6.0000000   6.0000000   6.0000000   6.0000000   6.0000000

  Atom        21          22          23          24          25          26          27          28          29          30
 IAtWgt=          12          12          12          12          12          12          12          12          12          12
 AtmWgt=  12.0000000  12.0000000  12.0000000  12.0000000  12.0000000  12.0000000  12.0000000  12.0000000  12.0000000  12.0000000
 NucSpn=           0           0           0           0           0           0           0           0           0           0
 AtZEff=  -0.0000000  -0.0000000  -0.0000000  -0.0000000  -0.0000000  -0.0000000  -0.0000000  -0.0000000  -0.0000000  -0.0000000
 NQMom=    0.0000000   0.0000000   0.0000000   0.0000000   0.0000000   0.0000000   0.0000000   0.0000000   0.0000000   0.0000000
 NMagM=    0.0000000   0.0000000   0.0000000   0.0000000   0.0000000   0.0000000   0.0000000   0.0000000   0.0000000   0.0000000
 AtZNuc=   6.0000000   6.0000000   6.0000000   6.0000000   6.0000000   6.0000000   6.0000000   6.0000000   6.0000000   6.0000000

  Atom        31          32          33          34          35          36          37          38          39          40
 IAtWgt=          12          12          12          12          12          12          12          12          12          12
 AtmWgt=  12.0000000  12.0000000  12.0000000  12.0000000  12.0000000  12.0000000  12.0000000  12.0000000  12.0000000  12.0000000
 NucSpn=           0           0           0           0           0           0           0           0           0           0
 AtZEff=  -0.0000000  -0.0000000  -0.0000000  -0.0000000  -0.0000000  -0.0000000  -0.0000000  -0.0000000  -0.0000000  -0.0000000
 NQMom=    0.0000000   0.0000000   0.0000000   0.0000000   0.0000000   0.0000000   0.0000000   0.0000000   0.0000000   0.0000000
 NMagM=    0.0000000   0.0000000   0.0000000   0.0000000   0.0000000   0.0000000   0.0000000   0.0000000   0.0000000   0.0000000
 AtZNuc=   6.0000000   6.0000000   6.0000000   6.0000000   6.0000000   6.0000000   6.0000000   6.0000000   6.0000000   6.0000000

  Atom        41          42          43          44          45          46          47          48          49          50
 IAtWgt=          12          12          12          12          12          12          12          12          12          12
 AtmWgt=  12.0000000  12.0000000  12.0000000  12.0000000  12.0000000  12.0000000  12.0000000  12.0000000  12.0000000  12.0000000
 NucSpn=           0           0           0           0           0           0           0           0           0           0
 AtZEff=  -0.0000000  -0.0000000  -0.0000000  -0.0000000  -0.0000000  -0.0000000  -0.0000000  -0.0000000  -0.0000000  -0.0000000
 NQMom=    0.0000000   0.0000000   0.0000000   0.0000000   0.0000000   0.0000000   0.0000000   0.0000000   0.0000000   0.0000000
 NMagM=    0.0000000   0.0000000   0.0000000   0.0000000   0.0000000   0.0000000   0.0000000   0.0000000   0.0000000   0.0000000
 AtZNuc=   6.0000000   6.0000000   6.0000000   6.0000000   6.0000000   6.0000000   6.0000000   6.0000000   6.0000000   6.0000000

  Atom        51          52          53          54          55          56          57          58          59          60
 IAtWgt=          12          12          12          12          12          12          12          12          12          12
 AtmWgt=  12.0000000  12.0000000  12.0000000  12.0000000  12.0000000  12.0000000  12.0000000  12.0000000  12.0000000  12.0000000
 NucSpn=           0           0           0           0           0           0           0           0           0           0
 AtZEff=  -0.0000000  -0.0000000  -0.0000000  -0.0000000  -0.0000000  -0.0000000  -0.0000000  -0.0000000  -0.0000000  -0.0000000
 NQMom=    0.0000000   0.0000000   0.0000000   0.0000000   0.0000000   0.0000000   0.0000000   0.0000000   0.0000000   0.0000000
 NMagM=    0.0000000   0.0000000   0.0000000   0.0000000   0.0000000   0.0000000   0.0000000   0.0000000   0.0000000   0.0000000
 AtZNuc=   6.0000000   6.0000000   6.0000000   6.0000000   6.0000000   6.0000000   6.0000000   6.0000000   6.0000000   6.0000000

  Atom        61          62          63          64          65          66          67          68          69          70
 IAtWgt=          12          12          12          12          12          12          12          12          12          12
 AtmWgt=  12.0000000  12.0000000  12.0000000  12.0000000  12.0000000  12.0000000  12.0000000  12.0000000  12.0000000  12.0000000
 NucSpn=           0           0           0           0           0           0           0           0           0           0
 AtZEff=  -0.0000000  -0.0000000  -0.0000000  -0.0000000  -0.0000000  -0.0000000  -0.0000000  -0.0000000  -0.0000000  -0.0000000
 NQMom=    0.0000000   0.0000000   0.0000000   0.0000000   0.0000000   0.0000000   0.0000000   0.0000000   0.0000000   0.0000000
 NMagM=    0.0000000   0.0000000   0.0000000   0.0000000   0.0000000   0.0000000   0.0000000   0.0000000   0.0000000   0.0000000
 AtZNuc=   6.0000000   6.0000000   6.0000000   6.0000000   6.0000000   6.0000000   6.0000000   6.0000000   6.0000000   6.0000000

  Atom        71          72          73          74          75          76          77          78          79          80
 IAtWgt=          12          12          12          12          12          12          12          12          12          12
 AtmWgt=  12.0000000  12.0000000  12.0000000  12.0000000  12.0000000  12.0000000  12.0000000  12.0000000  12.0000000  12.0000000
 NucSpn=           0           0           0           0           0           0           0           0           0           0
 AtZEff=  -0.0000000  -0.0000000  -0.0000000  -0.0000000  -0.0000000  -0.0000000  -0.0000000  -0.0000000  -0.0000000  -0.0000000
 NQMom=    0.0000000   0.0000000   0.0000000   0.0000000   0.0000000   0.0000000   0.0000000   0.0000000   0.0000000   0.0000000
 NMagM=    0.0000000   0.0000000   0.0000000   0.0000000   0.0000000   0.0000000   0.0000000   0.0000000   0.0000000   0.0000000
 AtZNuc=   6.0000000   6.0000000   6.0000000   6.0000000   6.0000000   6.0000000   6.0000000   6.0000000   6.0000000   6.0000000

  Atom        81          82          83          84          85          86          87          88          89          90
 IAtWgt=          12          12          12          12          35          35          35          35          35          35
 AtmWgt=  12.0000000  12.0000000  12.0000000  12.0000000  34.9688527  34.9688527  34.9688527  34.9688527  34.9688527  34.9688527
 NucSpn=           0           0           0           0           3           3           3           3           3           3
 AtZEff=  -0.0000000  -0.0000000  -0.0000000  -0.0000000  -0.0000000  -0.0000000  -0.0000000  -0.0000000  -0.0000000  -0.0000000
 NQMom=    0.0000000   0.0000000   0.0000000   0.0000000  -8.1650000  -8.1650000  -8.1650000  -8.1650000  -8.1650000  -8.1650000
 NMagM=    0.0000000   0.0000000   0.0000000   0.0000000   0.8218740   0.8218740   0.8218740   0.8218740   0.8218740   0.8218740
 AtZNuc=   6.0000000   6.0000000   6.0000000   6.0000000  17.0000000  17.0000000  17.0000000  17.0000000  17.0000000  17.0000000

  Atom        91          92          93          94          95          96          97          98
 IAtWgt=          35          35          35          35          35          35          35          35
 AtmWgt=  34.9688527  34.9688527  34.9688527  34.9688527  34.9688527  34.9688527  34.9688527  34.9688527
 NucSpn=           3           3           3           3           3           3           3           3
 AtZEff=  -0.0000000  -0.0000000  -0.0000000  -0.0000000  -0.0000000  -0.0000000  -0.0000000  -0.0000000
 NQMom=   -8.1650000  -8.1650000  -8.1650000  -8.1650000  -8.1650000  -8.1650000  -8.1650000  -8.1650000
 NMagM=    0.8218740   0.8218740   0.8218740   0.8218740   0.8218740   0.8218740   0.8218740   0.8218740
 AtZNuc=  17.0000000  17.0000000  17.0000000  17.0000000  17.0000000  17.0000000  17.0000000  17.0000000
 Leave Link  101 at Tue Jun 28 22:01:43 2022, MaxMem=  1342177280 cpu:               6.7 elap:               0.3
 (Enter /home/mkliu/g16/l103.exe)

 GradGradGradGradGradGradGradGradGradGradGradGradGradGradGradGradGradGrad
 Berny optimization.
 Initialization pass.
                           ----------------------------
                           !    Initial Parameters    !
                           ! (Angstroms and Degrees)  !
 --------------------------                            --------------------------
 ! Name  Definition              Value          Derivative Info.                !
 --------------------------------------------------------------------------------
 ! R1    R(1,5)                  1.4322         estimate D2E/DX2                !
 ! R2    R(1,17)                 1.4089         estimate D2E/DX2                !
 ! R3    R(1,25)                 1.4135         estimate D2E/DX2                !
 ! R4    R(2,6)                  1.5011         estimate D2E/DX2                !
 ! R5    R(2,43)                 1.5167         estimate D2E/DX2                !
 ! R6    R(2,44)                 1.5059         estimate D2E/DX2                !
 ! R7    R(2,93)                 1.7997         estimate D2E/DX2                !
 ! R8    R(3,7)                  1.4235         estimate D2E/DX2                !
 ! R9    R(3,18)                 1.416          estimate D2E/DX2                !
 ! R10   R(3,26)                 1.4157         estimate D2E/DX2                !
 ! R11   R(4,8)                  1.5018         estimate D2E/DX2                !
 ! R12   R(4,45)                 1.5051         estimate D2E/DX2                !
 ! R13   R(4,46)                 1.5164         estimate D2E/DX2                !
 ! R14   R(4,95)                 1.7991         estimate D2E/DX2                !
 ! R15   R(5,9)                  1.412          estimate D2E/DX2                !
 ! R16   R(5,29)                 1.4023         estimate D2E/DX2                !
 ! R17   R(6,10)                 1.364          estimate D2E/DX2                !
 ! R18   R(6,15)                 1.414          estimate D2E/DX2                !
 ! R19   R(7,12)                 1.4137         estimate D2E/DX2                !
 ! R20   R(7,30)                 1.4124         estimate D2E/DX2                !
 ! R21   R(8,11)                 1.3661         estimate D2E/DX2                !
 ! R22   R(8,16)                 1.411          estimate D2E/DX2                !
 ! R23   R(9,13)                 1.4082         estimate D2E/DX2                !
 ! R24   R(9,35)                 1.4283         estimate D2E/DX2                !
 ! R25   R(10,49)                1.5071         estimate D2E/DX2                !
 ! R26   R(10,53)                1.4182         estimate D2E/DX2                !
 ! R27   R(11,50)                1.5068         estimate D2E/DX2                !
 ! R28   R(11,54)                1.4156         estimate D2E/DX2                !
 ! R29   R(12,14)                1.4064         estimate D2E/DX2                !
 ! R30   R(12,36)                1.428          estimate D2E/DX2                !
 ! R31   R(13,15)                1.4259         estimate D2E/DX2                !
 ! R32   R(13,43)                1.4105         estimate D2E/DX2                !
 ! R33   R(14,16)                1.4357         estimate D2E/DX2                !
 ! R34   R(14,46)                1.3989         estimate D2E/DX2                !
 ! R35   R(15,17)                1.4162         estimate D2E/DX2                !
 ! R36   R(16,18)                1.4091         estimate D2E/DX2                !
 ! R37   R(17,19)                1.4301         estimate D2E/DX2                !
 ! R38   R(18,20)                1.43           estimate D2E/DX2                !
 ! R39   R(19,21)                1.4149         estimate D2E/DX2                !
 ! R40   R(19,53)                1.4135         estimate D2E/DX2                !
 ! R41   R(20,22)                1.4141         estimate D2E/DX2                !
 ! R42   R(20,54)                1.4145         estimate D2E/DX2                !
 ! R43   R(21,23)                1.4145         estimate D2E/DX2                !
 ! R44   R(21,57)                1.4266         estimate D2E/DX2                !
 ! R45   R(22,24)                1.4166         estimate D2E/DX2                !
 ! R46   R(22,58)                1.425          estimate D2E/DX2                !
 ! R47   R(23,25)                1.3618         estimate D2E/DX2                !
 ! R48   R(23,61)                1.5026         estimate D2E/DX2                !
 ! R49   R(24,26)                1.3602         estimate D2E/DX2                !
 ! R50   R(24,62)                1.503          estimate D2E/DX2                !
 ! R51   R(25,27)                1.5024         estimate D2E/DX2                !
 ! R52   R(26,28)                1.5019         estimate D2E/DX2                !
 ! R53   R(27,29)                1.4989         estimate D2E/DX2                !
 ! R54   R(27,65)                1.5259         estimate D2E/DX2                !
 ! R55   R(27,85)                1.7951         estimate D2E/DX2                !
 ! R56   R(28,30)                1.4996         estimate D2E/DX2                !
 ! R57   R(28,66)                1.5266         estimate D2E/DX2                !
 ! R58   R(28,88)                1.7953         estimate D2E/DX2                !
 ! R59   R(29,31)                1.3664         estimate D2E/DX2                !
 ! R60   R(30,32)                1.3582         estimate D2E/DX2                !
 ! R61   R(31,33)                1.3993         estimate D2E/DX2                !
 ! R62   R(31,69)                1.4996         estimate D2E/DX2                !
 ! R63   R(32,34)                1.4155         estimate D2E/DX2                !
 ! R64   R(32,70)                1.5009         estimate D2E/DX2                !
 ! R65   R(33,35)                1.4042         estimate D2E/DX2                !
 ! R66   R(33,73)                1.4941         estimate D2E/DX2                !
 ! R67   R(34,36)                1.4323         estimate D2E/DX2                !
 ! R68   R(34,74)                1.413          estimate D2E/DX2                !
 ! R69   R(35,37)                1.4479         estimate D2E/DX2                !
 ! R70   R(36,38)                1.4177         estimate D2E/DX2                !
 ! R71   R(37,39)                1.4224         estimate D2E/DX2                !
 ! R72   R(37,77)                1.4133         estimate D2E/DX2                !
 ! R73   R(38,42)                1.4033         estimate D2E/DX2                !
 ! R74   R(38,78)                1.5113         estimate D2E/DX2                !
 ! R75   R(39,43)                1.377          estimate D2E/DX2                !
 ! R76   R(39,79)                1.5067         estimate D2E/DX2                !
 ! R77   R(40,41)                1.3873         estimate D2E/DX2                !
 ! R78   R(40,44)                1.3826         estimate D2E/DX2                !
 ! R79   R(40,79)                1.5048         estimate D2E/DX2                !
 ! R80   R(41,45)                1.3835         estimate D2E/DX2                !
 ! R81   R(41,80)                1.5099         estimate D2E/DX2                !
 ! R82   R(42,46)                1.3885         estimate D2E/DX2                !
 ! R83   R(42,80)                1.5102         estimate D2E/DX2                !
 ! R84   R(44,47)                1.4025         estimate D2E/DX2                !
 ! R85   R(45,48)                1.4034         estimate D2E/DX2                !
 ! R86   R(47,48)                1.4048         estimate D2E/DX2                !
 ! R87   R(47,49)                1.5197         estimate D2E/DX2                !
 ! R88   R(48,50)                1.5201         estimate D2E/DX2                !
 ! R89   R(49,51)                1.5029         estimate D2E/DX2                !
 ! R90   R(49,91)                1.7995         estimate D2E/DX2                !
 ! R91   R(50,52)                1.5032         estimate D2E/DX2                !
 ! R92   R(50,92)                1.7994         estimate D2E/DX2                !
 ! R93   R(51,52)                1.3631         estimate D2E/DX2                !
 ! R94   R(51,55)                1.4157         estimate D2E/DX2                !
 ! R95   R(52,56)                1.4158         estimate D2E/DX2                !
 ! R96   R(53,55)                1.4263         estimate D2E/DX2                !
 ! R97   R(54,56)                1.4284         estimate D2E/DX2                !
 ! R98   R(55,83)                1.4148         estimate D2E/DX2                !
 ! R99   R(56,84)                1.4128         estimate D2E/DX2                !
 ! R100  R(57,59)                1.416          estimate D2E/DX2                !
 ! R101  R(57,83)                1.4126         estimate D2E/DX2                !
 ! R102  R(58,60)                1.4157         estimate D2E/DX2                !
 ! R103  R(58,84)                1.4146         estimate D2E/DX2                !
 ! R104  R(59,60)                1.3604         estimate D2E/DX2                !
 ! R105  R(59,61)                1.502          estimate D2E/DX2                !
 ! R106  R(60,62)                1.5018         estimate D2E/DX2                !
 ! R107  R(61,63)                1.5284         estimate D2E/DX2                !
 ! R108  R(61,89)                1.7969         estimate D2E/DX2                !
 ! R109  R(62,64)                1.5276         estimate D2E/DX2                !
 ! R110  R(62,90)                1.797          estimate D2E/DX2                !
 ! R111  R(63,64)                1.4031         estimate D2E/DX2                !
 ! R112  R(63,65)                1.4023         estimate D2E/DX2                !
 ! R113  R(64,66)                1.4013         estimate D2E/DX2                !
 ! R114  R(65,67)                1.4044         estimate D2E/DX2                !
 ! R115  R(66,68)                1.4032         estimate D2E/DX2                !
 ! R116  R(67,68)                1.3998         estimate D2E/DX2                !
 ! R117  R(67,69)                1.5312         estimate D2E/DX2                !
 ! R118  R(68,70)                1.526          estimate D2E/DX2                !
 ! R119  R(69,71)                1.4989         estimate D2E/DX2                !
 ! R120  R(69,86)                1.801          estimate D2E/DX2                !
 ! R121  R(70,72)                1.5021         estimate D2E/DX2                !
 ! R122  R(70,87)                1.7978         estimate D2E/DX2                !
 ! R123  R(71,72)                1.3355         estimate D2E/DX2                !
 ! R124  R(71,73)                1.504          estimate D2E/DX2                !
 ! R125  R(72,74)                1.4485         estimate D2E/DX2                !
 ! R126  R(73,75)                1.4771         estimate D2E/DX2                !
 ! R127  R(73,97)                1.8311         estimate D2E/DX2                !
 ! R128  R(74,76)                1.3786         estimate D2E/DX2                !
 ! R129  R(75,76)                1.3989         estimate D2E/DX2                !
 ! R130  R(75,77)                1.3981         estimate D2E/DX2                !
 ! R131  R(76,78)                1.5018         estimate D2E/DX2                !
 ! R132  R(77,81)                1.4491         estimate D2E/DX2                !
 ! R133  R(78,81)                1.5045         estimate D2E/DX2                !
 ! R134  R(78,98)                1.8126         estimate D2E/DX2                !
 ! R135  R(79,82)                1.4994         estimate D2E/DX2                !
 ! R136  R(79,94)                1.8133         estimate D2E/DX2                !
 ! R137  R(80,82)                1.4984         estimate D2E/DX2                !
 ! R138  R(80,96)                1.8044         estimate D2E/DX2                !
 ! R139  R(81,82)                1.3322         estimate D2E/DX2                !
 ! R140  R(83,84)                1.4302         estimate D2E/DX2                !
 ! A1    A(5,1,17)             121.555          estimate D2E/DX2                !
 ! A2    A(5,1,25)             107.8561         estimate D2E/DX2                !
 ! A3    A(17,1,25)            121.9548         estimate D2E/DX2                !
 ! A4    A(6,2,43)             101.752          estimate D2E/DX2                !
 ! A5    A(6,2,44)             109.8056         estimate D2E/DX2                !
 ! A6    A(6,2,93)             113.1739         estimate D2E/DX2                !
 ! A7    A(43,2,44)            109.2775         estimate D2E/DX2                !
 ! A8    A(43,2,93)            112.4232         estimate D2E/DX2                !
 ! A9    A(44,2,93)            110.0981         estimate D2E/DX2                !
 ! A10   A(7,3,18)             121.8805         estimate D2E/DX2                !
 ! A11   A(7,3,26)             108.1761         estimate D2E/DX2                !
 ! A12   A(18,3,26)            121.6513         estimate D2E/DX2                !
 ! A13   A(8,4,45)             109.8645         estimate D2E/DX2                !
 ! A14   A(8,4,46)             101.6748         estimate D2E/DX2                !
 ! A15   A(8,4,95)             113.1919         estimate D2E/DX2                !
 ! A16   A(45,4,46)            108.9033         estimate D2E/DX2                !
 ! A17   A(45,4,95)            110.2973         estimate D2E/DX2                !
 ! A18   A(46,4,95)            112.5585         estimate D2E/DX2                !
 ! A19   A(1,5,9)              121.866          estimate D2E/DX2                !
 ! A20   A(1,5,29)             108.5574         estimate D2E/DX2                !
 ! A21   A(9,5,29)             121.0078         estimate D2E/DX2                !
 ! A22   A(2,6,10)             122.148          estimate D2E/DX2                !
 ! A23   A(2,6,15)             110.3899         estimate D2E/DX2                !
 ! A24   A(10,6,15)            120.0433         estimate D2E/DX2                !
 ! A25   A(3,7,12)             121.7397         estimate D2E/DX2                !
 ! A26   A(3,7,30)             108.5178         estimate D2E/DX2                !
 ! A27   A(12,7,30)            120.9402         estimate D2E/DX2                !
 ! A28   A(4,8,11)             122.176          estimate D2E/DX2                !
 ! A29   A(4,8,16)             110.4354         estimate D2E/DX2                !
 ! A30   A(11,8,16)            119.8351         estimate D2E/DX2                !
 ! A31   A(5,9,13)             115.871          estimate D2E/DX2                !
 ! A32   A(5,9,35)             119.7416         estimate D2E/DX2                !
 ! A33   A(13,9,35)            119.184          estimate D2E/DX2                !
 ! A34   A(6,10,49)            122.6412         estimate D2E/DX2                !
 ! A35   A(6,10,53)            119.616          estimate D2E/DX2                !
 ! A36   A(49,10,53)           110.6289         estimate D2E/DX2                !
 ! A37   A(8,11,50)            122.5605         estimate D2E/DX2                !
 ! A38   A(8,11,54)            119.5607         estimate D2E/DX2                !
 ! A39   A(50,11,54)           110.7347         estimate D2E/DX2                !
 ! A40   A(7,12,14)            115.8767         estimate D2E/DX2                !
 ! A41   A(7,12,36)            120.335          estimate D2E/DX2                !
 ! A42   A(14,12,36)           118.5254         estimate D2E/DX2                !
 ! A43   A(9,13,15)            122.2576         estimate D2E/DX2                !
 ! A44   A(9,13,43)            121.0962         estimate D2E/DX2                !
 ! A45   A(15,13,43)           109.5535         estimate D2E/DX2                !
 ! A46   A(12,14,16)           122.3636         estimate D2E/DX2                !
 ! A47   A(12,14,46)           121.1987         estimate D2E/DX2                !
 ! A48   A(16,14,46)           109.6028         estimate D2E/DX2                !
 ! A49   A(6,15,13)            108.2574         estimate D2E/DX2                !
 ! A50   A(6,15,17)            121.7649         estimate D2E/DX2                !
 ! A51   A(13,15,17)           121.3512         estimate D2E/DX2                !
 ! A52   A(8,16,14)            107.9502         estimate D2E/DX2                !
 ! A53   A(8,16,18)            122.1464         estimate D2E/DX2                !
 ! A54   A(14,16,18)           120.9971         estimate D2E/DX2                !
 ! A55   A(1,17,15)            116.2401         estimate D2E/DX2                !
 ! A56   A(1,17,19)            118.5185         estimate D2E/DX2                !
 ! A57   A(15,17,19)           118.2611         estimate D2E/DX2                !
 ! A58   A(3,18,16)            116.2421         estimate D2E/DX2                !
 ! A59   A(3,18,20)            118.5587         estimate D2E/DX2                !
 ! A60   A(16,18,20)           118.2336         estimate D2E/DX2                !
 ! A61   A(17,19,21)           118.0598         estimate D2E/DX2                !
 ! A62   A(17,19,53)           118.3876         estimate D2E/DX2                !
 ! A63   A(21,19,53)           116.5249         estimate D2E/DX2                !
 ! A64   A(18,20,22)           118.1374         estimate D2E/DX2                !
 ! A65   A(18,20,54)           118.2654         estimate D2E/DX2                !
 ! A66   A(22,20,54)           116.544          estimate D2E/DX2                !
 ! A67   A(19,21,23)           121.7953         estimate D2E/DX2                !
 ! A68   A(19,21,57)           121.5401         estimate D2E/DX2                !
 ! A69   A(23,21,57)           108.3486         estimate D2E/DX2                !
 ! A70   A(20,22,24)           121.7571         estimate D2E/DX2                !
 ! A71   A(20,22,58)           121.5893         estimate D2E/DX2                !
 ! A72   A(24,22,58)           108.3244         estimate D2E/DX2                !
 ! A73   A(21,23,25)           119.9702         estimate D2E/DX2                !
 ! A74   A(21,23,61)           111.2494         estimate D2E/DX2                !
 ! A75   A(25,23,61)           121.1733         estimate D2E/DX2                !
 ! A76   A(22,24,26)           120.0917         estimate D2E/DX2                !
 ! A77   A(22,24,62)           111.1741         estimate D2E/DX2                !
 ! A78   A(26,24,62)           121.2459         estimate D2E/DX2                !
 ! A79   A(1,25,23)            119.6846         estimate D2E/DX2                !
 ! A80   A(1,25,27)            111.247          estimate D2E/DX2                !
 ! A81   A(23,25,27)           121.5062         estimate D2E/DX2                !
 ! A82   A(3,26,24)            119.7875         estimate D2E/DX2                !
 ! A83   A(3,26,28)            111.168          estimate D2E/DX2                !
 ! A84   A(24,26,28)           121.4958         estimate D2E/DX2                !
 ! A85   A(25,27,29)           100.812          estimate D2E/DX2                !
 ! A86   A(25,27,65)           109.926          estimate D2E/DX2                !
 ! A87   A(25,27,85)           113.6052         estimate D2E/DX2                !
 ! A88   A(29,27,65)           108.4612         estimate D2E/DX2                !
 ! A89   A(29,27,85)           114.5145         estimate D2E/DX2                !
 ! A90   A(65,27,85)           109.1832         estimate D2E/DX2                !
 ! A91   A(26,28,30)           100.8893         estimate D2E/DX2                !
 ! A92   A(26,28,66)           109.814          estimate D2E/DX2                !
 ! A93   A(26,28,88)           113.6941         estimate D2E/DX2                !
 ! A94   A(30,28,66)           108.768          estimate D2E/DX2                !
 ! A95   A(30,28,88)           114.3441         estimate D2E/DX2                !
 ! A96   A(66,28,88)           109.0217         estimate D2E/DX2                !
 ! A97   A(5,29,27)            111.4619         estimate D2E/DX2                !
 ! A98   A(5,29,31)            119.019          estimate D2E/DX2                !
 ! A99   A(27,29,31)           122.2133         estimate D2E/DX2                !
 ! A100  A(7,30,28)            111.1973         estimate D2E/DX2                !
 ! A101  A(7,30,32)            119.4251         estimate D2E/DX2                !
 ! A102  A(28,30,32)           122.0612         estimate D2E/DX2                !
 ! A103  A(29,31,33)           120.8848         estimate D2E/DX2                !
 ! A104  A(29,31,69)           120.4858         estimate D2E/DX2                !
 ! A105  A(33,31,69)           112.77           estimate D2E/DX2                !
 ! A106  A(30,32,34)           121.0022         estimate D2E/DX2                !
 ! A107  A(30,32,70)           120.6623         estimate D2E/DX2                !
 ! A108  A(34,32,70)           111.7507         estimate D2E/DX2                !
 ! A109  A(31,33,35)           121.5968         estimate D2E/DX2                !
 ! A110  A(31,33,73)           108.9891         estimate D2E/DX2                !
 ! A111  A(35,33,73)           124.6785         estimate D2E/DX2                !
 ! A112  A(32,34,36)           121.0943         estimate D2E/DX2                !
 ! A113  A(32,34,74)           108.3054         estimate D2E/DX2                !
 ! A114  A(36,34,74)           121.4942         estimate D2E/DX2                !
 ! A115  A(9,35,33)            116.8574         estimate D2E/DX2                !
 ! A116  A(9,35,37)            118.8069         estimate D2E/DX2                !
 ! A117  A(33,35,37)           119.6972         estimate D2E/DX2                !
 ! A118  A(12,36,34)           116.3959         estimate D2E/DX2                !
 ! A119  A(12,36,38)           119.2692         estimate D2E/DX2                !
 ! A120  A(34,36,38)           119.6113         estimate D2E/DX2                !
 ! A121  A(35,37,39)           119.8631         estimate D2E/DX2                !
 ! A122  A(35,37,77)           117.0567         estimate D2E/DX2                !
 ! A123  A(39,37,77)           118.0215         estimate D2E/DX2                !
 ! A124  A(36,38,42)           120.7287         estimate D2E/DX2                !
 ! A125  A(36,38,78)           119.5079         estimate D2E/DX2                !
 ! A126  A(42,38,78)           118.4639         estimate D2E/DX2                !
 ! A127  A(37,39,43)           120.0017         estimate D2E/DX2                !
 ! A128  A(37,39,79)           121.5416         estimate D2E/DX2                !
 ! A129  A(43,39,79)           116.1215         estimate D2E/DX2                !
 ! A130  A(41,40,44)           121.0445         estimate D2E/DX2                !
 ! A131  A(41,40,79)           111.3622         estimate D2E/DX2                !
 ! A132  A(44,40,79)           125.3853         estimate D2E/DX2                !
 ! A133  A(40,41,45)           120.5968         estimate D2E/DX2                !
 ! A134  A(40,41,80)           111.5427         estimate D2E/DX2                !
 ! A135  A(45,41,80)           125.6942         estimate D2E/DX2                !
 ! A136  A(38,42,46)           119.5649         estimate D2E/DX2                !
 ! A137  A(38,42,80)           122.7781         estimate D2E/DX2                !
 ! A138  A(46,42,80)           115.6168         estimate D2E/DX2                !
 ! A139  A(2,43,13)            109.2122         estimate D2E/DX2                !
 ! A140  A(2,43,39)            125.1982         estimate D2E/DX2                !
 ! A141  A(13,43,39)           120.8736         estimate D2E/DX2                !
 ! A142  A(2,44,40)            116.0201         estimate D2E/DX2                !
 ! A143  A(2,44,47)            123.7421         estimate D2E/DX2                !
 ! A144  A(40,44,47)           119.1696         estimate D2E/DX2                !
 ! A145  A(4,45,41)            115.9507         estimate D2E/DX2                !
 ! A146  A(4,45,48)            123.6752         estimate D2E/DX2                !
 ! A147  A(41,45,48)           119.2748         estimate D2E/DX2                !
 ! A148  A(4,46,14)            109.465          estimate D2E/DX2                !
 ! A149  A(4,46,42)            125.4598         estimate D2E/DX2                !
 ! A150  A(14,46,42)           120.5421         estimate D2E/DX2                !
 ! A151  A(44,47,48)           119.8747         estimate D2E/DX2                !
 ! A152  A(44,47,49)           118.8094         estimate D2E/DX2                !
 ! A153  A(48,47,49)           120.7997         estimate D2E/DX2                !
 ! A154  A(45,48,47)           119.9752         estimate D2E/DX2                !
 ! A155  A(45,48,50)           118.8874         estimate D2E/DX2                !
 ! A156  A(47,48,50)           120.6381         estimate D2E/DX2                !
 ! A157  A(10,49,47)           109.8712         estimate D2E/DX2                !
 ! A158  A(10,49,51)           101.2314         estimate D2E/DX2                !
 ! A159  A(10,49,91)           113.3066         estimate D2E/DX2                !
 ! A160  A(47,49,51)           109.8378         estimate D2E/DX2                !
 ! A161  A(47,49,91)           108.861          estimate D2E/DX2                !
 ! A162  A(51,49,91)           113.5245         estimate D2E/DX2                !
 ! A163  A(11,50,48)           109.8501         estimate D2E/DX2                !
 ! A164  A(11,50,52)           101.2139         estimate D2E/DX2                !
 ! A165  A(11,50,92)           113.2877         estimate D2E/DX2                !
 ! A166  A(48,50,52)           109.864          estimate D2E/DX2                !
 ! A167  A(48,50,92)           108.8775         estimate D2E/DX2                !
 ! A168  A(52,50,92)           113.5372         estimate D2E/DX2                !
 ! A169  A(49,51,52)           122.0074         estimate D2E/DX2                !
 ! A170  A(49,51,55)           110.8902         estimate D2E/DX2                !
 ! A171  A(52,51,55)           119.9371         estimate D2E/DX2                !
 ! A172  A(50,52,51)           122.0605         estimate D2E/DX2                !
 ! A173  A(50,52,56)           110.8818         estimate D2E/DX2                !
 ! A174  A(51,52,56)           119.8762         estimate D2E/DX2                !
 ! A175  A(10,53,19)           121.8751         estimate D2E/DX2                !
 ! A176  A(10,53,55)           108.5227         estimate D2E/DX2                !
 ! A177  A(19,53,55)           121.5853         estimate D2E/DX2                !
 ! A178  A(11,54,20)           121.9188         estimate D2E/DX2                !
 ! A179  A(11,54,56)           108.5109         estimate D2E/DX2                !
 ! A180  A(20,54,56)           121.5035         estimate D2E/DX2                !
 ! A181  A(51,55,53)           108.5154         estimate D2E/DX2                !
 ! A182  A(51,55,83)           121.6645         estimate D2E/DX2                !
 ! A183  A(53,55,83)           121.6358         estimate D2E/DX2                !
 ! A184  A(52,56,54)           108.4592         estimate D2E/DX2                !
 ! A185  A(52,56,84)           121.7308         estimate D2E/DX2                !
 ! A186  A(54,56,84)           121.6513         estimate D2E/DX2                !
 ! A187  A(21,57,59)           108.2773         estimate D2E/DX2                !
 ! A188  A(21,57,83)           121.6903         estimate D2E/DX2                !
 ! A189  A(59,57,83)           121.7715         estimate D2E/DX2                !
 ! A190  A(22,58,60)           108.3679         estimate D2E/DX2                !
 ! A191  A(22,58,84)           121.6936         estimate D2E/DX2                !
 ! A192  A(60,58,84)           121.7166         estimate D2E/DX2                !
 ! A193  A(57,59,60)           119.8858         estimate D2E/DX2                !
 ! A194  A(57,59,61)           111.2372         estimate D2E/DX2                !
 ! A195  A(60,59,61)           121.5734         estimate D2E/DX2                !
 ! A196  A(58,60,59)           119.9379         estimate D2E/DX2                !
 ! A197  A(58,60,62)           111.2255         estimate D2E/DX2                !
 ! A198  A(59,60,62)           121.5069         estimate D2E/DX2                !
 ! A199  A(23,61,59)           100.8546         estimate D2E/DX2                !
 ! A200  A(23,61,63)           109.7567         estimate D2E/DX2                !
 ! A201  A(23,61,89)           113.8778         estimate D2E/DX2                !
 ! A202  A(59,61,63)           109.8098         estimate D2E/DX2                !
 ! A203  A(59,61,89)           113.7443         estimate D2E/DX2                !
 ! A204  A(63,61,89)           108.5815         estimate D2E/DX2                !
 ! A205  A(24,62,60)           100.8716         estimate D2E/DX2                !
 ! A206  A(24,62,64)           109.7671         estimate D2E/DX2                !
 ! A207  A(24,62,90)           113.8107         estimate D2E/DX2                !
 ! A208  A(60,62,64)           109.787          estimate D2E/DX2                !
 ! A209  A(60,62,90)           113.7413         estimate D2E/DX2                !
 ! A210  A(64,62,90)           108.6424         estimate D2E/DX2                !
 ! A211  A(61,63,64)           119.9066         estimate D2E/DX2                !
 ! A212  A(61,63,65)           120.0387         estimate D2E/DX2                !
 ! A213  A(64,63,65)           119.8725         estimate D2E/DX2                !
 ! A214  A(62,64,63)           120.1169         estimate D2E/DX2                !
 ! A215  A(62,64,66)           119.9418         estimate D2E/DX2                !
 ! A216  A(63,64,66)           119.7456         estimate D2E/DX2                !
 ! A217  A(27,65,63)           119.75           estimate D2E/DX2                !
 ! A218  A(27,65,67)           119.594          estimate D2E/DX2                !
 ! A219  A(63,65,67)           120.3986         estimate D2E/DX2                !
 ! A220  A(28,66,64)           119.8849         estimate D2E/DX2                !
 ! A221  A(28,66,68)           119.5884         estimate D2E/DX2                !
 ! A222  A(64,66,68)           120.2879         estimate D2E/DX2                !
 ! A223  A(65,67,68)           119.5911         estimate D2E/DX2                !
 ! A224  A(65,67,69)           120.1234         estimate D2E/DX2                !
 ! A225  A(68,67,69)           120.0196         estimate D2E/DX2                !
 ! A226  A(66,68,67)           120.0927         estimate D2E/DX2                !
 ! A227  A(66,68,70)           119.9925         estimate D2E/DX2                !
 ! A228  A(67,68,70)           119.6674         estimate D2E/DX2                !
 ! A229  A(31,69,67)           108.1658         estimate D2E/DX2                !
 ! A230  A(31,69,71)           100.4973         estimate D2E/DX2                !
 ! A231  A(31,69,86)           114.3242         estimate D2E/DX2                !
 ! A232  A(67,69,71)           111.4672         estimate D2E/DX2                !
 ! A233  A(67,69,86)           108.4519         estimate D2E/DX2                !
 ! A234  A(71,69,86)           113.705          estimate D2E/DX2                !
 ! A235  A(32,70,68)           108.9398         estimate D2E/DX2                !
 ! A236  A(32,70,72)           101.0119         estimate D2E/DX2                !
 ! A237  A(32,70,87)           114.3268         estimate D2E/DX2                !
 ! A238  A(68,70,72)           110.6369         estimate D2E/DX2                !
 ! A239  A(68,70,87)           108.6187         estimate D2E/DX2                !
 ! A240  A(72,70,87)           113.1038         estimate D2E/DX2                !
 ! A241  A(69,71,72)           121.4175         estimate D2E/DX2                !
 ! A242  A(69,71,73)           111.8301         estimate D2E/DX2                !
 ! A243  A(72,71,73)           121.5595         estimate D2E/DX2                !
 ! A244  A(70,72,71)           122.3214         estimate D2E/DX2                !
 ! A245  A(70,72,74)           110.097          estimate D2E/DX2                !
 ! A246  A(71,72,74)           121.4603         estimate D2E/DX2                !
 ! A247  A(33,73,71)           101.4917         estimate D2E/DX2                !
 ! A248  A(33,73,75)           110.2649         estimate D2E/DX2                !
 ! A249  A(33,73,97)           110.5562         estimate D2E/DX2                !
 ! A250  A(71,73,75)           112.1117         estimate D2E/DX2                !
 ! A251  A(71,73,97)           111.4334         estimate D2E/DX2                !
 ! A252  A(75,73,97)           110.66           estimate D2E/DX2                !
 ! A253  A(34,74,72)           108.1951         estimate D2E/DX2                !
 ! A254  A(34,74,76)           120.1938         estimate D2E/DX2                !
 ! A255  A(72,74,76)           120.1168         estimate D2E/DX2                !
 ! A256  A(73,75,76)           122.3443         estimate D2E/DX2                !
 ! A257  A(73,75,77)           122.511          estimate D2E/DX2                !
 ! A258  A(76,75,77)           109.9334         estimate D2E/DX2                !
 ! A259  A(74,76,75)           119.3506         estimate D2E/DX2                !
 ! A260  A(74,76,78)           121.6139         estimate D2E/DX2                !
 ! A261  A(75,76,78)           110.8491         estimate D2E/DX2                !
 ! A262  A(37,77,75)           123.1109         estimate D2E/DX2                !
 ! A263  A(37,77,81)           120.6834         estimate D2E/DX2                !
 ! A264  A(75,77,81)           107.5812         estimate D2E/DX2                !
 ! A265  A(38,78,76)           113.2622         estimate D2E/DX2                !
 ! A266  A(38,78,81)           110.7252         estimate D2E/DX2                !
 ! A267  A(38,78,98)           108.2235         estimate D2E/DX2                !
 ! A268  A(76,78,81)           100.8668         estimate D2E/DX2                !
 ! A269  A(76,78,98)           111.8011         estimate D2E/DX2                !
 ! A270  A(81,78,98)           111.9021         estimate D2E/DX2                !
 ! A271  A(39,79,40)           109.3495         estimate D2E/DX2                !
 ! A272  A(39,79,82)           113.8202         estimate D2E/DX2                !
 ! A273  A(39,79,94)           110.1449         estimate D2E/DX2                !
 ! A274  A(40,79,82)           100.2547         estimate D2E/DX2                !
 ! A275  A(40,79,94)           111.2224         estimate D2E/DX2                !
 ! A276  A(82,79,94)           111.6828         estimate D2E/DX2                !
 ! A277  A(41,80,42)           108.5401         estimate D2E/DX2                !
 ! A278  A(41,80,82)            99.9109         estimate D2E/DX2                !
 ! A279  A(41,80,96)           111.7328         estimate D2E/DX2                !
 ! A280  A(42,80,82)           112.0992         estimate D2E/DX2                !
 ! A281  A(42,80,96)           110.5463         estimate D2E/DX2                !
 ! A282  A(82,80,96)           113.5082         estimate D2E/DX2                !
 ! A283  A(77,81,78)           110.07           estimate D2E/DX2                !
 ! A284  A(77,81,82)           122.1053         estimate D2E/DX2                !
 ! A285  A(78,81,82)           123.2265         estimate D2E/DX2                !
 ! A286  A(79,82,80)           112.3145         estimate D2E/DX2                !
 ! A287  A(79,82,81)           120.9145         estimate D2E/DX2                !
 ! A288  A(80,82,81)           121.6764         estimate D2E/DX2                !
 ! A289  A(55,83,57)           116.4566         estimate D2E/DX2                !
 ! A290  A(55,83,84)           118.3611         estimate D2E/DX2                !
 ! A291  A(57,83,84)           118.3781         estimate D2E/DX2                !
 ! A292  A(56,84,58)           116.4565         estimate D2E/DX2                !
 ! A293  A(56,84,83)           118.4254         estimate D2E/DX2                !
 ! A294  A(58,84,83)           118.3093         estimate D2E/DX2                !
 ! D1    D(17,1,5,9)            -2.6657         estimate D2E/DX2                !
 ! D2    D(17,1,5,29)         -150.7175         estimate D2E/DX2                !
 ! D3    D(25,1,5,9)           145.5844         estimate D2E/DX2                !
 ! D4    D(25,1,5,29)           -2.4675         estimate D2E/DX2                !
 ! D5    D(5,1,17,15)           -5.8682         estimate D2E/DX2                !
 ! D6    D(5,1,17,19)          144.4321         estimate D2E/DX2                !
 ! D7    D(25,1,17,15)        -149.6886         estimate D2E/DX2                !
 ! D8    D(25,1,17,19)           0.6117         estimate D2E/DX2                !
 ! D9    D(5,1,25,23)         -147.4846         estimate D2E/DX2                !
 ! D10   D(5,1,25,27)            2.6323         estimate D2E/DX2                !
 ! D11   D(17,1,25,23)           0.6119         estimate D2E/DX2                !
 ! D12   D(17,1,25,27)         150.7288         estimate D2E/DX2                !
 ! D13   D(43,2,6,10)         -141.5559         estimate D2E/DX2                !
 ! D14   D(43,2,6,15)            8.2631         estimate D2E/DX2                !
 ! D15   D(44,2,6,10)          -25.8766         estimate D2E/DX2                !
 ! D16   D(44,2,6,15)          123.9424         estimate D2E/DX2                !
 ! D17   D(93,2,6,10)           97.5896         estimate D2E/DX2                !
 ! D18   D(93,2,6,15)         -112.5913         estimate D2E/DX2                !
 ! D19   D(6,2,43,13)           -9.0234         estimate D2E/DX2                !
 ! D20   D(6,2,43,39)          146.5929         estimate D2E/DX2                !
 ! D21   D(44,2,43,13)        -125.0892         estimate D2E/DX2                !
 ! D22   D(44,2,43,39)          30.5271         estimate D2E/DX2                !
 ! D23   D(93,2,43,13)         112.3538         estimate D2E/DX2                !
 ! D24   D(93,2,43,39)         -92.0299         estimate D2E/DX2                !
 ! D25   D(6,2,44,40)         -145.1996         estimate D2E/DX2                !
 ! D26   D(6,2,44,47)           22.8507         estimate D2E/DX2                !
 ! D27   D(43,2,44,40)         -34.3879         estimate D2E/DX2                !
 ! D28   D(43,2,44,47)         133.6623         estimate D2E/DX2                !
 ! D29   D(93,2,44,40)          89.5493         estimate D2E/DX2                !
 ! D30   D(93,2,44,47)        -102.4005         estimate D2E/DX2                !
 ! D31   D(18,3,7,12)            3.2822         estimate D2E/DX2                !
 ! D32   D(18,3,7,30)          150.9275         estimate D2E/DX2                !
 ! D33   D(26,3,7,12)         -145.4366         estimate D2E/DX2                !
 ! D34   D(26,3,7,30)            2.2087         estimate D2E/DX2                !
 ! D35   D(7,3,18,16)            5.5668         estimate D2E/DX2                !
 ! D36   D(7,3,18,20)         -144.7536         estimate D2E/DX2                !
 ! D37   D(26,3,18,16)         150.1492         estimate D2E/DX2                !
 ! D38   D(26,3,18,20)          -0.1712         estimate D2E/DX2                !
 ! D39   D(7,3,26,24)          147.8126         estimate D2E/DX2                !
 ! D40   D(7,3,26,28)           -2.3209         estimate D2E/DX2                !
 ! D41   D(18,3,26,24)          -0.9922         estimate D2E/DX2                !
 ! D42   D(18,3,26,28)        -151.1258         estimate D2E/DX2                !
 ! D43   D(45,4,8,11)           25.7664         estimate D2E/DX2                !
 ! D44   D(45,4,8,16)         -123.7387         estimate D2E/DX2                !
 ! D45   D(46,4,8,11)          141.0058         estimate D2E/DX2                !
 ! D46   D(46,4,8,16)           -8.4994         estimate D2E/DX2                !
 ! D47   D(95,4,8,11)          -98.017          estimate D2E/DX2                !
 ! D48   D(95,4,8,16)          112.4779         estimate D2E/DX2                !
 ! D49   D(8,4,45,41)          145.2353         estimate D2E/DX2                !
 ! D50   D(8,4,45,48)          -22.6568         estimate D2E/DX2                !
 ! D51   D(46,4,45,41)          34.6778         estimate D2E/DX2                !
 ! D52   D(46,4,45,48)        -133.2143         estimate D2E/DX2                !
 ! D53   D(95,4,45,41)         -89.3087         estimate D2E/DX2                !
 ! D54   D(95,4,45,48)         102.7992         estimate D2E/DX2                !
 ! D55   D(8,4,46,14)            9.2103         estimate D2E/DX2                !
 ! D56   D(8,4,46,42)         -146.7738         estimate D2E/DX2                !
 ! D57   D(45,4,46,14)         125.1557         estimate D2E/DX2                !
 ! D58   D(45,4,46,42)         -30.8284         estimate D2E/DX2                !
 ! D59   D(95,4,46,14)        -112.2082         estimate D2E/DX2                !
 ! D60   D(95,4,46,42)          91.8076         estimate D2E/DX2                !
 ! D61   D(1,5,9,13)             7.8464         estimate D2E/DX2                !
 ! D62   D(1,5,9,35)          -146.473          estimate D2E/DX2                !
 ! D63   D(29,5,9,13)          152.0239         estimate D2E/DX2                !
 ! D64   D(29,5,9,35)           -2.2955         estimate D2E/DX2                !
 ! D65   D(1,5,29,27)            1.4151         estimate D2E/DX2                !
 ! D66   D(1,5,29,31)          152.2376         estimate D2E/DX2                !
 ! D67   D(9,5,29,27)         -146.9619         estimate D2E/DX2                !
 ! D68   D(9,5,29,31)            3.8607         estimate D2E/DX2                !
 ! D69   D(2,6,10,49)           -0.4265         estimate D2E/DX2                !
 ! D70   D(2,6,10,53)          147.2862         estimate D2E/DX2                !
 ! D71   D(15,6,10,49)        -147.4448         estimate D2E/DX2                !
 ! D72   D(15,6,10,53)           0.2679         estimate D2E/DX2                !
 ! D73   D(2,6,15,13)           -4.6807         estimate D2E/DX2                !
 ! D74   D(2,6,15,17)         -152.7452         estimate D2E/DX2                !
 ! D75   D(10,6,15,13)         145.8659         estimate D2E/DX2                !
 ! D76   D(10,6,15,17)          -2.1986         estimate D2E/DX2                !
 ! D77   D(3,7,12,14)           -8.049          estimate D2E/DX2                !
 ! D78   D(3,7,12,36)          145.9535         estimate D2E/DX2                !
 ! D79   D(30,7,12,14)        -151.7756         estimate D2E/DX2                !
 ! D80   D(30,7,12,36)           2.2269         estimate D2E/DX2                !
 ! D81   D(3,7,30,28)           -1.3051         estimate D2E/DX2                !
 ! D82   D(3,7,30,32)         -152.0463         estimate D2E/DX2                !
 ! D83   D(12,7,30,28)         146.6468         estimate D2E/DX2                !
 ! D84   D(12,7,30,32)          -4.0944         estimate D2E/DX2                !
 ! D85   D(4,8,11,50)            0.5188         estimate D2E/DX2                !
 ! D86   D(4,8,11,54)         -147.1637         estimate D2E/DX2                !
 ! D87   D(16,8,11,50)         147.2766         estimate D2E/DX2                !
 ! D88   D(16,8,11,54)          -0.4059         estimate D2E/DX2                !
 ! D89   D(4,8,16,14)            4.9185         estimate D2E/DX2                !
 ! D90   D(4,8,16,18)          152.3714         estimate D2E/DX2                !
 ! D91   D(11,8,16,14)        -145.4019         estimate D2E/DX2                !
 ! D92   D(11,8,16,18)           2.0509         estimate D2E/DX2                !
 ! D93   D(5,9,13,15)           -4.6536         estimate D2E/DX2                !
 ! D94   D(5,9,13,43)         -152.0967         estimate D2E/DX2                !
 ! D95   D(35,9,13,15)         149.8168         estimate D2E/DX2                !
 ! D96   D(35,9,13,43)           2.3737         estimate D2E/DX2                !
 ! D97   D(5,9,35,33)           -4.9436         estimate D2E/DX2                !
 ! D98   D(5,9,35,37)          150.8694         estimate D2E/DX2                !
 ! D99   D(13,9,35,33)        -158.4168         estimate D2E/DX2                !
 ! D100  D(13,9,35,37)          -2.6037         estimate D2E/DX2                !
 ! D101  D(6,10,49,47)          29.6649         estimate D2E/DX2                !
 ! D102  D(6,10,49,51)         145.747          estimate D2E/DX2                !
 ! D103  D(6,10,49,91)         -92.3395         estimate D2E/DX2                !
 ! D104  D(53,10,49,47)       -120.5865         estimate D2E/DX2                !
 ! D105  D(53,10,49,51)         -4.5044         estimate D2E/DX2                !
 ! D106  D(53,10,49,91)        117.4091         estimate D2E/DX2                !
 ! D107  D(6,10,53,19)           1.1626         estimate D2E/DX2                !
 ! D108  D(6,10,53,55)        -148.0206         estimate D2E/DX2                !
 ! D109  D(49,10,53,19)        152.4369         estimate D2E/DX2                !
 ! D110  D(49,10,53,55)          3.2536         estimate D2E/DX2                !
 ! D111  D(8,11,50,48)         -29.7308         estimate D2E/DX2                !
 ! D112  D(8,11,50,52)        -145.8256         estimate D2E/DX2                !
 ! D113  D(8,11,50,92)          92.2663         estimate D2E/DX2                !
 ! D114  D(54,11,50,48)        120.4524         estimate D2E/DX2                !
 ! D115  D(54,11,50,52)          4.3577         estimate D2E/DX2                !
 ! D116  D(54,11,50,92)       -117.5504         estimate D2E/DX2                !
 ! D117  D(8,11,54,20)          -0.9644         estimate D2E/DX2                !
 ! D118  D(8,11,54,56)         148.1033         estimate D2E/DX2                !
 ! D119  D(50,11,54,20)       -152.1622         estimate D2E/DX2                !
 ! D120  D(50,11,54,56)         -3.0945         estimate D2E/DX2                !
 ! D121  D(7,12,14,16)           4.2185         estimate D2E/DX2                !
 ! D122  D(7,12,14,46)         152.2275         estimate D2E/DX2                !
 ! D123  D(36,12,14,16)       -150.2765         estimate D2E/DX2                !
 ! D124  D(36,12,14,46)         -2.2676         estimate D2E/DX2                !
 ! D125  D(7,12,36,34)           4.8379         estimate D2E/DX2                !
 ! D126  D(7,12,36,38)        -150.74           estimate D2E/DX2                !
 ! D127  D(14,12,36,34)        158.1665         estimate D2E/DX2                !
 ! D128  D(14,12,36,38)          2.5886         estimate D2E/DX2                !
 ! D129  D(9,13,15,6)         -152.1244         estimate D2E/DX2                !
 ! D130  D(9,13,15,17)          -3.902          estimate D2E/DX2                !
 ! D131  D(43,13,15,6)          -1.3999         estimate D2E/DX2                !
 ! D132  D(43,13,15,17)        146.8225         estimate D2E/DX2                !
 ! D133  D(9,13,43,2)          157.9583         estimate D2E/DX2                !
 ! D134  D(9,13,43,39)           1.1032         estimate D2E/DX2                !
 ! D135  D(15,13,43,2)           6.8353         estimate D2E/DX2                !
 ! D136  D(15,13,43,39)       -150.0198         estimate D2E/DX2                !
 ! D137  D(12,14,16,8)         152.5243         estimate D2E/DX2                !
 ! D138  D(12,14,16,18)          4.6245         estimate D2E/DX2                !
 ! D139  D(46,14,16,8)           1.2781         estimate D2E/DX2                !
 ! D140  D(46,14,16,18)       -146.6217         estimate D2E/DX2                !
 ! D141  D(12,14,46,4)        -158.5219         estimate D2E/DX2                !
 ! D142  D(12,14,46,42)         -1.1598         estimate D2E/DX2                !
 ! D143  D(16,14,46,4)          -6.8829         estimate D2E/DX2                !
 ! D144  D(16,14,46,42)        150.4792         estimate D2E/DX2                !
 ! D145  D(6,15,17,1)          153.0098         estimate D2E/DX2                !
 ! D146  D(6,15,17,19)           2.6303         estimate D2E/DX2                !
 ! D147  D(13,15,17,1)           9.0405         estimate D2E/DX2                !
 ! D148  D(13,15,17,19)       -141.339          estimate D2E/DX2                !
 ! D149  D(8,16,18,3)         -152.6705         estimate D2E/DX2                !
 ! D150  D(8,16,18,20)          -2.2502         estimate D2E/DX2                !
 ! D151  D(14,16,18,3)          -9.331          estimate D2E/DX2                !
 ! D152  D(14,16,18,20)        141.0894         estimate D2E/DX2                !
 ! D153  D(1,17,19,21)          -1.1845         estimate D2E/DX2                !
 ! D154  D(1,17,19,53)        -150.8752         estimate D2E/DX2                !
 ! D155  D(15,17,19,21)        148.5147         estimate D2E/DX2                !
 ! D156  D(15,17,19,53)         -1.176          estimate D2E/DX2                !
 ! D157  D(3,18,20,22)           0.9333         estimate D2E/DX2                !
 ! D158  D(3,18,20,54)         150.5795         estimate D2E/DX2                !
 ! D159  D(16,18,20,22)       -148.7957         estimate D2E/DX2                !
 ! D160  D(16,18,20,54)          0.8505         estimate D2E/DX2                !
 ! D161  D(17,19,21,23)          0.6134         estimate D2E/DX2                !
 ! D162  D(17,19,21,57)       -143.9796         estimate D2E/DX2                !
 ! D163  D(53,19,21,23)        150.8636         estimate D2E/DX2                !
 ! D164  D(53,19,21,57)          6.2705         estimate D2E/DX2                !
 ! D165  D(17,19,53,10)         -0.6794         estimate D2E/DX2                !
 ! D166  D(17,19,53,55)        144.5544         estimate D2E/DX2                !
 ! D167  D(21,19,53,10)       -150.8288         estimate D2E/DX2                !
 ! D168  D(21,19,53,55)         -5.595          estimate D2E/DX2                !
 ! D169  D(18,20,22,24)         -0.6024         estimate D2E/DX2                !
 ! D170  D(18,20,22,58)        143.9572         estimate D2E/DX2                !
 ! D171  D(54,20,22,24)       -150.7659         estimate D2E/DX2                !
 ! D172  D(54,20,22,58)         -6.2063         estimate D2E/DX2                !
 ! D173  D(18,20,54,11)          0.7222         estimate D2E/DX2                !
 ! D174  D(18,20,54,56)       -144.4093         estimate D2E/DX2                !
 ! D175  D(22,20,54,11)        150.8463         estimate D2E/DX2                !
 ! D176  D(22,20,54,56)          5.7147         estimate D2E/DX2                !
 ! D177  D(19,21,23,25)          0.6073         estimate D2E/DX2                !
 ! D178  D(19,21,23,61)       -149.3162         estimate D2E/DX2                !
 ! D179  D(57,21,23,25)        149.2589         estimate D2E/DX2                !
 ! D180  D(57,21,23,61)         -0.6646         estimate D2E/DX2                !
 ! D181  D(19,21,57,59)        148.1989         estimate D2E/DX2                !
 ! D182  D(19,21,57,83)         -0.625          estimate D2E/DX2                !
 ! D183  D(23,21,57,59)         -0.5484         estimate D2E/DX2                !
 ! D184  D(23,21,57,83)       -149.3723         estimate D2E/DX2                !
 ! D185  D(20,22,24,26)         -0.555          estimate D2E/DX2                !
 ! D186  D(20,22,24,62)        149.601          estimate D2E/DX2                !
 ! D187  D(58,22,24,26)       -149.2012         estimate D2E/DX2                !
 ! D188  D(58,22,24,62)          0.9548         estimate D2E/DX2                !
 ! D189  D(20,22,58,60)       -148.3968         estimate D2E/DX2                !
 ! D190  D(20,22,58,84)          0.4785         estimate D2E/DX2                !
 ! D191  D(24,22,58,60)          0.3124         estimate D2E/DX2                !
 ! D192  D(24,22,58,84)        149.1877         estimate D2E/DX2                !
 ! D193  D(21,23,25,1)          -1.2103         estimate D2E/DX2                !
 ! D194  D(21,23,25,27)       -148.2091         estimate D2E/DX2                !
 ! D195  D(61,23,25,1)         145.7028         estimate D2E/DX2                !
 ! D196  D(61,23,25,27)         -1.296          estimate D2E/DX2                !
 ! D197  D(21,23,61,59)          1.4906         estimate D2E/DX2                !
 ! D198  D(21,23,61,63)        117.3093         estimate D2E/DX2                !
 ! D199  D(21,23,61,89)       -120.7346         estimate D2E/DX2                !
 ! D200  D(25,23,61,59)       -148.0178         estimate D2E/DX2                !
 ! D201  D(25,23,61,63)        -32.1991         estimate D2E/DX2                !
 ! D202  D(25,23,61,89)         89.757          estimate D2E/DX2                !
 ! D203  D(22,24,26,3)           1.3386         estimate D2E/DX2                !
 ! D204  D(22,24,26,28)        148.3404         estimate D2E/DX2                !
 ! D205  D(62,24,26,3)        -145.7888         estimate D2E/DX2                !
 ! D206  D(62,24,26,28)          1.213          estimate D2E/DX2                !
 ! D207  D(22,24,62,60)         -1.7081         estimate D2E/DX2                !
 ! D208  D(22,24,62,64)       -117.5134         estimate D2E/DX2                !
 ! D209  D(22,24,62,90)        120.4905         estimate D2E/DX2                !
 ! D210  D(26,24,62,60)        148.0521         estimate D2E/DX2                !
 ! D211  D(26,24,62,64)         32.2467         estimate D2E/DX2                !
 ! D212  D(26,24,62,90)        -89.7493         estimate D2E/DX2                !
 ! D213  D(1,25,27,29)          -1.6989         estimate D2E/DX2                !
 ! D214  D(1,25,27,65)        -116.0385         estimate D2E/DX2                !
 ! D215  D(1,25,27,85)         121.2884         estimate D2E/DX2                !
 ! D216  D(23,25,27,29)        147.7912         estimate D2E/DX2                !
 ! D217  D(23,25,27,65)         33.4515         estimate D2E/DX2                !
 ! D218  D(23,25,27,85)        -89.2216         estimate D2E/DX2                !
 ! D219  D(3,26,28,30)           1.4538         estimate D2E/DX2                !
 ! D220  D(3,26,28,66)         116.1348         estimate D2E/DX2                !
 ! D221  D(3,26,28,88)        -121.4234         estimate D2E/DX2                !
 ! D222  D(24,26,28,30)       -148.0916         estimate D2E/DX2                !
 ! D223  D(24,26,28,66)        -33.4106         estimate D2E/DX2                !
 ! D224  D(24,26,28,88)         89.0312         estimate D2E/DX2                !
 ! D225  D(25,27,29,5)           0.1422         estimate D2E/DX2                !
 ! D226  D(25,27,29,31)       -149.6011         estimate D2E/DX2                !
 ! D227  D(65,27,29,5)         115.581          estimate D2E/DX2                !
 ! D228  D(65,27,29,31)        -34.1624         estimate D2E/DX2                !
 ! D229  D(85,27,29,5)        -122.2119         estimate D2E/DX2                !
 ! D230  D(85,27,29,31)         88.0447         estimate D2E/DX2                !
 ! D231  D(25,27,65,63)        -31.2697         estimate D2E/DX2                !
 ! D232  D(25,27,65,67)        142.9255         estimate D2E/DX2                !
 ! D233  D(29,27,65,63)       -140.6222         estimate D2E/DX2                !
 ! D234  D(29,27,65,67)         33.5731         estimate D2E/DX2                !
 ! D235  D(85,27,65,63)         93.9765         estimate D2E/DX2                !
 ! D236  D(85,27,65,67)        -91.8282         estimate D2E/DX2                !
 ! D237  D(26,28,30,7)          -0.0708         estimate D2E/DX2                !
 ! D238  D(26,28,30,32)        149.7757         estimate D2E/DX2                !
 ! D239  D(66,28,30,7)        -115.5344         estimate D2E/DX2                !
 ! D240  D(66,28,30,32)         34.3121         estimate D2E/DX2                !
 ! D241  D(88,28,30,7)         122.3544         estimate D2E/DX2                !
 ! D242  D(88,28,30,32)        -87.7991         estimate D2E/DX2                !
 ! D243  D(26,28,66,64)         31.4522         estimate D2E/DX2                !
 ! D244  D(26,28,66,68)       -142.9517         estimate D2E/DX2                !
 ! D245  D(30,28,66,64)        140.9947         estimate D2E/DX2                !
 ! D246  D(30,28,66,68)        -33.4092         estimate D2E/DX2                !
 ! D247  D(88,28,66,64)        -93.7193         estimate D2E/DX2                !
 ! D248  D(88,28,66,68)         91.8768         estimate D2E/DX2                !
 ! D249  D(5,29,31,33)           2.0312         estimate D2E/DX2                !
 ! D250  D(5,29,31,69)        -149.0676         estimate D2E/DX2                !
 ! D251  D(27,29,31,33)        149.6019         estimate D2E/DX2                !
 ! D252  D(27,29,31,69)         -1.4968         estimate D2E/DX2                !
 ! D253  D(7,30,32,34)          -1.425          estimate D2E/DX2                !
 ! D254  D(7,30,32,70)         147.7637         estimate D2E/DX2                !
 ! D255  D(28,30,32,34)       -148.8981         estimate D2E/DX2                !
 ! D256  D(28,30,32,70)          0.2905         estimate D2E/DX2                !
 ! D257  D(29,31,33,35)         -9.7384         estimate D2E/DX2                !
 ! D258  D(29,31,33,73)       -166.3906         estimate D2E/DX2                !
 ! D259  D(69,31,33,35)        143.4095         estimate D2E/DX2                !
 ! D260  D(69,31,33,73)        -13.2428         estimate D2E/DX2                !
 ! D261  D(29,31,69,67)         36.4617         estimate D2E/DX2                !
 ! D262  D(29,31,69,71)        153.3673         estimate D2E/DX2                !
 ! D263  D(29,31,69,86)        -84.461          estimate D2E/DX2                !
 ! D264  D(33,31,69,67)       -116.8057         estimate D2E/DX2                !
 ! D265  D(33,31,69,71)          0.0998         estimate D2E/DX2                !
 ! D266  D(33,31,69,86)        122.2715         estimate D2E/DX2                !
 ! D267  D(30,32,34,36)          8.8976         estimate D2E/DX2                !
 ! D268  D(30,32,34,74)        156.2608         estimate D2E/DX2                !
 ! D269  D(70,32,34,36)       -142.7839         estimate D2E/DX2                !
 ! D270  D(70,32,34,74)          4.5793         estimate D2E/DX2                !
 ! D271  D(30,32,70,68)        -34.9165         estimate D2E/DX2                !
 ! D272  D(30,32,70,72)       -151.4284         estimate D2E/DX2                !
 ! D273  D(30,32,70,87)         86.7899         estimate D2E/DX2                !
 ! D274  D(34,32,70,68)        116.8741         estimate D2E/DX2                !
 ! D275  D(34,32,70,72)          0.3622         estimate D2E/DX2                !
 ! D276  D(34,32,70,87)       -121.4195         estimate D2E/DX2                !
 ! D277  D(31,33,35,9)          10.9223         estimate D2E/DX2                !
[...]
 Alpha virt. eigenvalues --    1.49110   1.49419   1.50262   1.50848   1.51631
 Alpha virt. eigenvalues --    1.52284   1.52481   1.53033   1.53462   1.54292
 Alpha virt. eigenvalues --    1.54507   1.55572   1.55870   1.56558   1.57207
 Alpha virt. eigenvalues --    1.57675   1.57940   1.58598   1.59539   1.59892
 Alpha virt. eigenvalues --    1.60175   1.60484   1.60981   1.61489   1.61615
 Alpha virt. eigenvalues --    1.62083   1.62758   1.62886   1.63114   1.63415
 Alpha virt. eigenvalues --    1.63597   1.63981   1.64266   1.64387   1.64629
 Alpha virt. eigenvalues --    1.64774   1.64921   1.65176   1.65531   1.65639
 Alpha virt. eigenvalues --    1.66018   1.66248   1.66460   1.66690   1.66806
 Alpha virt. eigenvalues --    1.67037   1.67178   1.67728   1.67921   1.67988
 Alpha virt. eigenvalues --    1.68058   1.68276   1.68534   1.68616   1.68789
 Alpha virt. eigenvalues --    1.69104   1.69572   1.69611   1.70080   1.70183
 Alpha virt. eigenvalues --    1.70389   1.70735   1.71001   1.71222   1.71367
 Alpha virt. eigenvalues --    1.71722   1.71910   1.72152   1.72425   1.72837
 Alpha virt. eigenvalues --    1.73015   1.73569   1.73723   1.74052   1.74332
 Alpha virt. eigenvalues --    1.74490   1.74677   1.74989   1.75323   1.75420
 Alpha virt. eigenvalues --    1.75814   1.75878   1.75961   1.76659   1.76821
 Alpha virt. eigenvalues --    1.76856   1.76951   1.77026   1.77111   1.77687
 Alpha virt. eigenvalues --    1.77951   1.77969   1.78164   1.78358   1.78541
 Alpha virt. eigenvalues --    1.78707   1.78783   1.78926   1.79399   1.79556
 Alpha virt. eigenvalues --    1.79730   1.79881   1.80047   1.80299   1.80447
 Alpha virt. eigenvalues --    1.80976   1.81148   1.81368   1.81788   1.81838
 Alpha virt. eigenvalues --    1.82000   1.82663   1.82848   1.83026   1.83275
 Alpha virt. eigenvalues --    1.83582   1.84057   1.84444   1.84633   1.84758
 Alpha virt. eigenvalues --    1.85168   1.85761   1.86028   1.86321   1.86633
 Alpha virt. eigenvalues --    1.86828   1.87265   1.87505   1.87708   1.87926
 Alpha virt. eigenvalues --    1.88177   1.88398   1.88684   1.88970   1.89352
 Alpha virt. eigenvalues --    1.89737   1.90074   1.90224   1.90986   1.91359
 Alpha virt. eigenvalues --    1.91573   1.92140   1.92805   1.93288   1.93466
 Alpha virt. eigenvalues --    1.93815   1.94095   1.94410   1.94870   1.95093
 Alpha virt. eigenvalues --    1.95644   1.95718   1.96111   1.96403   1.96561
 Alpha virt. eigenvalues --    1.96808   1.97164   1.97619   1.97913   1.98429
 Alpha virt. eigenvalues --    1.98803   1.99095   1.99714   1.99859   2.00301
 Alpha virt. eigenvalues --    2.00415   2.00773   2.01303   2.01376   2.01877
 Alpha virt. eigenvalues --    2.01916   2.02088   2.02629   2.02762   2.02878
 Alpha virt. eigenvalues --    2.03187   2.03429   2.04294   2.04343   2.04822
 Alpha virt. eigenvalues --    2.05156   2.06250   2.06334   2.06937   2.07107
 Alpha virt. eigenvalues --    2.07538   2.07995   2.08123   2.08447   2.08550
 Alpha virt. eigenvalues --    2.09548   2.09624   2.09852   2.10150   2.10448
 Alpha virt. eigenvalues --    2.11109   2.11488   2.12052   2.12291   2.12533
 Alpha virt. eigenvalues --    2.12815   2.13179   2.13438   2.13860   2.14330
 Alpha virt. eigenvalues --    2.14439   2.14756   2.15599   2.15853   2.16332
 Alpha virt. eigenvalues --    2.16552   2.16759   2.17598   2.17635   2.17850
 Alpha virt. eigenvalues --    2.18360   2.18595   2.19320   2.19432   2.19883
 Alpha virt. eigenvalues --    2.20280   2.20607   2.21110   2.21567   2.21778
 Alpha virt. eigenvalues --    2.22439   2.22844   2.23405   2.23802   2.24275
 Alpha virt. eigenvalues --    2.24450   2.24819   2.25326   2.25710   2.25895
 Alpha virt. eigenvalues --    2.26415   2.26687   2.26965   2.27271   2.27835
 Alpha virt. eigenvalues --    2.28071   2.28590   2.29398   2.29434   2.29861
 Alpha virt. eigenvalues --    2.30437   2.30707   2.31405   2.31921   2.32313
 Alpha virt. eigenvalues --    2.33529   2.33611   2.33973   2.34730   2.35092
 Alpha virt. eigenvalues --    2.35142   2.35776   2.36506   2.36822   2.37375
 Alpha virt. eigenvalues --    2.37825   2.38461   2.38970   2.39137   2.39849
 Alpha virt. eigenvalues --    2.40089   2.40524   2.41023   2.41264   2.41752
 Alpha virt. eigenvalues --    2.41997   2.42529   2.42908   2.43584   2.44296
 Alpha virt. eigenvalues --    2.44955   2.45387   2.45782   2.46054   2.46927
 Alpha virt. eigenvalues --    2.47525   2.47783   2.48692   2.49360   2.49561
 Alpha virt. eigenvalues --    2.50057   2.50481   2.50568   2.51482   2.51928
 Alpha virt. eigenvalues --    2.52187   2.52268   2.52802   2.53274   2.54027
 Alpha virt. eigenvalues --    2.54180   2.54378   2.54520   2.55224   2.55544
 Alpha virt. eigenvalues --    2.55947   2.56064   2.56486   2.56747   2.56976
 Alpha virt. eigenvalues --    2.57192   2.57655   2.58227   2.58465   2.58746
 Alpha virt. eigenvalues --    2.59037   2.59136   2.59603   2.59699   2.60529
 Alpha virt. eigenvalues --    2.60800   2.61307   2.61680   2.62285   2.62549
 Alpha virt. eigenvalues --    2.62739   2.63033   2.63183   2.63924   2.64075
 Alpha virt. eigenvalues --    2.64534   2.64652   2.65192   2.65497   2.65813
 Alpha virt. eigenvalues --    2.66392   2.66711   2.67126   2.67475   2.67854
 Alpha virt. eigenvalues --    2.68100   2.68861   2.69285   2.69326   2.69792
 Alpha virt. eigenvalues --    2.70020   2.70280   2.70380   2.70988   2.71076
 Alpha virt. eigenvalues --    2.71598   2.71720   2.71937   2.72423   2.72751
 Alpha virt. eigenvalues --    2.73196   2.73920   2.74062   2.74318   2.74516
 Alpha virt. eigenvalues --    2.74754   2.74973   2.75732   2.76097   2.76452
 Alpha virt. eigenvalues --    2.76719   2.77184   2.77467   2.78092   2.78310
 Alpha virt. eigenvalues --    2.79133   2.79436   2.80062   2.80396   2.80607
 Alpha virt. eigenvalues --    2.81401   2.81606   2.82085   2.82915   2.83799
 Alpha virt. eigenvalues --    2.84178   2.84553   2.85252   2.85996   2.86458
 Alpha virt. eigenvalues --    2.87212   2.87680   2.88218   2.88427   2.88680
 Alpha virt. eigenvalues --    2.89271   2.89554   2.89882   2.90267   2.90980
 Alpha virt. eigenvalues --    2.91482   2.91776   2.92534   2.92758   2.93172
 Alpha virt. eigenvalues --    2.93821   2.94666   2.94806   2.95711   2.96505
 Alpha virt. eigenvalues --    2.96996   2.98173   2.98514   2.99311   3.00673
 Alpha virt. eigenvalues --    3.01131   3.03072   3.05020   3.06313   3.07946
 Alpha virt. eigenvalues --    3.08502   3.09943   3.10340   3.11139   3.12699
 Alpha virt. eigenvalues --    3.13360   3.14134   3.17655   3.18254   3.18688
 Alpha virt. eigenvalues --    3.19883   3.20695   3.22037   3.23749   3.24691
 Alpha virt. eigenvalues --    3.25471   3.26970   3.27287   3.31782   3.31906
 Alpha virt. eigenvalues --    3.34244   3.35019   3.38292   3.41278   3.41935
 Alpha virt. eigenvalues --    3.45675   3.46517   3.47283   3.48799   3.52496
 Alpha virt. eigenvalues --    3.53824   3.69923   4.00612   4.01630   4.01812
 Alpha virt. eigenvalues --    4.02080   4.02846   4.03030   4.03596   4.04609
 Alpha virt. eigenvalues --    4.06459   4.06770   4.07560   4.07984   4.08601
 Alpha virt. eigenvalues --    4.09197   4.09755   4.10688   4.10871   4.11834
 Alpha virt. eigenvalues --    4.12122   4.12603   4.14602   4.15151   4.16076
 Alpha virt. eigenvalues --    4.16650   4.17260   4.18441   4.18919   4.19264
 Alpha virt. eigenvalues --    4.19987   4.20701   4.21024   4.21783   4.22745
 Alpha virt. eigenvalues --    4.24455   4.24729   4.25125   4.25775   4.26107
 Alpha virt. eigenvalues --    4.26629   4.26735   4.26871   4.27841   4.27903
 Alpha virt. eigenvalues --    4.28820   4.29415   4.29815   4.30036   4.31113
 Alpha virt. eigenvalues --    4.32381   4.33467   4.33866   4.35354   4.36148
 Alpha virt. eigenvalues --    4.37163   4.38471   4.39120   4.39187   4.40981
 Alpha virt. eigenvalues --    4.41748   4.42170   4.42326   4.43676   4.43870
 Alpha virt. eigenvalues --    4.44999   4.46419   4.48228   4.48961   4.50158
 Alpha virt. eigenvalues --    4.51343   4.52833   4.55501   4.56571   4.57654
 Alpha virt. eigenvalues --    4.58226   4.58961   4.60156   4.60907   4.63299
 Alpha virt. eigenvalues --    4.65771   4.66565   4.67913   4.72198   4.76117
 Alpha virt. eigenvalues --    4.79679   4.79777   4.81598   4.84418   4.85404
 Alpha virt. eigenvalues --    4.88288   4.90980   4.92840   4.95095   5.02527
 Alpha virt. eigenvalues --    5.03300   5.04916   5.10117   5.14312   5.27130
          Condensed to atoms (all electrons):
 Mulliken charges:
               1
     1  C    0.005612
     2  C   -0.390139
     3  C    0.008034
     4  C   -0.389741
     5  C    0.011121
     6  C    0.089225
     7  C    0.008772
     8  C    0.090302
     9  C    0.041818
    10  C    0.089910
    11  C    0.091421
    12  C    0.041952
    13  C    0.007141
    14  C    0.009064
    15  C    0.011478
    16  C    0.010705
    17  C    0.041674
    18  C    0.044537
    19  C    0.047689
    20  C    0.044842
    21  C    0.008900
    22  C    0.009047
    23  C    0.089844
    24  C    0.088302
    25  C    0.090618
    26  C    0.090203
    27  C   -0.379412
    28  C   -0.379230
    29  C    0.078636
    30  C    0.084654
    31  C    0.133487
    32  C    0.098882
    33  C    0.063155
    34  C   -0.008347
    35  C    0.059458
    36  C    0.063721
    37  C    0.034539
    38  C    0.090291
    39  C    0.122494
    40  C    0.118203
    41  C    0.114837
    42  C    0.157747
    43  C    0.077506
    44  C    0.147459
    45  C    0.145317
    46  C    0.078654
    47  C    0.122774
    48  C    0.122426
    49  C   -0.382488
    50  C   -0.382504
    51  C    0.089259
    52  C    0.089582
    53  C    0.007200
    54  C    0.009095
    55  C    0.009434
    56  C    0.008556
    57  C    0.008231
    58  C    0.008035
    59  C    0.089058
    60  C    0.089706
    61  C   -0.376863
    62  C   -0.377158
    63  C    0.123002
    64  C    0.122926
    65  C    0.131867
    66  C    0.129722
    67  C    0.123034
    68  C    0.123373
    69  C   -0.357205
    70  C   -0.377069
    71  C    0.154667
    72  C    0.105441
    73  C   -0.333324
    74  C    0.016934
    75  C    0.118281
    76  C    0.088038
    77  C    0.006189
    78  C   -0.365786
    79  C   -0.360638
    80  C   -0.370181
    81  C    0.112490
    82  C    0.155833
    83  C    0.043709
    84  C    0.046752
    85  Cl   0.029226
    86  Cl   0.017854
    87  Cl   0.021822
    88  Cl   0.029591
    89  Cl   0.027487
    90  Cl   0.027131
    91  Cl   0.022908
    92  Cl   0.023570
    93  Cl   0.027659
    94  Cl   0.002687
    95  Cl   0.029174
    96  Cl   0.017460
    97  Cl  -0.040204
    98  Cl  -0.003144
 Sum of Mulliken charges =  -0.00000
 Mulliken charges with hydrogens summed into heavy atoms:
               1
     1  C    0.005612
     2  C   -0.390139
     3  C    0.008034
     4  C   -0.389741
     5  C    0.011121
     6  C    0.089225
     7  C    0.008772
     8  C    0.090302
     9  C    0.041818
    10  C    0.089910
    11  C    0.091421
    12  C    0.041952
    13  C    0.007141
    14  C    0.009064
    15  C    0.011478
    16  C    0.010705
    17  C    0.041674
    18  C    0.044537
    19  C    0.047689
    20  C    0.044842
    21  C    0.008900
    22  C    0.009047
    23  C    0.089844
    24  C    0.088302
    25  C    0.090618
    26  C    0.090203
    27  C   -0.379412
    28  C   -0.379230
    29  C    0.078636
    30  C    0.084654
    31  C    0.133487
    32  C    0.098882
    33  C    0.063155
    34  C   -0.008347
    35  C    0.059458
    36  C    0.063721
    37  C    0.034539
    38  C    0.090291
    39  C    0.122494
    40  C    0.118203
    41  C    0.114837
    42  C    0.157747
    43  C    0.077506
    44  C    0.147459
    45  C    0.145317
    46  C    0.078654
    47  C    0.122774
    48  C    0.122426
    49  C   -0.382488
    50  C   -0.382504
    51  C    0.089259
    52  C    0.089582
    53  C    0.007200
    54  C    0.009095
    55  C    0.009434
    56  C    0.008556
    57  C    0.008231
    58  C    0.008035
    59  C    0.089058
    60  C    0.089706
    61  C   -0.376863
    62  C   -0.377158
    63  C    0.123002
    64  C    0.122926
    65  C    0.131867
    66  C    0.129722
    67  C    0.123034
    68  C    0.123373
    69  C   -0.357205
    70  C   -0.377069
    71  C    0.154667
    72  C    0.105441
    73  C   -0.333324
    74  C    0.016934
    75  C    0.118281
    76  C    0.088038
    77  C    0.006189
    78  C   -0.365786
    79  C   -0.360638
    80  C   -0.370181
    81  C    0.112490
    82  C    0.155833
    83  C    0.043709
    84  C    0.046752
    85  Cl   0.029226
    86  Cl   0.017854
    87  Cl   0.021822
    88  Cl   0.029591
    89  Cl   0.027487
    90  Cl   0.027131
    91  Cl   0.022908
    92  Cl   0.023570
    93  Cl   0.027659
    94  Cl   0.002687
    95  Cl   0.029174
    96  Cl   0.017460
    97  Cl  -0.040204
    98  Cl  -0.003144
 Electronic spatial extent (au):  <R**2>=          66752.6069
 Charge=              0.0000 electrons
 Dipole moment (field-independent basis, Debye):
    X=             -0.6460    Y=             -5.9436    Z=             -0.6489  Tot=              6.0137
 Quadrupole moment (field-independent basis, Debye-Ang):
   XX=           -701.1536   YY=           -660.8445   ZZ=           -633.8495
   XY=              1.6540   XZ=              0.1546   YZ=             -2.4377
 Traceless Quadrupole moment (field-independent basis, Debye-Ang):
   XX=            -35.8711   YY=              4.4380   ZZ=             31.4330
   XY=              1.6540   XZ=              0.1546   YZ=             -2.4377
 Octapole moment (field-independent basis, Debye-Ang**2):
  XXX=              7.9335  YYY=           -123.4519  ZZZ=             -6.1554  XYY=            -11.8665
  XXY=             -4.0688  XXZ=            -10.4164  XZZ=              2.3315  YZZ=            -10.7933
  YYZ=            -12.0769  XYZ=            -21.2403
 Hexadecapole moment (field-independent basis, Debye-Ang**3):
 XXXX=         -39437.4216 YYYY=         -30531.9431 ZZZZ=         -23920.7895 XXXY=           -106.4266
 XXXZ=            -19.4126 YYYX=            -89.6310 YYYZ=            -58.6418 ZZZX=             48.3219
 ZZZY=            -16.1053 XXYY=         -11924.2720 XXZZ=         -10791.7368 YYZZ=          -9052.4449
 XXYZ=            -35.9408 YYXZ=            -79.8222 ZZXY=            -11.4245
 N-N= 2.605472262804D+04 E-N=-7.481372515011D+04  KE= 9.594197665033D+03
 No NMR shielding tensors so no spin-rotation constants.
 Leave Link  601 at Tue Jun 28 23:43:21 2022, MaxMem=  1342177280 cpu:              27.4 elap:               1.4
 (Enter /home/mkliu/g16/l9999.exe)
 1\1\GINC-NODE04\FOpt\RB3LYP\6-31G(d,p)\C84Cl14\MKLIU\28-Jun-2022\0\\#P
  opt b3lyp/6-31G(d, p) empiricaldispersion=GD3\\force\\0,1\C,8.2649953
 77,18.9001530213,10.5662088789\C,12.4864723766,19.9946636197,8.9206665
 21\C,8.2716273038,26.8441554531,10.5491463035\C,12.498226315,25.767761
 6259,8.9295788306\C,7.9401292098,18.9648055682,9.1604966142\C,11.88401
 58282,19.5453531422,10.2335969888\C,7.9545394176,26.7900262511,9.15327
 31851\C,11.8961084674,26.2157886174,10.2443143136\C,8.9478415492,19.13
 748832,8.1685835308\C,12.1559239727,20.1789836791,11.4143868724\C,12.1
 616885326,25.57256469,11.4249833375\C,8.9661630435,26.6155532716,8.165
 1425979\C,10.287900199,19.0749824288,8.6225058157\C,10.3032637619,26.6
 77472705,8.6220628449\C,10.6172110231,18.9487363024,10.01324527\C,10.6
 31088924,26.8070979747,10.0279206275\C,9.6054141362,18.9582763497,11.0
 190994626\C,9.6180301033,26.7930505392,11.0181665708\C,9.8820929236,19
 .6410627632,12.2599601106\C,9.8873042872,26.1115403415,12.2610048859\C
 ,8.7901033783,20.2442804493,12.9492676997\C,8.7939320727,25.5103742067
 ,12.9467450905\C,7.4636177096,20.170129175,12.4518310375\C,7.467846540
 6,25.580890668,12.4391940234\C,7.206283993,19.5039829723,11.2884048716
 \C,7.2102364446,26.2436417388,11.2759640443\C,6.0905021522,19.93129327
 97,10.3549577094\C,6.0984317607,25.8108129621,10.3417468413\C,6.667159
 4777,19.5385084892,9.0130610422\C,6.6762189943,26.2025920603,8.9981865
 893\C,6.3763345299,20.2260992455,7.8631558755\C,6.3773132015,25.522701
 9026,7.8569798901\C,7.3096371293,20.3187341296,6.8173731886\C,7.320857
 9078,25.4089209054,6.7994932395\C,8.6464942172,19.8818316361,6.9756778
 346\C,8.6827829897,25.8658574385,6.9707074806\C,9.7245769545,20.599787
 7251,6.2965813441\C,9.7438912404,25.1664779263,6.318132514\C,11.052872
 8747,20.5569245249,6.843140606\C,12.6820026144,22.1867507534,7.7909532
 942\C,12.6846515934,23.5776804776,7.7898754359\C,11.0568120683,25.2006
 336474,6.8421105205\C,11.3203801143,19.7725809478,7.9491455208\C,12.84
 5960642,21.4688778003,8.9718337175\C,12.8488057952,24.291845047,8.9748
 205242\C,11.330458312,25.9895241258,7.960803598\C,13.0583566357,22.168
 2942185,10.1787453841\C,13.059236123,23.5874012417,10.1807395962\C,13.
 0757802154,21.3871194707,11.4979732833\C,13.0799149698,24.3623939907,1
 1.5036229854\C,12.4154184374,22.1899309927,12.6027031872\C,12.41845668
 89,23.5568808428,12.6054528027\C,11.1590688087,20.2457955176,12.428394
 891\C,11.1652747275,25.5067874205,12.4335194395\C,11.3166928471,21.476
 0050028,13.1513112913\C,11.3184284702,24.2703542857,13.1532871329\C,8.
 9461271985,21.4821815913,13.6614404659\C,8.946410901,24.2731899934,13.
 6557781518\C,7.719875481,22.1967567972,13.5946970454\C,7.7193646262,23
 .5601098744,13.5941407797\C,6.6690717736,21.3995358583,12.8473426567\C
 ,6.6710296287,24.3540748585,12.841209247\C,6.1990992047,22.1663973276,
 11.5914541016\C,6.2013365,23.5811588469,11.5899178571\C,5.9012540201,2
 1.4612367232,10.4029839662\C,5.9094951818,24.2810484095,10.3985325071\
 C,5.5903604939,22.1637875722,9.2132953465\C,5.5990805105,23.5734011399
 ,9.2139289139\C,5.4197311604,21.3948382602,7.8784981658\C,5.4402834665
 ,24.3341685778,7.8816398586\C,5.919627912,22.1839393377,6.6973970604\C
 ,5.964700322,23.5228237649,6.7170444102\C,6.8784640204,21.3810541414,5
 .8539887472\C,7.0099908684,24.2629456309,6.0244318185\C,8.0430152838,2
 2.1829829754,5.397000179\C,8.0128289481,23.5851829794,5.3564133252\C,9
 .3647925442,21.7203627369,5.50418415\C,9.412944936,24.1408376805,5.242
 6799841\C,12.073645823,21.6353872032,6.5136258249\C,12.0900301493,24.1
 340314656,6.5018635744\C,10.2415406239,22.8808543067,5.4167535835\C,11
 .4719191182,22.8869171726,5.9330130998\C,10.1977053154,22.1539582977,1
 3.7176562408\C,10.1998781444,23.5968850274,13.7168002704\Cl,4.51644423
 16,19.0745578514,10.7508361439\Cl,3.6540811363,20.8884116615,7.6965431
 18\Cl,3.6769550719,24.8029872927,7.6446067868\Cl,4.5192887085,26.66610
 91651,10.7181594004\Cl,5.2268545838,20.9921913864,13.9090752301\Cl,5.2
 282126159,24.7750072256,13.8972642714\Cl,14.8035471087,20.9151296253,1
 1.9165232763\Cl,14.8073155818,24.8358069332,11.9210564885\Cl,13.957038
 2197,18.9804879948,8.4824273138\Cl,13.3869227919,20.9475235687,5.38841
 97669\Cl,13.9705838293,26.7785414565,8.4927708185\Cl,13.4006436251,24.
 8390891856,5.4039041874\Cl,6.0277279025,20.6065260589,4.3517338883\Cl,
 9.6942913762,24.9116749564,3.5741666693\\Version=ES64L-G16RevA.03\Stat
 e=1-A\HF=-9643.8217139\RMSD=4.595e-09\RMSF=4.839e-05\Dipole=0.6048526,
 0.2952192,2.2682174\Quadrupole=-25.3944845,23.2083491,2.1861354,-2.692
 8808,5.9218613,-1.5765752\PG=C01 [X(C84Cl14)]\\@


 Some scientists claim that hydrogen, because it is so
 plentiful, is the basic building block of the universe. 
 I dispute that. I say that stupidity is far more
 abundant than hydrogen, and THAT is the basic building 
 block of the universe.
                   --Frank Zappa
 Job cpu time:       1 days 16 hours 26 minutes 31.5 seconds.
 Elapsed time:       0 days  1 hours 41 minutes 15.2 seconds.
 File lengths (MBytes):  RWF=   1429 Int=      0 D2E=      0 Chk=    179 Scr=      1
 Normal termination of Gaussian 16 at Tue Jun 28 23:43:23 2022.
