 Entering Gaussian System, Link 0=g16
 Input=14_addons_C84_14_Cl22_rank_3.gjf
 Output=14_addons_C84_14_Cl22_rank_3.log
 Initial command:
 /home/mkliu/g16/l1.exe "/data/scratch/Gau-220142.inp" -scrdir="/data/scratch/"
 Entering Link 1 = /home/mkliu/g16/l1.exe PID=    220143.
  
 Copyright (c) 1988,1990,1992,1993,1995,1998,2003,2009,2016,
            Gaussian, Inc.  All Rights Reserved.
  
 This is part of the Gaussian(R) 16 program.  It is based on
 the Gaussian(R) 09 system (copyright 2009, Gaussian, Inc.),
 the Gaussian(R) 03 system (copyright 2003, Gaussian, Inc.),
 the Gaussian(R) 98 system (copyright 1998, Gaussian, Inc.),
 the Gaussian(R) 94 system (copyright 1995, Gaussian, Inc.),
 the Gaussian 92(TM) system (copyright 1992, Gaussian, Inc.),
 the Gaussian 90(TM) system (copyright 1990, Gaussian, Inc.),
 the Gaussian 88(TM) system (copyright 1988, Gaussian, Inc.),
 the Gaussian 86(TM) system (copyright 1986, Carnegie Mellon
 University), and the Gaussian 82(TM) system (copyright 1983,
 Carnegie Mellon University). Gaussian is a federally registered
 trademark of Gaussian, Inc.
  
 This software contains proprietary and confidential information,
 including trade secrets, belonging to Gaussian, Inc.
  
 This software is provided under written license and may be
 used, copied, transmitted, or stored only in accord with that
 written license.
  
 The following legend is applicable only to US Government
 contracts under FAR:
  
                    RESTRICTED RIGHTS LEGEND
  
 Use, reproduction and disclosure by the US Government is
 subject to restrictions as set forth in subparagraphs (a)
 and (c) of the Commercial Computer Software - Restricted
 Rights clause in FAR 52.227-19.
  
 Gaussian, Inc.
 340 Quinnipiac St., Bldg. 40, Wallingford CT 06492
  
  
 ---------------------------------------------------------------
 Warning -- This program may not be used in any manner that
 competes with the business of Gaussian, Inc. or will provide
 assistance to any competitor of Gaussian, Inc.  The licensee
 of this program is prohibited from giving any competitor of
 Gaussian, Inc. access to this program.  By using this program,
 the user acknowledges that Gaussian, Inc. is engaged in the
 business of creating and licensing software in the field of
 computational chemistry and represents and warrants to the
 licensee that it is not a competitor of Gaussian, Inc. and that
 it will not use this program in any manner prohibited above.
 ---------------------------------------------------------------
  

 Cite this work as:
 Gaussian 16, Revision A.03,
 M. J. Frisch, G. W. Trucks, H. B. Schlegel, G. E. Scuseria, 
 M. A. Robb, J. R. Cheeseman, G. Scalmani, V. Barone, 
 G. A. Petersson, H. Nakatsuji, X. Li, M. Caricato, A. V. Marenich, 
 J. Bloino, B. G. Janesko, R. Gomperts, B. Mennucci, H. P. Hratchian, 
 J. V. Ortiz, A. F. Izmaylov, J. L. Sonnenberg, D. Williams-Young, 
 F. Ding, F. Lipparini, F. Egidi, J. Goings, B. Peng, A. Petrone, 
 T. Henderson, D. Ranasinghe, V. G. Zakrzewski, J. Gao, N. Rega, 
 G. Zheng, W. Liang, M. Hada, M. Ehara, K. Toyota, R. Fukuda, 
 J. Hasegawa, M. Ishida, T. Nakajima, Y. Honda, O. Kitao, H. Nakai, 
 T. Vreven, K. Throssell, J. A. Montgomery, Jr., J. E. Peralta, 
 F. Ogliaro, M. J. Bearpark, J. J. Heyd, E. N. Brothers, K. N. Kudin, 
 V. N. Staroverov, T. A. Keith, R. Kobayashi, J. Normand, 
 K. Raghavachari, A. P. Rendell, J. C. Burant, S. S. Iyengar, 
 J. Tomasi, M. Cossi, J. M. Millam, M. Klene, C. Adamo, R. Cammi, 
 J. W. Ochterski, R. L. Martin, K. Morokuma, O. Farkas, 
 J. B. Foresman, and D. J. Fox, Gaussian, Inc., Wallingford CT, 2016.
 
 ******************************************
 Gaussian 16:  ES64L-G16RevA.03 25-Dec-2016
                27-Jun-2022 
 ******************************************
 %mem=10GB
 %chk=14_addons_C84_14_Cl22_rank_3.chk
 %nprocshared=24
 Will use up to   24 processors via shared memory.
 ------------------------------------------------
 #P opt b3lyp/6-31G(d, p) empiricaldispersion=GD3
 ------------------------------------------------
 1/18=20,19=15,26=3,38=1/1,3;
 2/9=110,12=2,17=6,18=5,40=1/2;
 3/5=1,6=6,7=101,11=2,25=1,30=1,71=1,74=-5,124=31/1,2,3;
 4//1;
 5/5=2,38=5/2;
 6/7=2,8=2,9=2,10=2,28=1/1;
 7//1,2,3,16;
 1/18=20,19=15,26=3/3(2);
 2/9=110/2;
 99//99;
 2/9=110/2;
 3/5=1,6=6,7=101,11=2,25=1,30=1,71=1,74=-5,124=31/1,2,3;
 4/5=5,16=3,69=1/1;
 5/5=2,38=5/2;
 7//1,2,3,16;
 1/18=20,19=15,26=3/3(-5);
 2/9=110/2;
 6/7=2,8=2,9=2,10=2,19=2,28=1/1;
 99/9=1/99;
 Leave Link    1 at Mon Jun 27 13:55:27 2022, MaxMem=  1342177280 cpu:               0.9 elap:               0.1
 (Enter /home/mkliu/g16/l101.exe)
 -----
 force
 -----
 Symbolic Z-matrix:
 Charge =  0 Multiplicity = 1
 C                     8.22057   18.65785   10.59292 
 C                     12.48288   20.01339   8.90998 
 C                     8.27008   26.84112   10.52711 
 C                     12.48391   25.75319   8.90975 
 C                     7.95258   18.97086   9.1482 
 C                     11.87807   19.58749   10.21206 
 C                     7.95531   26.79382   9.1429 
 C                     11.88289   26.19029   10.21205 
 C                     8.94776   19.15787   8.17829 
 C                     12.13939   20.22649   11.37943 
 C                     12.14228   25.55053   11.38176 
 C                     8.95602   26.6184   8.16004 
 C                     10.29233   19.0915   8.62411 
 C                     10.28693   26.66809   8.62026 
 C                     10.60593   18.99582   10.0051 
 C                     10.60788   26.78639   9.99378 
 C                     9.61893   19.0043   11.01068 
 C                     9.60247   26.78046   10.98832 
 C                     9.88082   19.66265   12.20174 
 C                     9.87039   26.10105   12.21777 
 C                     8.76982   20.08362   13.12292 
 C                     8.7884    25.50706   12.89899 
 C                     7.4607    20.18785   12.39394 
 C                     7.46125   25.572    12.40036 
 C                     7.20895   19.53778   11.27062 
 C                     7.20126   26.24016   11.2478 
 C                     6.11995   19.9806   10.33623 
 C                     6.09669   25.81321   10.32593 
 C                     6.7094    19.59057   9.02119 
 C                     6.66932   26.20941   8.99796 
 C                     6.38707   20.25478   7.87281 
 C                     6.36889   25.54146   7.86204 
 C                     7.33511   20.35504   6.83446 
 C                     7.33266   25.43227   6.81775 
 C                     8.66526   19.90433   6.99439 
 C                     8.66522   25.87739   6.97409 
 C                     9.72376   20.62088   6.32471 
 C                     9.72491   25.15198   6.31464 
 C                     11.05893   20.57859   6.85809 
 C                     12.66187   22.18909   7.79763 
 C                     12.66268   23.57679   7.797 
 C                     11.06236   25.18822   6.85716 
 C                     11.31791   19.8042   7.96003 
 C                     12.82457   21.48015   8.97273 
 C                     12.82514   24.28656   8.97144 
 C                     11.32482   25.95924   7.95235 
 C                     13.03592   22.18173   10.1696 
 C                     13.03558   23.586    10.16887 
 C                     13.06469   21.40767   11.47806 
 C                     13.06191   24.36076   11.47589 
 C                     12.39346   22.20121   12.56398 
 C                     12.39634   23.56257   12.56078 
 C                     11.13322   20.28308   12.38087 
 C                     11.13692   25.48854   12.38929 
 C                     11.29976   21.48737   13.1149 
 C                     11.28697   24.26925   13.09903 
 C                     8.94204   21.49036   13.61928 
 C                     8.93977   24.26643   13.59058 
 C                     7.73969   22.19298   13.50128 
 C                     7.72318   23.56159   13.51654 
 C                     6.68731   21.41783   12.77515 
 C                     6.67541   24.35153   12.79045 
 C                     6.24159   22.19073   11.53977 
 C                     6.23974   23.59322   11.54081 
 C                     5.95172   21.49427   10.36274 
 C                     5.94905   24.29195   10.36145 
 C                     5.64309   22.19237   9.18422 
 C                     5.6424    23.59346   9.1836 
 C                     5.44061   21.42105   7.88125 
 C                     5.43408   24.36326   7.87672 
 C                     5.94874   22.21479   6.71087 
 C                     5.94759   23.57016   6.70985 
 C                     7.01323   21.50832   6.06247 
 C                     7.01537   24.2769   6.0629 
 C                     8.03288   22.1736   5.40771 
 C                     8.03569   23.60436   5.40613 
 C                     9.37731   21.71067   5.51209 
 C                     9.37789   24.06011   5.51014 
 C                     12.07818   21.63724   6.52261 
 C                     12.08055   24.127    6.52022 
 C                     10.23027   22.88271   5.4593 
 C                     11.484    22.88195   5.9428 
 C                     10.17171   22.16031   13.6642 
 C                     10.17679   23.59081   13.65343 
 Cl                    4.53878   19.20283   10.70019 
 Cl                    3.70524   20.9658   7.74706 
 Cl                    3.69459   24.7999   7.74481 
 Cl                    4.5096    26.56283   10.705 
 Cl                    5.23812   21.04913   13.77944 
 Cl                    5.22006   24.70908   13.78445 
 Cl                    14.76623   20.96448   11.856 
 Cl                    14.76514   24.80612   11.85628 
 Cl                    13.93189   19.05709   8.44118 
 Cl                    13.93597   26.70943   8.44141 
 Cl                    7.91721   16.89796   10.94038 
 Cl                    13.38019   24.83018   5.462 
 Cl                    8.66435   18.90985   14.50786 
 Cl                    13.37926   20.92933   5.46435 
 
 ITRead=  0  0  0  0  0  0  0  0  0  0  0  0  0  0  0  0  0  0  0  0
 ITRead=  0  0  0  0  0  0  0  0  0  0  0  0  0  0  0  0  0  0  0  0
 ITRead=  0  0  0  0  0  0  0  0  0  0  0  0  0  0  0  0  0  0  0  0
 ITRead=  0  0  0  0  0  0  0  0  0  0  0  0  0  0  0  0  0  0  0  0
 ITRead=  0  0  0  0  0  0  0  0  0  0  0  0  0  0  0  0  0  0
 MicOpt= -1 -1 -1 -1 -1 -1 -1 -1 -1 -1 -1 -1 -1 -1 -1 -1 -1 -1 -1 -1
 MicOpt= -1 -1 -1 -1 -1 -1 -1 -1 -1 -1 -1 -1 -1 -1 -1 -1 -1 -1 -1 -1
 MicOpt= -1 -1 -1 -1 -1 -1 -1 -1 -1 -1 -1 -1 -1 -1 -1 -1 -1 -1 -1 -1
 MicOpt= -1 -1 -1 -1 -1 -1 -1 -1 -1 -1 -1 -1 -1 -1 -1 -1 -1 -1 -1 -1
 MicOpt= -1 -1 -1 -1 -1 -1 -1 -1 -1 -1 -1 -1 -1 -1 -1 -1 -1 -1
 NAtoms=     98 NQM=       98 NQMF=       0 NMMI=      0 NMMIF=      0
                NMic=       0 NMicF=      0.
                    Isotopes and Nuclear Properties:
 (Nuclear quadrupole moments (NQMom) in fm**2, nuclear magnetic moments (NMagM)
  in nuclear magnetons)

  Atom         1           2           3           4           5           6           7           8           9          10
 IAtWgt=          12          12          12          12          12          12          12          12          12          12
 AtmWgt=  12.0000000  12.0000000  12.0000000  12.0000000  12.0000000  12.0000000  12.0000000  12.0000000  12.0000000  12.0000000
 NucSpn=           0           0           0           0           0           0           0           0           0           0
 AtZEff=  -0.0000000  -0.0000000  -0.0000000  -0.0000000  -0.0000000  -0.0000000  -0.0000000  -0.0000000  -0.0000000  -0.0000000
 NQMom=    0.0000000   0.0000000   0.0000000   0.0000000   0.0000000   0.0000000   0.0000000   0.0000000   0.0000000   0.0000000
 NMagM=    0.0000000   0.0000000   0.0000000   0.0000000   0.0000000   0.0000000   0.0000000   0.0000000   0.0000000   0.0000000
 AtZNuc=   6.0000000   6.0000000   6.0000000   6.0000000   6.0000000   6.0000000   6.0000000   6.0000000   6.0000000   6.0000000

  Atom        11          12          13          14          15          16          17          18          19          20
 IAtWgt=          12          12          12          12          12          12          12          12          12          12
 AtmWgt=  12.0000000  12.0000000  12.0000000  12.0000000  12.0000000  12.0000000  12.0000000  12.0000000  12.0000000  12.0000000
 NucSpn=           0           0           0           0           0           0           0           0           0           0
 AtZEff=  -0.0000000  -0.0000000  -0.0000000  -0.0000000  -0.0000000  -0.0000000  -0.0000000  -0.0000000  -0.0000000  -0.0000000
 NQMom=    0.0000000   0.0000000   0.0000000   0.0000000   0.0000000   0.0000000   0.0000000   0.0000000   0.0000000   0.0000000
 NMagM=    0.0000000   0.0000000   0.0000000   0.0000000   0.0000000   0.0000000   0.0000000   0.0000000   0.0000000   0.0000000
 AtZNuc=   6.0000000   6.0000000   6.0000000   6.0000000   6.0000000   6.0000000   6.0000000   6.0000000   6.0000000   6.0000000

  Atom        21          22          23          24          25          26          27          28          29          30
 IAtWgt=          12          12          12          12          12          12          12          12          12          12
 AtmWgt=  12.0000000  12.0000000  12.0000000  12.0000000  12.0000000  12.0000000  12.0000000  12.0000000  12.0000000  12.0000000
 NucSpn=           0           0           0           0           0           0           0           0           0           0
 AtZEff=  -0.0000000  -0.0000000  -0.0000000  -0.0000000  -0.0000000  -0.0000000  -0.0000000  -0.0000000  -0.0000000  -0.0000000
 NQMom=    0.0000000   0.0000000   0.0000000   0.0000000   0.0000000   0.0000000   0.0000000   0.0000000   0.0000000   0.0000000
 NMagM=    0.0000000   0.0000000   0.0000000   0.0000000   0.0000000   0.0000000   0.0000000   0.0000000   0.0000000   0.0000000
 AtZNuc=   6.0000000   6.0000000   6.0000000   6.0000000   6.0000000   6.0000000   6.0000000   6.0000000   6.0000000   6.0000000

  Atom        31          32          33          34          35          36          37          38          39          40
 IAtWgt=          12          12          12          12          12          12          12          12          12          12
 AtmWgt=  12.0000000  12.0000000  12.0000000  12.0000000  12.0000000  12.0000000  12.0000000  12.0000000  12.0000000  12.0000000
 NucSpn=           0           0           0           0           0           0           0           0           0           0
 AtZEff=  -0.0000000  -0.0000000  -0.0000000  -0.0000000  -0.0000000  -0.0000000  -0.0000000  -0.0000000  -0.0000000  -0.0000000
 NQMom=    0.0000000   0.0000000   0.0000000   0.0000000   0.0000000   0.0000000   0.0000000   0.0000000   0.0000000   0.0000000
 NMagM=    0.0000000   0.0000000   0.0000000   0.0000000   0.0000000   0.0000000   0.0000000   0.0000000   0.0000000   0.0000000
 AtZNuc=   6.0000000   6.0000000   6.0000000   6.0000000   6.0000000   6.0000000   6.0000000   6.0000000   6.0000000   6.0000000

  Atom        41          42          43          44          45          46          47          48          49          50
 IAtWgt=          12          12          12          12          12          12          12          12          12          12
 AtmWgt=  12.0000000  12.0000000  12.0000000  12.0000000  12.0000000  12.0000000  12.0000000  12.0000000  12.0000000  12.0000000
 NucSpn=           0           0           0           0           0           0           0           0           0           0
 AtZEff=  -0.0000000  -0.0000000  -0.0000000  -0.0000000  -0.0000000  -0.0000000  -0.0000000  -0.0000000  -0.0000000  -0.0000000
 NQMom=    0.0000000   0.0000000   0.0000000   0.0000000   0.0000000   0.0000000   0.0000000   0.0000000   0.0000000   0.0000000
 NMagM=    0.0000000   0.0000000   0.0000000   0.0000000   0.0000000   0.0000000   0.0000000   0.0000000   0.0000000   0.0000000
 AtZNuc=   6.0000000   6.0000000   6.0000000   6.0000000   6.0000000   6.0000000   6.0000000   6.0000000   6.0000000   6.0000000

  Atom        51          52          53          54          55          56          57          58          59          60
 IAtWgt=          12          12          12          12          12          12          12          12          12          12
 AtmWgt=  12.0000000  12.0000000  12.0000000  12.0000000  12.0000000  12.0000000  12.0000000  12.0000000  12.0000000  12.0000000
 NucSpn=           0           0           0           0           0           0           0           0           0           0
 AtZEff=  -0.0000000  -0.0000000  -0.0000000  -0.0000000  -0.0000000  -0.0000000  -0.0000000  -0.0000000  -0.0000000  -0.0000000
 NQMom=    0.0000000   0.0000000   0.0000000   0.0000000   0.0000000   0.0000000   0.0000000   0.0000000   0.0000000   0.0000000
 NMagM=    0.0000000   0.0000000   0.0000000   0.0000000   0.0000000   0.0000000   0.0000000   0.0000000   0.0000000   0.0000000
 AtZNuc=   6.0000000   6.0000000   6.0000000   6.0000000   6.0000000   6.0000000   6.0000000   6.0000000   6.0000000   6.0000000

  Atom        61          62          63          64          65          66          67          68          69          70
 IAtWgt=          12          12          12          12          12          12          12          12          12          12
 AtmWgt=  12.0000000  12.0000000  12.0000000  12.0000000  12.0000000  12.0000000  12.0000000  12.0000000  12.0000000  12.0000000
 NucSpn=           0           0           0           0           0           0           0           0           0           0
 AtZEff=  -0.0000000  -0.0000000  -0.0000000  -0.0000000  -0.0000000  -0.0000000  -0.0000000  -0.0000000  -0.0000000  -0.0000000
 NQMom=    0.0000000   0.0000000   0.0000000   0.0000000   0.0000000   0.0000000   0.0000000   0.0000000   0.0000000   0.0000000
 NMagM=    0.0000000   0.0000000   0.0000000   0.0000000   0.0000000   0.0000000   0.0000000   0.0000000   0.0000000   0.0000000
 AtZNuc=   6.0000000   6.0000000   6.0000000   6.0000000   6.0000000   6.0000000   6.0000000   6.0000000   6.0000000   6.0000000

  Atom        71          72          73          74          75          76          77          78          79          80
 IAtWgt=          12          12          12          12          12          12          12          12          12          12
 AtmWgt=  12.0000000  12.0000000  12.0000000  12.0000000  12.0000000  12.0000000  12.0000000  12.0000000  12.0000000  12.0000000
 NucSpn=           0           0           0           0           0           0           0           0           0           0
 AtZEff=  -0.0000000  -0.0000000  -0.0000000  -0.0000000  -0.0000000  -0.0000000  -0.0000000  -0.0000000  -0.0000000  -0.0000000
 NQMom=    0.0000000   0.0000000   0.0000000   0.0000000   0.0000000   0.0000000   0.0000000   0.0000000   0.0000000   0.0000000
 NMagM=    0.0000000   0.0000000   0.0000000   0.0000000   0.0000000   0.0000000   0.0000000   0.0000000   0.0000000   0.0000000
 AtZNuc=   6.0000000   6.0000000   6.0000000   6.0000000   6.0000000   6.0000000   6.0000000   6.0000000   6.0000000   6.0000000

  Atom        81          82          83          84          85          86          87          88          89          90
 IAtWgt=          12          12          12          12          35          35          35          35          35          35
 AtmWgt=  12.0000000  12.0000000  12.0000000  12.0000000  34.9688527  34.9688527  34.9688527  34.9688527  34.9688527  34.9688527
 NucSpn=           0           0           0           0           3           3           3           3           3           3
 AtZEff=  -0.0000000  -0.0000000  -0.0000000  -0.0000000  -0.0000000  -0.0000000  -0.0000000  -0.0000000  -0.0000000  -0.0000000
 NQMom=    0.0000000   0.0000000   0.0000000   0.0000000  -8.1650000  -8.1650000  -8.1650000  -8.1650000  -8.1650000  -8.1650000
 NMagM=    0.0000000   0.0000000   0.0000000   0.0000000   0.8218740   0.8218740   0.8218740   0.8218740   0.8218740   0.8218740
 AtZNuc=   6.0000000   6.0000000   6.0000000   6.0000000  17.0000000  17.0000000  17.0000000  17.0000000  17.0000000  17.0000000

  Atom        91          92          93          94          95          96          97          98
 IAtWgt=          35          35          35          35          35          35          35          35
 AtmWgt=  34.9688527  34.9688527  34.9688527  34.9688527  34.9688527  34.9688527  34.9688527  34.9688527
 NucSpn=           3           3           3           3           3           3           3           3
 AtZEff=  -0.0000000  -0.0000000  -0.0000000  -0.0000000  -0.0000000  -0.0000000  -0.0000000  -0.0000000
 NQMom=   -8.1650000  -8.1650000  -8.1650000  -8.1650000  -8.1650000  -8.1650000  -8.1650000  -8.1650000
 NMagM=    0.8218740   0.8218740   0.8218740   0.8218740   0.8218740   0.8218740   0.8218740   0.8218740
 AtZNuc=  17.0000000  17.0000000  17.0000000  17.0000000  17.0000000  17.0000000  17.0000000  17.0000000
 Leave Link  101 at Mon Jun 27 13:55:27 2022, MaxMem=  1342177280 cpu:               6.6 elap:               0.3
 (Enter /home/mkliu/g16/l103.exe)

 GradGradGradGradGradGradGradGradGradGradGradGradGradGradGradGradGradGrad
 Berny optimization.
 Initialization pass.
                           ----------------------------
                           !    Initial Parameters    !
                           ! (Angstroms and Degrees)  !
 --------------------------                            --------------------------
 ! Name  Definition              Value          Derivative Info.                !
 --------------------------------------------------------------------------------
 ! R1    R(1,5)                  1.5023         estimate D2E/DX2                !
 ! R2    R(1,17)                 1.5            estimate D2E/DX2                !
 ! R3    R(1,25)                 1.5023         estimate D2E/DX2                !
 ! R4    R(1,95)                 1.8193         estimate D2E/DX2                !
 ! R5    R(2,6)                  1.4975         estimate D2E/DX2                !
 ! R6    R(2,43)                 1.5177         estimate D2E/DX2                !
 ! R7    R(2,44)                 1.5073         estimate D2E/DX2                !
 ! R8    R(2,93)                 1.7983         estimate D2E/DX2                !
 ! R9    R(3,7)                  1.4203         estimate D2E/DX2                !
 ! R10   R(3,18)                 1.4113         estimate D2E/DX2                !
 ! R11   R(3,26)                 1.4223         estimate D2E/DX2                !
 ! R12   R(4,8)                  1.4994         estimate D2E/DX2                !
 ! R13   R(4,45)                 1.5071         estimate D2E/DX2                !
 ! R14   R(4,46)                 1.5174         estimate D2E/DX2                !
 ! R15   R(4,94)                 1.8006         estimate D2E/DX2                !
 ! R16   R(5,9)                  1.4022         estimate D2E/DX2                !
 ! R17   R(5,29)                 1.3949         estimate D2E/DX2                !
 ! R18   R(6,10)                 1.3562         estimate D2E/DX2                !
 ! R19   R(6,15)                 1.4182         estimate D2E/DX2                !
 ! R20   R(7,12)                 1.4136         estimate D2E/DX2                !
 ! R21   R(7,30)                 1.42           estimate D2E/DX2                !
 ! R22   R(8,11)                 1.3582         estimate D2E/DX2                !
 ! R23   R(8,16)                 1.4243         estimate D2E/DX2                !
 ! R24   R(9,13)                 1.4181         estimate D2E/DX2                !
 ! R25   R(9,35)                 1.4278         estimate D2E/DX2                !
 ! R26   R(10,49)                1.5037         estimate D2E/DX2                !
 ! R27   R(10,53)                1.4207         estimate D2E/DX2                !
 ! R28   R(11,50)                1.5067         estimate D2E/DX2                !
 ! R29   R(11,54)                1.4247         estimate D2E/DX2                !
 ! R30   R(12,14)                1.4091         estimate D2E/DX2                !
 ! R31   R(12,36)                1.4283         estimate D2E/DX2                !
 ! R32   R(13,15)                1.4194         estimate D2E/DX2                !
 ! R33   R(13,43)                1.4145         estimate D2E/DX2                !
 ! R34   R(14,16)                1.4155         estimate D2E/DX2                !
 ! R35   R(14,46)                1.4233         estimate D2E/DX2                !
 ! R36   R(15,17)                1.4091         estimate D2E/DX2                !
 ! R37   R(16,18)                1.4142         estimate D2E/DX2                !
 ! R38   R(17,19)                1.3859         estimate D2E/DX2                !
 ! R39   R(18,20)                1.43           estimate D2E/DX2                !
 ! R40   R(19,21)                1.5034         estimate D2E/DX2                !
 ! R41   R(19,53)                1.4091         estimate D2E/DX2                !
 ! R42   R(20,22)                1.4098         estimate D2E/DX2                !
 ! R43   R(20,54)                1.4173         estimate D2E/DX2                !
 ! R44   R(21,23)                1.502          estimate D2E/DX2                !
 ! R45   R(21,57)                1.5016         estimate D2E/DX2                !
 ! R46   R(21,97)                1.8185         estimate D2E/DX2                !
 ! R47   R(22,24)                1.4192         estimate D2E/DX2                !
 ! R48   R(22,58)                1.4284         estimate D2E/DX2                !
 ! R49   R(23,25)                1.322          estimate D2E/DX2                !
 ! R50   R(23,61)                1.5021         estimate D2E/DX2                !
 ! R51   R(24,26)                1.3574         estimate D2E/DX2                !
 ! R52   R(24,62)                1.5031         estimate D2E/DX2                !
 ! R53   R(25,27)                1.5017         estimate D2E/DX2                !
 ! R54   R(26,28)                1.5007         estimate D2E/DX2                !
 ! R55   R(27,29)                1.493          estimate D2E/DX2                !
 ! R56   R(27,65)                1.5232         estimate D2E/DX2                !
 ! R57   R(27,85)                1.7993         estimate D2E/DX2                !
 ! R58   R(28,30)                1.4995         estimate D2E/DX2                !
 ! R59   R(28,66)                1.5288         estimate D2E/DX2                !
 ! R60   R(28,88)                1.7957         estimate D2E/DX2                !
 ! R61   R(29,31)                1.3652         estimate D2E/DX2                !
 ! R62   R(30,32)                1.3516         estimate D2E/DX2                !
 ! R63   R(31,33)                1.4096         estimate D2E/DX2                !
 ! R64   R(31,69)                1.502          estimate D2E/DX2                !
 ! R65   R(32,34)                1.4252         estimate D2E/DX2                !
 ! R66   R(32,70)                1.5041         estimate D2E/DX2                !
 ! R67   R(33,35)                1.4135         estimate D2E/DX2                !
 ! R68   R(33,73)                1.4246         estimate D2E/DX2                !
 ! R69   R(34,36)                1.4136         estimate D2E/DX2                !
 ! R70   R(34,74)                1.4161         estimate D2E/DX2                !
 ! R71   R(35,37)                1.443          estimate D2E/DX2                !
 ! R72   R(36,38)                1.4436         estimate D2E/DX2                !
 ! R73   R(37,39)                1.4384         estimate D2E/DX2                !
 ! R74   R(37,77)                1.4029         estimate D2E/DX2                !
 ! R75   R(38,42)                1.4437         estimate D2E/DX2                !
 ! R76   R(38,78)                1.3999         estimate D2E/DX2                !
 ! R77   R(39,43)                1.3715         estimate D2E/DX2                !
 ! R78   R(39,79)                1.5074         estimate D2E/DX2                !
 ! R79   R(40,41)                1.3877         estimate D2E/DX2                !
 ! R80   R(40,44)                1.382          estimate D2E/DX2                !
 ! R81   R(40,79)                1.5069         estimate D2E/DX2                !
 ! R82   R(41,45)                1.3818         estimate D2E/DX2                !
 ! R83   R(41,80)                1.5072         estimate D2E/DX2                !
 ! R84   R(42,46)                1.3648         estimate D2E/DX2                !
 ! R85   R(42,80)                1.5088         estimate D2E/DX2                !
 ! R86   R(44,47)                1.4033         estimate D2E/DX2                !
 ! R87   R(45,48)                1.4032         estimate D2E/DX2                !
 ! R88   R(47,48)                1.4043         estimate D2E/DX2                !
 ! R89   R(47,49)                1.5205         estimate D2E/DX2                !
 ! R90   R(48,50)                1.5196         estimate D2E/DX2                !
 ! R91   R(49,51)                1.5032         estimate D2E/DX2                !
 ! R92   R(49,91)                1.7985         estimate D2E/DX2                !
 ! R93   R(50,52)                1.5024         estimate D2E/DX2                !
 ! R94   R(50,92)                1.8011         estimate D2E/DX2                !
 ! R95   R(51,52)                1.3614         estimate D2E/DX2                !
 ! R96   R(51,55)                1.4175         estimate D2E/DX2                !
 ! R97   R(52,56)                1.4212         estimate D2E/DX2                !
 ! R98   R(53,55)                1.4202         estimate D2E/DX2                !
 ! R99   R(54,56)                1.4188         estimate D2E/DX2                !
 ! R100  R(55,83)                1.4238         estimate D2E/DX2                !
 ! R101  R(56,84)                1.4143         estimate D2E/DX2                !
 ! R102  R(57,59)                1.3976         estimate D2E/DX2                !
 ! R103  R(57,83)                1.401          estimate D2E/DX2                !
 ! R104  R(58,60)                1.408          estimate D2E/DX2                !
 ! R105  R(58,84)                1.4109         estimate D2E/DX2                !
 ! R106  R(59,60)                1.3688         estimate D2E/DX2                !
 ! R107  R(59,61)                1.4952         estimate D2E/DX2                !
 ! R108  R(60,62)                1.4997         estimate D2E/DX2                !
 ! R109  R(61,63)                1.5239         estimate D2E/DX2                !
 ! R110  R(61,89)                1.8013         estimate D2E/DX2                !
 ! R111  R(62,64)                1.5253         estimate D2E/DX2                !
 ! R112  R(62,90)                1.7983         estimate D2E/DX2                !
 ! R113  R(63,64)                1.4025         estimate D2E/DX2                !
 ! R114  R(63,65)                1.398          estimate D2E/DX2                !
 ! R115  R(64,66)                1.4013         estimate D2E/DX2                !
 ! R116  R(65,67)                1.4041         estimate D2E/DX2                !
 ! R117  R(66,68)                1.4033         estimate D2E/DX2                !
 ! R118  R(67,68)                1.4011         estimate D2E/DX2                !
 ! R119  R(67,69)                1.5276         estimate D2E/DX2                !
 ! R120  R(68,70)                1.531          estimate D2E/DX2                !
 ! R121  R(69,71)                1.5027         estimate D2E/DX2                !
 ! R122  R(69,86)                1.7991         estimate D2E/DX2                !
 ! R123  R(70,72)                1.5014         estimate D2E/DX2                !
 ! R124  R(70,87)                1.7983         estimate D2E/DX2                !
 ! R125  R(71,72)                1.3554         estimate D2E/DX2                !
 ! R126  R(71,73)                1.4327         estimate D2E/DX2                !
 ! R127  R(72,74)                1.4346         estimate D2E/DX2                !
 ! R128  R(73,75)                1.3824         estimate D2E/DX2                !
 ! R129  R(74,76)                1.3873         estimate D2E/DX2                !
 ! R130  R(75,76)                1.4308         estimate D2E/DX2                !
 ! R131  R(75,77)                1.4257         estimate D2E/DX2                !
 ! R132  R(76,78)                1.4213         estimate D2E/DX2                !
 ! R133  R(77,81)                1.4505         estimate D2E/DX2                !
 ! R134  R(78,81)                1.4544         estimate D2E/DX2                !
 ! R135  R(79,82)                1.4962         estimate D2E/DX2                !
 ! R136  R(79,98)                1.8204         estimate D2E/DX2                !
 ! R137  R(80,82)                1.4965         estimate D2E/DX2                !
 ! R138  R(80,96)                1.8175         estimate D2E/DX2                !
 ! R139  R(81,82)                1.3437         estimate D2E/DX2                !
 ! R140  R(83,84)                1.4306         estimate D2E/DX2                !
 ! A1    A(5,1,17)             112.7064         estimate D2E/DX2                !
 ! A2    A(5,1,25)             101.0492         estimate D2E/DX2                !
 ! A3    A(5,1,95)             110.8213         estimate D2E/DX2                !
 ! A4    A(17,1,25)            111.5205         estimate D2E/DX2                !
 ! A5    A(17,1,95)            109.0066         estimate D2E/DX2                !
 ! A6    A(25,1,95)            111.6013         estimate D2E/DX2                !
 ! A7    A(6,2,43)             101.2462         estimate D2E/DX2                !
 ! A8    A(6,2,44)             109.3962         estimate D2E/DX2                !
 ! A9    A(6,2,93)             113.6312         estimate D2E/DX2                !
 ! A10   A(43,2,44)            109.523          estimate D2E/DX2                !
 ! A11   A(43,2,93)            112.4602         estimate D2E/DX2                !
 ! A12   A(44,2,93)            110.2219         estimate D2E/DX2                !
 ! A13   A(7,3,18)             121.7555         estimate D2E/DX2                !
 ! A14   A(7,3,26)             108.2525         estimate D2E/DX2                !
 ! A15   A(18,3,26)            121.7167         estimate D2E/DX2                !
 ! A16   A(8,4,45)             109.8096         estimate D2E/DX2                !
 ! A17   A(8,4,46)             101.6675         estimate D2E/DX2                !
 ! A18   A(8,4,94)             113.2243         estimate D2E/DX2                !
 ! A19   A(45,4,46)            109.3251         estimate D2E/DX2                !
 ! A20   A(45,4,94)            110.174          estimate D2E/DX2                !
 ! A21   A(46,4,94)            112.3195         estimate D2E/DX2                !
 ! A22   A(1,5,9)              124.4976         estimate D2E/DX2                !
 ! A23   A(1,5,29)             109.8232         estimate D2E/DX2                !
 ! A24   A(9,5,29)             120.6846         estimate D2E/DX2                !
 ! A25   A(2,6,10)             122.452          estimate D2E/DX2                !
 ! A26   A(2,6,15)             110.7348         estimate D2E/DX2                !
 ! A27   A(10,6,15)            119.6709         estimate D2E/DX2                !
 ! A28   A(3,7,12)             121.6583         estimate D2E/DX2                !
 ! A29   A(3,7,30)             108.294          estimate D2E/DX2                !
 ! A30   A(12,7,30)            121.2709         estimate D2E/DX2                !
 ! A31   A(4,8,11)             122.2845         estimate D2E/DX2                !
 ! A32   A(4,8,16)             110.3483         estimate D2E/DX2                !
 ! A33   A(11,8,16)            120.0041         estimate D2E/DX2                !
 ! A34   A(5,9,13)             116.6947         estimate D2E/DX2                !
 ! A35   A(5,9,35)             120.1895         estimate D2E/DX2                !
 ! A36   A(13,9,35)            118.212          estimate D2E/DX2                !
 ! A37   A(6,10,49)            123.0335         estimate D2E/DX2                !
 ! A38   A(6,10,53)            119.2769         estimate D2E/DX2                !
 ! A39   A(49,10,53)           110.9941         estimate D2E/DX2                !
 ! A40   A(8,11,50)            122.8414         estimate D2E/DX2                !
 ! A41   A(8,11,54)            119.6544         estimate D2E/DX2                !
 ! A42   A(50,11,54)           110.6205         estimate D2E/DX2                !
 ! A43   A(7,12,14)            115.9239         estimate D2E/DX2                !
 ! A44   A(7,12,36)            119.8384         estimate D2E/DX2                !
 ! A45   A(14,12,36)           118.8012         estimate D2E/DX2                !
 ! A46   A(9,13,15)            121.2328         estimate D2E/DX2                !
 ! A47   A(9,13,43)            121.0833         estimate D2E/DX2                !
 ! A48   A(15,13,43)           109.3024         estimate D2E/DX2                !
 ! A49   A(12,14,16)           122.2782         estimate D2E/DX2                !
 ! A50   A(12,14,46)           121.1924         estimate D2E/DX2                !
 ! A51   A(16,14,46)           109.3685         estimate D2E/DX2                !
 ! A52   A(6,15,13)            108.183          estimate D2E/DX2                !
 ! A53   A(6,15,17)            121.4451         estimate D2E/DX2                !
 ! A54   A(13,15,17)           122.6278         estimate D2E/DX2                !
 ! A55   A(8,16,14)            108.4635         estimate D2E/DX2                !
 ! A56   A(8,16,18)            121.7959         estimate D2E/DX2                !
 ! A57   A(14,16,18)           121.3894         estimate D2E/DX2                !
 ! A58   A(1,17,15)            116.9275         estimate D2E/DX2                !
 ! A59   A(1,17,19)            121.6853         estimate D2E/DX2                !
 ! A60   A(15,17,19)           118.9355         estimate D2E/DX2                !
 ! A61   A(3,18,16)            116.1804         estimate D2E/DX2                !
 ! A62   A(3,18,20)            118.5731         estimate D2E/DX2                !
 ! A63   A(16,18,20)           118.2561         estimate D2E/DX2                !
 ! A64   A(17,19,21)           121.3308         estimate D2E/DX2                !
 ! A65   A(17,19,53)           119.1029         estimate D2E/DX2                !
 ! A66   A(21,19,53)           117.1062         estimate D2E/DX2                !
 ! A67   A(18,20,22)           118.1523         estimate D2E/DX2                !
 ! A68   A(18,20,54)           118.4766         estimate D2E/DX2                !
 ! A69   A(22,20,54)           116.441          estimate D2E/DX2                !
 ! A70   A(19,21,23)           111.4777         estimate D2E/DX2                !
 ! A71   A(19,21,57)           112.3402         estimate D2E/DX2                !
 ! A72   A(19,21,97)           109.1942         estimate D2E/DX2                !
 ! A73   A(23,21,57)           101.2671         estimate D2E/DX2                !
 ! A74   A(23,21,97)           111.3377         estimate D2E/DX2                !
 ! A75   A(57,21,97)           111.0747         estimate D2E/DX2                !
 ! A76   A(20,22,24)           121.9132         estimate D2E/DX2                !
 ! A77   A(20,22,58)           121.2354         estimate D2E/DX2                !
 ! A78   A(24,22,58)           107.9952         estimate D2E/DX2                !
 ! A79   A(21,23,25)           122.9722         estimate D2E/DX2                !
 ! A80   A(21,23,61)           112.4818         estimate D2E/DX2                !
 ! A81   A(25,23,61)           121.3475         estimate D2E/DX2                !
 ! A82   A(22,24,26)           119.9977         estimate D2E/DX2                !
 ! A83   A(22,24,62)           111.1353         estimate D2E/DX2                !
 ! A84   A(26,24,62)           121.3274         estimate D2E/DX2                !
 ! A85   A(1,25,23)            122.893          estimate D2E/DX2                !
 ! A86   A(1,25,27)            112.3551         estimate D2E/DX2                !
 ! A87   A(23,25,27)           121.4523         estimate D2E/DX2                !
 ! A88   A(3,26,24)            119.6242         estimate D2E/DX2                !
 ! A89   A(3,26,28)            111.226          estimate D2E/DX2                !
 ! A90   A(24,26,28)           121.5019         estimate D2E/DX2                !
 ! A91   A(25,27,29)           100.645          estimate D2E/DX2                !
 ! A92   A(25,27,65)           111.241          estimate D2E/DX2                !
 ! A93   A(25,27,85)           112.5779         estimate D2E/DX2                !
 ! A94   A(29,27,65)           108.575          estimate D2E/DX2                !
 ! A95   A(29,27,85)           114.3433         estimate D2E/DX2                !
 ! A96   A(65,27,85)           109.2065         estimate D2E/DX2                !
 ! A97   A(26,28,30)           100.823          estimate D2E/DX2                !
 ! A98   A(26,28,66)           109.8703         estimate D2E/DX2                !
 ! A99   A(26,28,88)           113.7085         estimate D2E/DX2                !
 ! A100  A(30,28,66)           108.6859         estimate D2E/DX2                !
 ! A101  A(30,28,88)           114.4679         estimate D2E/DX2                !
 ! A102  A(66,28,88)           108.9735         estimate D2E/DX2                !
 ! A103  A(5,29,27)            112.8142         estimate D2E/DX2                !
 ! A104  A(5,29,31)            120.2102         estimate D2E/DX2                !
 ! A105  A(27,29,31)           121.3728         estimate D2E/DX2                !
 ! A106  A(7,30,28)            111.3586         estimate D2E/DX2                !
 ! A107  A(7,30,32)            119.3731         estimate D2E/DX2                !
 ! A108  A(28,30,32)           121.9282         estimate D2E/DX2                !
 ! A109  A(29,31,33)           119.6981         estimate D2E/DX2                !
 ! A110  A(29,31,69)           121.4541         estimate D2E/DX2                !
 ! A111  A(33,31,69)           111.8826         estimate D2E/DX2                !
 ! A112  A(30,32,34)           120.2219         estimate D2E/DX2                !
 ! A113  A(30,32,70)           121.1365         estimate D2E/DX2                !
 ! A114  A(34,32,70)           111.557          estimate D2E/DX2                !
 ! A115  A(31,33,35)           121.794          estimate D2E/DX2                !
 ! A116  A(31,33,73)           107.7453         estimate D2E/DX2                !
 ! A117  A(35,33,73)           122.1437         estimate D2E/DX2                !
 ! A118  A(32,34,36)           122.1605         estimate D2E/DX2                !
 ! A119  A(32,34,74)           107.5509         estimate D2E/DX2                !
 ! A120  A(36,34,74)           121.8077         estimate D2E/DX2                !
 ! A121  A(9,35,33)            116.5322         estimate D2E/DX2                !
 ! A122  A(9,35,37)            119.952          estimate D2E/DX2                !
 ! A123  A(33,35,37)           118.6477         estimate D2E/DX2                !
 ! A124  A(12,36,34)           116.5584         estimate D2E/DX2                !
 ! A125  A(12,36,38)           119.3748         estimate D2E/DX2                !
 ! A126  A(34,36,38)           118.8964         estimate D2E/DX2                !
 ! A127  A(35,37,39)           119.617          estimate D2E/DX2                !
 ! A128  A(35,37,77)           118.2563         estimate D2E/DX2                !
 ! A129  A(39,37,77)           117.8317         estimate D2E/DX2                !
 ! A130  A(36,38,42)           119.7188         estimate D2E/DX2                !
 ! A131  A(36,38,78)           118.1943         estimate D2E/DX2                !
 ! A132  A(42,38,78)           117.7199         estimate D2E/DX2                !
 ! A133  A(37,39,43)           119.3282         estimate D2E/DX2                !
 ! A134  A(37,39,79)           121.6333         estimate D2E/DX2                !
 ! A135  A(43,39,79)           116.5951         estimate D2E/DX2                !
 ! A136  A(41,40,44)           120.8836         estimate D2E/DX2                !
 ! A137  A(41,40,79)           111.472          estimate D2E/DX2                !
 ! A138  A(44,40,79)           125.2514         estimate D2E/DX2                !
 ! A139  A(40,41,45)           120.8856         estimate D2E/DX2                !
 ! A140  A(40,41,80)           111.4201         estimate D2E/DX2                !
 ! A141  A(45,41,80)           125.3004         estimate D2E/DX2                !
 ! A142  A(38,42,46)           119.5938         estimate D2E/DX2                !
 ! A143  A(38,42,80)           121.5729         estimate D2E/DX2                !
 ! A144  A(46,42,80)           116.5365         estimate D2E/DX2                !
 ! A145  A(2,43,13)            109.399          estimate D2E/DX2                !
 ! A146  A(2,43,39)            124.7519         estimate D2E/DX2                !
 ! A147  A(13,43,39)           121.6543         estimate D2E/DX2                !
 ! A148  A(2,44,40)            115.9181         estimate D2E/DX2                !
 ! A149  A(2,44,47)            123.7875         estimate D2E/DX2                !
 ! A150  A(40,44,47)           119.1083         estimate D2E/DX2                !
 ! A151  A(4,45,41)            116.005          estimate D2E/DX2                !
 ! A152  A(4,45,48)            123.6945         estimate D2E/DX2                !
 ! A153  A(41,45,48)           119.1091         estimate D2E/DX2                !
 ! A154  A(4,46,14)            109.1813         estimate D2E/DX2                !
 ! A155  A(4,46,42)            125.2021         estimate D2E/DX2                !
 ! A156  A(14,46,42)           121.1766         estimate D2E/DX2                !
 ! A157  A(44,47,48)           119.9636         estimate D2E/DX2                !
 ! A158  A(44,47,49)           118.8333         estimate D2E/DX2                !
 ! A159  A(48,47,49)           120.6318         estimate D2E/DX2                !
 ! A160  A(45,48,47)           119.9834         estimate D2E/DX2                !
 ! A161  A(45,48,50)           118.8183         estimate D2E/DX2                !
 ! A162  A(47,48,50)           120.6227         estimate D2E/DX2                !
 ! A163  A(10,49,47)           109.3779         estimate D2E/DX2                !
 ! A164  A(10,49,51)           100.7949         estimate D2E/DX2                !
 ! A165  A(10,49,91)           113.7284         estimate D2E/DX2                !
 ! A166  A(47,49,51)           110.1496         estimate D2E/DX2                !
 ! A167  A(47,49,91)           108.9157         estimate D2E/DX2                !
 ! A168  A(51,49,91)           113.6252         estimate D2E/DX2                !
 ! A169  A(11,50,48)           109.7722         estimate D2E/DX2                !
 ! A170  A(11,50,52)           101.2008         estimate D2E/DX2                !
 ! A171  A(11,50,92)           113.2738         estimate D2E/DX2                !
 ! A172  A(48,50,52)           110.0325         estimate D2E/DX2                !
 ! A173  A(48,50,92)           108.9111         estimate D2E/DX2                !
 ! A174  A(52,50,92)           113.4409         estimate D2E/DX2                !
 ! A175  A(49,51,52)           121.6863         estimate D2E/DX2                !
 ! A176  A(49,51,55)           111.0676         estimate D2E/DX2                !
 ! A177  A(52,51,55)           120.4068         estimate D2E/DX2                !
 ! A178  A(50,52,51)           122.2709         estimate D2E/DX2                !
 ! A179  A(50,52,56)           110.8014         estimate D2E/DX2                !
 ! A180  A(51,52,56)           119.6495         estimate D2E/DX2                !
 ! A181  A(10,53,19)           121.4876         estimate D2E/DX2                !
 ! A182  A(10,53,55)           108.3642         estimate D2E/DX2                !
 ! A183  A(19,53,55)           122.9095         estimate D2E/DX2                !
 ! A184  A(11,54,20)           121.751          estimate D2E/DX2                !
 ! A185  A(11,54,56)           108.4534         estimate D2E/DX2                !
 ! A186  A(20,54,56)           121.7664         estimate D2E/DX2                !
 ! A187  A(51,55,53)           108.4599         estimate D2E/DX2                !
 ! A188  A(51,55,83)           121.551          estimate D2E/DX2                !
 ! A189  A(53,55,83)           120.4846         estimate D2E/DX2                !
 ! A190  A(52,56,54)           108.6884         estimate D2E/DX2                !
 ! A191  A(52,56,84)           121.5128         estimate D2E/DX2                !
 ! A192  A(54,56,84)           121.6912         estimate D2E/DX2                !
 ! A193  A(21,57,59)           110.1443         estimate D2E/DX2                !
 ! A194  A(21,57,83)           124.0014         estimate D2E/DX2                !
 ! A195  A(59,57,83)           121.1568         estimate D2E/DX2                !
 ! A196  A(22,58,60)           108.5284         estimate D2E/DX2                !
 ! A197  A(22,58,84)           122.0311         estimate D2E/DX2                !
 ! A198  A(60,58,84)           121.3462         estimate D2E/DX2                !
 ! A199  A(57,59,60)           120.8039         estimate D2E/DX2                !
 ! A200  A(57,59,61)           112.6989         estimate D2E/DX2                !
 ! A201  A(60,59,61)           121.0165         estimate D2E/DX2                !
 ! A202  A(58,60,59)           119.3872         estimate D2E/DX2                !
 ! A203  A(58,60,62)           111.4364         estimate D2E/DX2                !
 ! A204  A(59,60,62)           121.9847         estimate D2E/DX2                !
 ! A205  A(23,61,59)           100.6828         estimate D2E/DX2                !
 ! A206  A(23,61,63)           111.1102         estimate D2E/DX2                !
 ! A207  A(23,61,89)           112.8371         estimate D2E/DX2                !
 ! A208  A(59,61,63)           109.6713         estimate D2E/DX2                !
 ! A209  A(59,61,89)           113.6787         estimate D2E/DX2                !
 ! A210  A(63,61,89)           108.6924         estimate D2E/DX2                !
 ! A211  A(24,62,60)           100.8405         estimate D2E/DX2                !
 ! A212  A(24,62,64)           109.9006         estimate D2E/DX2                !
 ! A213  A(24,62,90)           113.8989         estimate D2E/DX2                !
 ! A214  A(60,62,64)           109.5335         estimate D2E/DX2                !
 ! A215  A(60,62,90)           113.7366         estimate D2E/DX2                !
 ! A216  A(64,62,90)           108.6961         estimate D2E/DX2                !
 ! A217  A(61,63,64)           120.4628         estimate D2E/DX2                !
 ! A218  A(61,63,65)           119.3742         estimate D2E/DX2                !
 ! A219  A(64,63,65)           119.9019         estimate D2E/DX2                !
 ! A220  A(62,64,63)           119.8275         estimate D2E/DX2                !
 ! A221  A(62,64,66)           120.0587         estimate D2E/DX2                !
 ! A222  A(63,64,66)           119.8868         estimate D2E/DX2                !
 ! A223  A(27,65,63)           119.1306         estimate D2E/DX2                !
 ! A224  A(27,65,67)           120.2472         estimate D2E/DX2                !
 ! A225  A(63,65,67)           120.3018         estimate D2E/DX2                !
 ! A226  A(28,66,64)           119.7154         estimate D2E/DX2                !
 ! A227  A(28,66,68)           119.7943         estimate D2E/DX2                !
 ! A228  A(64,66,68)           120.2349         estimate D2E/DX2                !
 ! A229  A(65,67,68)           119.8454         estimate D2E/DX2                !
 ! A230  A(65,67,69)           119.6039         estimate D2E/DX2                !
 ! A231  A(68,67,69)           120.2964         estimate D2E/DX2                !
 ! A232  A(66,68,67)           119.8196         estimate D2E/DX2                !
 ! A233  A(66,68,70)           119.7319         estimate D2E/DX2                !
 ! A234  A(67,68,70)           120.2153         estimate D2E/DX2                !
 ! A235  A(31,69,67)           108.2595         estimate D2E/DX2                !
 ! A236  A(31,69,71)           101.1098         estimate D2E/DX2                !
 ! A237  A(31,69,86)           114.2616         estimate D2E/DX2                !
 ! A238  A(67,69,71)           110.6585         estimate D2E/DX2                !
 ! A239  A(67,69,86)           108.6169         estimate D2E/DX2                !
 ! A240  A(71,69,86)           113.6871         estimate D2E/DX2                !
 ! A241  A(32,70,68)           108.5198         estimate D2E/DX2                !
 ! A242  A(32,70,72)           101.1647         estimate D2E/DX2                !
 ! A243  A(32,70,87)           114.2222         estimate D2E/DX2                !
 ! A244  A(68,70,72)           110.5654         estimate D2E/DX2                !
 ! A245  A(68,70,87)           108.4407         estimate D2E/DX2                !
 ! A246  A(72,70,87)           113.7081         estimate D2E/DX2                !
 ! A247  A(69,71,72)           121.9053         estimate D2E/DX2                !
 ! A248  A(69,71,73)           110.0762         estimate D2E/DX2                !
 ! A249  A(72,71,73)           119.5637         estimate D2E/DX2                !
 ! A250  A(70,72,71)           121.8661         estimate D2E/DX2                !
 ! A251  A(70,72,74)           110.1696         estimate D2E/DX2                !
 ! A252  A(71,72,74)           119.4942         estimate D2E/DX2                !
 ! A253  A(33,73,71)           108.7721         estimate D2E/DX2                !
 ! A254  A(33,73,75)           118.6588         estimate D2E/DX2                !
 ! A255  A(71,73,75)           121.6737         estimate D2E/DX2                !
 ! A256  A(34,74,72)           109.1664         estimate D2E/DX2                !
 ! A257  A(34,74,76)           118.8862         estimate D2E/DX2                !
 ! A258  A(72,74,76)           121.4702         estimate D2E/DX2                !
 ! A259  A(73,75,76)           118.896          estimate D2E/DX2                !
 ! A260  A(73,75,77)           120.305          estimate D2E/DX2                !
 ! A261  A(76,75,77)           108.8399         estimate D2E/DX2                !
 ! A262  A(74,76,75)           118.8686         estimate D2E/DX2                !
 ! A263  A(74,76,78)           120.2945         estimate D2E/DX2                !
 ! A264  A(75,76,78)           108.81           estimate D2E/DX2                !
 ! A265  A(37,77,75)           121.8382         estimate D2E/DX2                !
 ! A266  A(37,77,81)           120.2354         estimate D2E/DX2                !
 ! A267  A(75,77,81)           106.8269         estimate D2E/DX2                !
 ! A268  A(38,78,76)           121.7518         estimate D2E/DX2                !
 ! A269  A(38,78,81)           120.4108         estimate D2E/DX2                !
 ! A270  A(76,78,81)           106.9363         estimate D2E/DX2                !
 ! A271  A(39,79,40)           109.317          estimate D2E/DX2                !
 ! A272  A(39,79,82)           113.703          estimate D2E/DX2                !
 ! A273  A(39,79,98)           109.849          estimate D2E/DX2                !
 ! A274  A(40,79,82)           100.1982         estimate D2E/DX2                !
 ! A275  A(40,79,98)           110.9428         estimate D2E/DX2                !
 ! A276  A(82,79,98)           112.4619         estimate D2E/DX2                !
 ! A277  A(41,80,42)           109.161          estimate D2E/DX2                !
 ! A278  A(41,80,82)           100.201          estimate D2E/DX2                !
 ! A279  A(41,80,96)           110.9939         estimate D2E/DX2                !
 ! A280  A(42,80,82)           113.725          estimate D2E/DX2                !
 ! A281  A(42,80,96)           109.9048         estimate D2E/DX2                !
 ! A282  A(82,80,96)           112.4748         estimate D2E/DX2                !
 ! A283  A(77,81,78)           107.9515         estimate D2E/DX2                !
 ! A284  A(77,81,82)           122.3504         estimate D2E/DX2                !
 ! A285  A(78,81,82)           122.3224         estimate D2E/DX2                !
 ! A286  A(79,82,80)           112.6014         estimate D2E/DX2                !
 ! A287  A(79,82,81)           120.6936         estimate D2E/DX2                !
 ! A288  A(80,82,81)           120.6836         estimate D2E/DX2                !
 ! A289  A(55,83,57)           117.1943         estimate D2E/DX2                !
 ! A290  A(55,83,84)           117.834          estimate D2E/DX2                !
 ! A291  A(57,83,84)           118.7531         estimate D2E/DX2                !
 ! A292  A(56,84,58)           116.1725         estimate D2E/DX2                !
 ! A293  A(56,84,83)           119.041          estimate D2E/DX2                !
 ! A294  A(58,84,83)           118.4286         estimate D2E/DX2                !
 ! D1    D(17,1,5,9)            19.0969         estimate D2E/DX2                !
 ! D2    D(17,1,5,29)         -135.8519         estimate D2E/DX2                !
 ! D3    D(25,1,5,9)           138.2322         estimate D2E/DX2                !
 ! D4    D(25,1,5,29)          -16.7165         estimate D2E/DX2                !
 ! D5    D(95,1,5,9)          -103.3716         estimate D2E/DX2                !
 ! D6    D(95,1,5,29)          101.6797         estimate D2E/DX2                !
 ! D7    D(5,1,17,15)          -26.6837         estimate D2E/DX2                !
 ! D8    D(5,1,17,19)          135.3504         estimate D2E/DX2                !
 ! D9    D(25,1,17,15)        -139.5339         estimate D2E/DX2                !
 ! D10   D(25,1,17,19)          22.5002         estimate D2E/DX2                !
 ! D11   D(95,1,17,15)          96.7981         estimate D2E/DX2                !
 ! D12   D(95,1,17,19)        -101.1678         estimate D2E/DX2                !
 ! D13   D(5,1,25,23)         -141.4525         estimate D2E/DX2                !
 ! D14   D(5,1,25,27)           18.2475         estimate D2E/DX2                !
 ! D15   D(17,1,25,23)         -21.4675         estimate D2E/DX2                !
 ! D16   D(17,1,25,27)         138.2325         estimate D2E/DX2                !
 ! D17   D(95,1,25,23)         100.718          estimate D2E/DX2                !
 ! D18   D(95,1,25,27)         -99.582          estimate D2E/DX2                !
 ! D19   D(43,2,6,10)         -141.4158         estimate D2E/DX2                !
 ! D20   D(43,2,6,15)            8.8088         estimate D2E/DX2                !
 ! D21   D(44,2,6,10)          -25.8697         estimate D2E/DX2                !
 ! D22   D(44,2,6,15)          124.3549         estimate D2E/DX2                !
 ! D23   D(93,2,6,10)           97.7754         estimate D2E/DX2                !
 ! D24   D(93,2,6,15)         -112.0001         estimate D2E/DX2                !
 ! D25   D(6,2,43,13)          -10.6731         estimate D2E/DX2                !
 ! D26   D(6,2,43,39)          146.4684         estimate D2E/DX2                !
 ! D27   D(44,2,43,13)        -126.1253         estimate D2E/DX2                !
 ! D28   D(44,2,43,39)          31.0162         estimate D2E/DX2                !
 ! D29   D(93,2,43,13)         110.9576         estimate D2E/DX2                !
 ! D30   D(93,2,43,39)         -91.9008         estimate D2E/DX2                !
 ! D31   D(6,2,44,40)         -144.7135         estimate D2E/DX2                !
 ! D32   D(6,2,44,47)           22.6943         estimate D2E/DX2                !
 ! D33   D(43,2,44,40)         -34.58           estimate D2E/DX2                !
 ! D34   D(43,2,44,47)         132.8278         estimate D2E/DX2                !
 ! D35   D(93,2,44,40)          89.6546         estimate D2E/DX2                !
 ! D36   D(93,2,44,47)        -102.9376         estimate D2E/DX2                !
 ! D37   D(18,3,7,12)            3.1162         estimate D2E/DX2                !
 ! D38   D(18,3,7,30)          150.9114         estimate D2E/DX2                !
 ! D39   D(26,3,7,12)         -145.6613         estimate D2E/DX2                !
 ! D40   D(26,3,7,30)            2.1338         estimate D2E/DX2                !
 ! D41   D(7,3,18,16)            5.2552         estimate D2E/DX2                !
 ! D42   D(7,3,18,20)         -145.0228         estimate D2E/DX2                !
 ! D43   D(26,3,18,16)         149.8957         estimate D2E/DX2                !
 ! D44   D(26,3,18,20)          -0.3824         estimate D2E/DX2                !
 ! D45   D(7,3,26,24)          147.8236         estimate D2E/DX2                !
 ! D46   D(7,3,26,28)           -2.1395         estimate D2E/DX2                !
 ! D47   D(18,3,26,24)          -0.9685         estimate D2E/DX2                !
 ! D48   D(18,3,26,28)        -150.9316         estimate D2E/DX2                !
 ! D49   D(45,4,8,11)           25.5006         estimate D2E/DX2                !
 ! D50   D(45,4,8,16)         -124.4035         estimate D2E/DX2                !
 ! D51   D(46,4,8,11)          141.1935         estimate D2E/DX2                !
 ! D52   D(46,4,8,16)           -8.7107         estimate D2E/DX2                !
 ! D53   D(94,4,8,11)          -98.1036         estimate D2E/DX2                !
 ! D54   D(94,4,8,16)          111.9922         estimate D2E/DX2                !
 ! D55   D(8,4,45,41)          144.9467         estimate D2E/DX2                !
 ! D56   D(8,4,45,48)          -22.435          estimate D2E/DX2                !
 ! D57   D(46,4,45,41)          34.2079         estimate D2E/DX2                !
 ! D58   D(46,4,45,48)        -133.1738         estimate D2E/DX2                !
 ! D59   D(94,4,45,41)         -89.6819         estimate D2E/DX2                !
 ! D60   D(94,4,45,48)         102.9364         estimate D2E/DX2                !
 ! D61   D(8,4,46,14)            9.7905         estimate D2E/DX2                !
 ! D62   D(8,4,46,42)         -146.5849         estimate D2E/DX2                !
 ! D63   D(45,4,46,14)         125.8384         estimate D2E/DX2                !
 ! D64   D(45,4,46,42)         -30.5369         estimate D2E/DX2                !
 ! D65   D(94,4,46,14)        -111.5441         estimate D2E/DX2                !
 ! D66   D(94,4,46,42)          92.0806         estimate D2E/DX2                !
 ! D67   D(1,5,9,13)            -2.4351         estimate D2E/DX2                !
 ! D68   D(1,5,9,35)          -157.2173         estimate D2E/DX2                !
 ! D69   D(29,5,9,13)          149.9718         estimate D2E/DX2                !
 ! D70   D(29,5,9,35)           -4.8104         estimate D2E/DX2                !
 ! D71   D(1,5,29,27)           10.1099         estimate D2E/DX2                !
 ! D72   D(1,5,29,31)          164.0685         estimate D2E/DX2                !
 ! D73   D(9,5,29,27)         -145.9499         estimate D2E/DX2                !
 ! D74   D(9,5,29,31)            8.0087         estimate D2E/DX2                !
 ! D75   D(2,6,10,49)           -0.5623         estimate D2E/DX2                !
 ! D76   D(2,6,10,53)          148.1407         estimate D2E/DX2                !
 ! D77   D(15,6,10,49)        -148.2509         estimate D2E/DX2                !
 ! D78   D(15,6,10,53)           0.4522         estimate D2E/DX2                !
 ! D79   D(2,6,15,13)           -3.9752         estimate D2E/DX2                !
 ! D80   D(2,6,15,17)         -153.9786         estimate D2E/DX2                !
 ! D81   D(10,6,15,13)         147.1898         estimate D2E/DX2                !
 ! D82   D(10,6,15,17)          -2.8136         estimate D2E/DX2                !
 ! D83   D(3,7,12,14)           -7.9167         estimate D2E/DX2                !
 ! D84   D(3,7,12,36)          145.7669         estimate D2E/DX2                !
 ! D85   D(30,7,12,14)        -151.6163         estimate D2E/DX2                !
 ! D86   D(30,7,12,36)           2.0674         estimate D2E/DX2                !
 ! D87   D(3,7,30,28)           -1.3794         estimate D2E/DX2                !
 ! D88   D(3,7,30,32)         -152.0407         estimate D2E/DX2                !
 ! D89   D(12,7,30,28)         146.5646         estimate D2E/DX2                !
 ! D90   D(12,7,30,32)          -4.0967         estimate D2E/DX2                !
 ! D91   D(4,8,11,50)            0.6202         estimate D2E/DX2                !
 ! D92   D(4,8,11,54)         -147.5741         estimate D2E/DX2                !
 ! D93   D(16,8,11,50)         147.7382         estimate D2E/DX2                !
 ! D94   D(16,8,11,54)          -0.4561         estimate D2E/DX2                !
 ! D95   D(4,8,16,14)            4.6581         estimate D2E/DX2                !
 ! D96   D(4,8,16,18)          153.204          estimate D2E/DX2                !
 ! D97   D(11,8,16,14)        -146.0322         estimate D2E/DX2                !
 ! D98   D(11,8,16,18)           2.5136         estimate D2E/DX2                !
 ! D99   D(5,9,13,15)           -7.0675         estimate D2E/DX2                !
 ! D100  D(5,9,13,43)         -151.8492         estimate D2E/DX2                !
 ! D101  D(35,9,13,15)         148.2293         estimate D2E/DX2                !
 ! D102  D(35,9,13,43)           3.4475         estimate D2E/DX2                !
 ! D103  D(5,9,35,33)           -3.7006         estimate D2E/DX2                !
 ! D104  D(5,9,35,37)          151.2796         estimate D2E/DX2                !
 ! D105  D(13,9,35,33)        -158.1084         estimate D2E/DX2                !
 ! D106  D(13,9,35,37)          -3.1282         estimate D2E/DX2                !
 ! D107  D(6,10,49,47)          29.9348         estimate D2E/DX2                !
 ! D108  D(6,10,49,51)         145.9621         estimate D2E/DX2                !
 ! D109  D(6,10,49,91)         -92.0692         estimate D2E/DX2                !
 ! D110  D(53,10,49,47)       -121.0306         estimate D2E/DX2                !
 ! D111  D(53,10,49,51)         -5.0033         estimate D2E/DX2                !
 ! D112  D(53,10,49,91)        116.9654         estimate D2E/DX2                !
 ! D113  D(6,10,53,19)           1.5493         estimate D2E/DX2                !
 ! D114  D(6,10,53,55)        -149.4536         estimate D2E/DX2                !
 ! D115  D(49,10,53,19)        153.7441         estimate D2E/DX2                !
 ! D116  D(49,10,53,55)          2.7411         estimate D2E/DX2                !
 ! D117  D(8,11,50,48)         -29.6183         estimate D2E/DX2                !
 ! D118  D(8,11,50,52)        -145.8668         estimate D2E/DX2                !
 ! D119  D(8,11,50,92)          92.3556         estimate D2E/DX2                !
 ! D120  D(54,11,50,48)        121.083          estimate D2E/DX2                !
 ! D121  D(54,11,50,52)          4.8344         estimate D2E/DX2                !
 ! D122  D(54,11,50,92)       -116.9432         estimate D2E/DX2                !
 ! D123  D(8,11,54,20)          -1.2084         estimate D2E/DX2                !
 ! D124  D(8,11,54,56)         148.0156         estimate D2E/DX2                !
 ! D125  D(50,11,54,20)       -152.9715         estimate D2E/DX2                !
 ! D126  D(50,11,54,56)         -3.7476         estimate D2E/DX2                !
 ! D127  D(7,12,14,16)           4.5349         estimate D2E/DX2                !
 ! D128  D(7,12,14,46)         151.778          estimate D2E/DX2                !
 ! D129  D(36,12,14,16)       -149.435          estimate D2E/DX2                !
 ! D130  D(36,12,14,46)         -2.1919         estimate D2E/DX2                !
 ! D131  D(7,12,36,34)           4.1876         estimate D2E/DX2                !
 ! D132  D(7,12,36,38)        -150.142          estimate D2E/DX2                !
 ! D133  D(14,12,36,34)        157.1225         estimate D2E/DX2                !
 ! D134  D(14,12,36,38)          2.7929         estimate D2E/DX2                !
 ! D135  D(9,13,15,6)         -151.6669         estimate D2E/DX2                !
 ! D136  D(9,13,15,17)          -2.0945         estimate D2E/DX2                !
 ! D137  D(43,13,15,6)          -3.2212         estimate D2E/DX2                !
 ! D138  D(43,13,15,17)        146.3512         estimate D2E/DX2                !
 ! D139  D(9,13,43,2)          157.5625         estimate D2E/DX2                !
 ! D140  D(9,13,43,39)          -0.4164         estimate D2E/DX2                !
 ! D141  D(15,13,43,2)           9.0614         estimate D2E/DX2                !
 ! D142  D(15,13,43,39)       -148.9175         estimate D2E/DX2                !
 ! D143  D(12,14,16,8)         152.5519         estimate D2E/DX2                !
 ! D144  D(12,14,16,18)          3.8536         estimate D2E/DX2                !
 ! D145  D(46,14,16,8)           1.9332         estimate D2E/DX2                !
 ! D146  D(46,14,16,18)       -146.7651         estimate D2E/DX2                !
 ! D147  D(12,14,46,4)        -158.6659         estimate D2E/DX2                !
 ! D148  D(12,14,46,42)         -1.169          estimate D2E/DX2                !
 ! D149  D(16,14,46,4)          -7.6721         estimate D2E/DX2                !
 ! D150  D(16,14,46,42)        149.8248         estimate D2E/DX2                !
 ! D151  D(6,15,17,1)          165.6768         estimate D2E/DX2                !
 ! D152  D(6,15,17,19)           3.1293         estimate D2E/DX2                !
 ! D153  D(13,15,17,1)          20.0087         estimate D2E/DX2                !
 ! D154  D(13,15,17,19)       -142.5388         estimate D2E/DX2                !
 ! D155  D(8,16,18,3)         -153.1928         estimate D2E/DX2                !
 ! D156  D(8,16,18,20)          -2.817          estimate D2E/DX2                !
 ! D157  D(14,16,18,3)          -8.6302         estimate D2E/DX2                !
 ! D158  D(14,16,18,20)        141.7456         estimate D2E/DX2                !
 ! D159  D(1,17,19,21)          -1.0979         estimate D2E/DX2                !
 ! D160  D(1,17,19,53)        -162.7873         estimate D2E/DX2                !
 ! D161  D(15,17,19,21)        160.5874         estimate D2E/DX2                !
 ! D162  D(15,17,19,53)         -1.1021         estimate D2E/DX2                !
 ! D163  D(3,18,20,22)           0.9281         estimate D2E/DX2                !
 ! D164  D(3,18,20,54)         150.7881         estimate D2E/DX2                !
 ! D165  D(16,18,20,22)       -148.7328         estimate D2E/DX2                !
 ! D166  D(16,18,20,54)          1.1272         estimate D2E/DX2                !
 ! D167  D(17,19,21,23)        -21.5614         estimate D2E/DX2                !
 ! D168  D(17,19,21,57)       -134.4346         estimate D2E/DX2                !
 ! D169  D(17,19,21,97)        101.8747         estimate D2E/DX2                !
 ! D170  D(53,19,21,23)        140.4774         estimate D2E/DX2                !
 ! D171  D(53,19,21,57)         27.6042         estimate D2E/DX2                !
 ! D172  D(53,19,21,97)        -96.0865         estimate D2E/DX2                !
 ! D173  D(17,19,53,10)         -1.2107         estimate D2E/DX2                !
 ! D174  D(17,19,53,55)        145.5582         estimate D2E/DX2                !
 ! D175  D(21,19,53,10)       -163.665          estimate D2E/DX2                !
 ! D176  D(21,19,53,55)        -16.8961         estimate D2E/DX2                !
 ! D177  D(18,20,22,24)         -0.1944         estimate D2E/DX2                !
 ! D178  D(18,20,22,58)        143.2554         estimate D2E/DX2                !
 ! D179  D(54,20,22,24)       -150.6611         estimate D2E/DX2                !
 ! D180  D(54,20,22,58)         -7.2113         estimate D2E/DX2                !
 ! D181  D(18,20,54,11)          0.8486         estimate D2E/DX2                !
 ! D182  D(18,20,54,56)       -144.3389         estimate D2E/DX2                !
 ! D183  D(22,20,54,11)        151.2162         estimate D2E/DX2                !
 ! D184  D(22,20,54,56)          6.0287         estimate D2E/DX2                !
 ! D185  D(19,21,23,25)         23.327          estimate D2E/DX2                !
 ! D186  D(19,21,23,61)       -136.6533         estimate D2E/DX2                !
 ! D187  D(57,21,23,25)        142.989          estimate D2E/DX2                !
 ! D188  D(57,21,23,61)        -16.9913         estimate D2E/DX2                !
 ! D189  D(97,21,23,25)        -98.882          estimate D2E/DX2                !
 ! D190  D(97,21,23,61)        101.1378         estimate D2E/DX2                !
 ! D191  D(19,21,57,59)        133.1527         estimate D2E/DX2                !
 ! D192  D(19,21,57,83)        -22.6571         estimate D2E/DX2                !
 ! D193  D(23,21,57,59)         14.1075         estimate D2E/DX2                !
 ! D194  D(23,21,57,83)       -141.7023         estimate D2E/DX2                !
 ! D195  D(97,21,57,59)       -104.2117         estimate D2E/DX2                !
 ! D196  D(97,21,57,83)         99.9786         estimate D2E/DX2                !
 ! D197  D(20,22,24,26)         -1.163          estimate D2E/DX2                !
 ! D198  D(20,22,24,62)        148.9273         estimate D2E/DX2                !
 ! D199  D(58,22,24,26)       -148.7925         estimate D2E/DX2                !
 ! D200  D(58,22,24,62)          1.2978         estimate D2E/DX2                !
 ! D201  D(20,22,58,60)       -147.515          estimate D2E/DX2                !
 ! D202  D(20,22,58,84)          1.4493         estimate D2E/DX2                !
 ! D203  D(24,22,58,60)          0.3772         estimate D2E/DX2                !
 ! D204  D(24,22,58,84)        149.3415         estimate D2E/DX2                !
 ! D205  D(21,23,25,1)          -1.6319         estimate D2E/DX2                !
 ! D206  D(21,23,25,27)       -159.5381         estimate D2E/DX2                !
 ! D207  D(61,23,25,1)         156.6282         estimate D2E/DX2                !
 ! D208  D(61,23,25,27)         -1.278          estimate D2E/DX2                !
 ! D209  D(21,23,61,59)         13.1837         estimate D2E/DX2                !
 ! D210  D(21,23,61,63)        129.2898         estimate D2E/DX2                !
 ! D211  D(21,23,61,89)       -108.3428         estimate D2E/DX2                !
 ! D212  D(25,23,61,59)       -147.165          estimate D2E/DX2                !
 ! D213  D(25,23,61,63)        -31.059          estimate D2E/DX2                !
 ! D214  D(25,23,61,89)         91.3085         estimate D2E/DX2                !
 ! D215  D(22,24,26,3)           1.7137         estimate D2E/DX2                !
 ! D216  D(22,24,26,28)        148.535          estimate D2E/DX2                !
 ! D217  D(62,24,26,3)        -145.2979         estimate D2E/DX2                !
 ! D218  D(62,24,26,28)          1.5234         estimate D2E/DX2                !
 ! D219  D(22,24,62,60)         -2.2775         estimate D2E/DX2                !
 ! D220  D(22,24,62,64)       -117.8323         estimate D2E/DX2                !
 ! D221  D(22,24,62,90)        119.94           estimate D2E/DX2                !
 ! D222  D(26,24,62,60)        147.3551         estimate D2E/DX2                !
 ! D223  D(26,24,62,64)         31.8003         estimate D2E/DX2                !
 ! D224  D(26,24,62,90)        -90.4275         estimate D2E/DX2                !
 ! D225  D(1,25,27,29)         -12.758          estimate D2E/DX2                !
 ! D226  D(1,25,27,65)        -127.6435         estimate D2E/DX2                !
 ! D227  D(1,25,27,85)         109.409          estimate D2E/DX2                !
 ! D228  D(23,25,27,29)        147.2743         estimate D2E/DX2                !
 ! D229  D(23,25,27,65)         32.3888         estimate D2E/DX2                !
 ! D230  D(23,25,27,85)        -90.5587         estimate D2E/DX2                !
 ! D231  D(3,26,28,30)           1.2353         estimate D2E/DX2                !
 ! D232  D(3,26,28,66)         115.8128         estimate D2E/DX2                !
 ! D233  D(3,26,28,88)        -121.7557         estimate D2E/DX2                !
 ! D234  D(24,26,28,30)       -148.0782         estimate D2E/DX2                !
 ! D235  D(24,26,28,66)        -33.5007         estimate D2E/DX2                !
 ! D236  D(24,26,28,88)         88.9308         estimate D2E/DX2                !
 ! D237  D(25,27,29,5)           1.4687         estimate D2E/DX2                !
 ! D238  D(25,27,29,31)       -152.1488         estimate D2E/DX2                !
 ! D239  D(65,27,29,5)         118.3444         estimate D2E/DX2                !
 ! D240  D(65,27,29,31)        -35.273          estimate D2E/DX2                !
 ! D241  D(85,27,29,5)        -119.45           estimate D2E/DX2                !
 ! D242  D(85,27,29,31)         86.9325         estimate D2E/DX2                !
 ! D243  D(25,27,65,63)        -30.1967         estimate D2E/DX2                !
 ! D244  D(25,27,65,67)        143.3235         estimate D2E/DX2                !
 ! D245  D(29,27,65,63)       -140.0553         estimate D2E/DX2                !
 ! D246  D(29,27,65,67)         33.4649         estimate D2E/DX2                !
 ! D247  D(85,27,65,63)         94.6659         estimate D2E/DX2                !
 ! D248  D(85,27,65,67)        -91.8139         estimate D2E/DX2                !
 ! D249  D(26,28,30,7)           0.0998         estimate D2E/DX2                !
 ! D250  D(26,28,30,32)        149.8947         estimate D2E/DX2                !
 ! D251  D(66,28,30,7)        -115.3653         estimate D2E/DX2                !
 ! D252  D(66,28,30,32)         34.4297         estimate D2E/DX2                !
 ! D253  D(88,28,30,7)         122.5625         estimate D2E/DX2                !
 ! D254  D(88,28,30,32)        -87.6425         estimate D2E/DX2                !
 ! D255  D(26,28,66,64)         31.5176         estimate D2E/DX2                !
 ! D256  D(26,28,66,68)       -142.6906         estimate D2E/DX2                !
 ! D257  D(30,28,66,64)        140.9689         estimate D2E/DX2                !
 ! D258  D(30,28,66,68)        -33.2394         estimate D2E/DX2                !
 ! D259  D(88,28,66,64)        -93.677          estimate D2E/DX2                !
 ! D260  D(88,28,66,68)         92.1148         estimate D2E/DX2                !
 ! D261  D(5,29,31,33)          -2.3827         estimate D2E/DX2                !
 ! D262  D(5,29,31,69)        -150.7964         estimate D2E/DX2                !
 ! D263  D(27,29,31,33)        149.325          estimate D2E/DX2                !
 ! D264  D(27,29,31,69)          0.9113         estimate D2E/DX2                !
 ! D265  D(7,30,32,34)          -0.3463         estimate D2E/DX2                !
 ! D266  D(7,30,32,70)         147.7242         estimate D2E/DX2                !
 ! D267  D(28,30,32,34)       -147.8216         estimate D2E/DX2                !
 ! D268  D(28,30,32,70)          0.2489         estimate D2E/DX2                !
 ! D269  D(29,31,33,35)         -6.5343         estimate D2E/DX2                !
 ! D270  D(29,31,33,73)       -155.3619         estimate D2E/DX2                !
 ! D271  D(69,31,33,35)        144.6817         estimate D2E/DX2                !
 ! D272  D(69,31,33,73)         -4.146          estimate D2E/DX2                !
 ! D273  D(29,31,69,67)         34.6285         estimate D2E/DX2                !
 ! D274  D(29,31,69,71)        150.9487         estimate D2E/DX2                !
 ! D275  D(29,31,69,86)        -86.532          estimate D2E/DX2                !
 ! D276  D(33,31,69,67)       -116.0106         estimate D2E/DX2                !
 ! D277  D(33,31,69,71)          0.3096         estimate D2E/DX2                !
[...]
 Alpha virt. eigenvalues --    1.47099   1.47555   1.47994   1.48290   1.49117
 Alpha virt. eigenvalues --    1.49510   1.50341   1.50875   1.51000   1.51529
 Alpha virt. eigenvalues --    1.52298   1.52787   1.53215   1.53226   1.54420
 Alpha virt. eigenvalues --    1.55458   1.55557   1.55786   1.56559   1.57478
 Alpha virt. eigenvalues --    1.57745   1.58126   1.58738   1.59070   1.59609
 Alpha virt. eigenvalues --    1.59681   1.60267   1.60683   1.61253   1.61538
 Alpha virt. eigenvalues --    1.62031   1.62541   1.62794   1.63003   1.63073
 Alpha virt. eigenvalues --    1.63618   1.63706   1.64037   1.64306   1.64429
 Alpha virt. eigenvalues --    1.64601   1.64758   1.65114   1.65302   1.65595
 Alpha virt. eigenvalues --    1.65861   1.66026   1.66086   1.66414   1.66499
 Alpha virt. eigenvalues --    1.66671   1.67358   1.67454   1.67611   1.67988
 Alpha virt. eigenvalues --    1.68225   1.68401   1.68513   1.68645   1.68964
 Alpha virt. eigenvalues --    1.69169   1.69309   1.69439   1.69886   1.70169
 Alpha virt. eigenvalues --    1.70529   1.70738   1.71014   1.71200   1.71603
 Alpha virt. eigenvalues --    1.71693   1.71902   1.72179   1.72376   1.72564
 Alpha virt. eigenvalues --    1.72778   1.73116   1.73516   1.73774   1.73903
 Alpha virt. eigenvalues --    1.74206   1.74522   1.74762   1.74976   1.75188
 Alpha virt. eigenvalues --    1.75306   1.75704   1.75994   1.76303   1.76500
 Alpha virt. eigenvalues --    1.76549   1.76723   1.76877   1.77100   1.77573
 Alpha virt. eigenvalues --    1.77655   1.77904   1.78010   1.78174   1.78363
 Alpha virt. eigenvalues --    1.78649   1.78674   1.79209   1.79282   1.79317
 Alpha virt. eigenvalues --    1.79923   1.80124   1.80411   1.80606   1.80886
 Alpha virt. eigenvalues --    1.81163   1.81543   1.81596   1.81908   1.82263
 Alpha virt. eigenvalues --    1.82533   1.82598   1.82749   1.83130   1.83623
 Alpha virt. eigenvalues --    1.83723   1.84279   1.84664   1.84829   1.85211
 Alpha virt. eigenvalues --    1.85653   1.85904   1.86333   1.86588   1.86857
 Alpha virt. eigenvalues --    1.86966   1.87284   1.87730   1.87871   1.88109
 Alpha virt. eigenvalues --    1.88204   1.88790   1.88900   1.89159   1.89553
 Alpha virt. eigenvalues --    1.89993   1.90692   1.90913   1.91156   1.91412
 Alpha virt. eigenvalues --    1.91720   1.92108   1.92448   1.92921   1.93253
 Alpha virt. eigenvalues --    1.93426   1.93890   1.94459   1.94788   1.94965
 Alpha virt. eigenvalues --    1.95051   1.95764   1.95908   1.96095   1.96889
 Alpha virt. eigenvalues --    1.97078   1.97621   1.97653   1.97815   1.98436
 Alpha virt. eigenvalues --    1.98999   1.99064   1.99458   1.99750   1.99944
 Alpha virt. eigenvalues --    2.00360   2.00508   2.00914   2.01132   2.01313
 Alpha virt. eigenvalues --    2.01398   2.01754   2.01901   2.02374   2.02676
 Alpha virt. eigenvalues --    2.03162   2.03426   2.04087   2.04186   2.04769
 Alpha virt. eigenvalues --    2.04952   2.06094   2.06366   2.06695   2.06842
 Alpha virt. eigenvalues --    2.07235   2.07723   2.07878   2.08125   2.08813
 Alpha virt. eigenvalues --    2.09100   2.09669   2.09969   2.10494   2.10611
 Alpha virt. eigenvalues --    2.10812   2.10939   2.11351   2.12008   2.12170
 Alpha virt. eigenvalues --    2.12604   2.13000   2.13070   2.13700   2.13954
 Alpha virt. eigenvalues --    2.14698   2.15329   2.15670   2.15962   2.16169
 Alpha virt. eigenvalues --    2.16800   2.17147   2.17840   2.17895   2.18293
 Alpha virt. eigenvalues --    2.18853   2.19228   2.19545   2.19701   2.20136
 Alpha virt. eigenvalues --    2.20772   2.21118   2.21422   2.21832   2.22046
 Alpha virt. eigenvalues --    2.22274   2.22545   2.22997   2.23617   2.24026
 Alpha virt. eigenvalues --    2.24420   2.24897   2.25094   2.25682   2.25831
 Alpha virt. eigenvalues --    2.26313   2.26780   2.27681   2.27916   2.28258
 Alpha virt. eigenvalues --    2.28780   2.28911   2.29478   2.29709   2.29844
 Alpha virt. eigenvalues --    2.30444   2.30759   2.31473   2.31614   2.32219
 Alpha virt. eigenvalues --    2.33227   2.33858   2.34042   2.34480   2.35042
 Alpha virt. eigenvalues --    2.35489   2.35839   2.35989   2.36423   2.37660
 Alpha virt. eigenvalues --    2.37976   2.38650   2.38927   2.39379   2.39981
 Alpha virt. eigenvalues --    2.40571   2.40941   2.41248   2.41612   2.42006
 Alpha virt. eigenvalues --    2.42432   2.43441   2.43790   2.44024   2.44300
 Alpha virt. eigenvalues --    2.44867   2.45256   2.45804   2.46043   2.46721
 Alpha virt. eigenvalues --    2.47481   2.48317   2.48617   2.49056   2.49363
 Alpha virt. eigenvalues --    2.49936   2.50085   2.50853   2.50865   2.51451
 Alpha virt. eigenvalues --    2.51725   2.52340   2.52904   2.53175   2.53680
 Alpha virt. eigenvalues --    2.54261   2.54593   2.54865   2.55040   2.55555
 Alpha virt. eigenvalues --    2.55987   2.56265   2.56683   2.56766   2.56956
 Alpha virt. eigenvalues --    2.57218   2.57926   2.57973   2.58254   2.58926
 Alpha virt. eigenvalues --    2.59060   2.59301   2.59940   2.60403   2.60701
 Alpha virt. eigenvalues --    2.60795   2.61427   2.61981   2.62196   2.62562
 Alpha virt. eigenvalues --    2.62744   2.62936   2.63440   2.63925   2.64182
 Alpha virt. eigenvalues --    2.64392   2.64936   2.65150   2.65481   2.65708
 Alpha virt. eigenvalues --    2.66193   2.66574   2.67116   2.67274   2.67471
 Alpha virt. eigenvalues --    2.68142   2.68246   2.68808   2.69040   2.69112
 Alpha virt. eigenvalues --    2.69795   2.70172   2.70587   2.70721   2.71055
 Alpha virt. eigenvalues --    2.71536   2.71888   2.72097   2.72438   2.72656
 Alpha virt. eigenvalues --    2.73266   2.73681   2.73912   2.74453   2.74786
 Alpha virt. eigenvalues --    2.75062   2.75643   2.76132   2.76194   2.76398
 Alpha virt. eigenvalues --    2.76874   2.77613   2.77886   2.77990   2.78325
 Alpha virt. eigenvalues --    2.78424   2.79444   2.80008   2.80236   2.80727
 Alpha virt. eigenvalues --    2.81251   2.81778   2.82254   2.82954   2.83116
 Alpha virt. eigenvalues --    2.84203   2.84514   2.84949   2.85105   2.85895
 Alpha virt. eigenvalues --    2.86831   2.87145   2.87856   2.88145   2.88455
 Alpha virt. eigenvalues --    2.88836   2.89296   2.89354   2.89985   2.90832
 Alpha virt. eigenvalues --    2.90866   2.91816   2.92076   2.92710   2.93625
 Alpha virt. eigenvalues --    2.94016   2.94566   2.94832   2.95241   2.96426
 Alpha virt. eigenvalues --    2.96843   2.97967   2.99513   3.00117   3.01011
 Alpha virt. eigenvalues --    3.02431   3.03382   3.04490   3.07258   3.08448
 Alpha virt. eigenvalues --    3.08849   3.09624   3.10201   3.10696   3.12543
 Alpha virt. eigenvalues --    3.13743   3.15557   3.15861   3.18189   3.19309
 Alpha virt. eigenvalues --    3.19788   3.20145   3.21788   3.22248   3.24246
 Alpha virt. eigenvalues --    3.26574   3.27482   3.29119   3.29917   3.32850
 Alpha virt. eigenvalues --    3.33546   3.37949   3.38412   3.40826   3.41840
 Alpha virt. eigenvalues --    3.43847   3.44289   3.47531   3.49016   3.51983
 Alpha virt. eigenvalues --    3.54506   3.63522   4.00600   4.01394   4.01612
 Alpha virt. eigenvalues --    4.01833   4.02879   4.03536   4.03992   4.05873
 Alpha virt. eigenvalues --    4.06093   4.06648   4.07120   4.08633   4.08722
 Alpha virt. eigenvalues --    4.09053   4.09973   4.10095   4.10711   4.11321
 Alpha virt. eigenvalues --    4.12427   4.13132   4.13415   4.15617   4.16308
 Alpha virt. eigenvalues --    4.16441   4.16792   4.18139   4.18903   4.19829
 Alpha virt. eigenvalues --    4.19933   4.21041   4.21653   4.22243   4.22533
 Alpha virt. eigenvalues --    4.24644   4.24814   4.25311   4.25659   4.26220
 Alpha virt. eigenvalues --    4.26466   4.26784   4.27446   4.27796   4.28445
 Alpha virt. eigenvalues --    4.28919   4.29116   4.29582   4.30149   4.30535
 Alpha virt. eigenvalues --    4.32736   4.33821   4.33932   4.35080   4.36511
 Alpha virt. eigenvalues --    4.38150   4.38209   4.39157   4.39809   4.40978
 Alpha virt. eigenvalues --    4.41501   4.41814   4.41987   4.43635   4.44260
 Alpha virt. eigenvalues --    4.45126   4.46830   4.47753   4.48798   4.50034
 Alpha virt. eigenvalues --    4.51209   4.53387   4.55067   4.55828   4.57066
 Alpha virt. eigenvalues --    4.58549   4.59437   4.60185   4.61366   4.64187
 Alpha virt. eigenvalues --    4.65792   4.66736   4.68164   4.70921   4.77116
 Alpha virt. eigenvalues --    4.78427   4.80365   4.81708   4.83816   4.85340
 Alpha virt. eigenvalues --    4.86407   4.90573   4.93238   4.97058   5.01025
 Alpha virt. eigenvalues --    5.03145   5.06708   5.13173   5.13679   5.24876
          Condensed to atoms (all electrons):
 Mulliken charges:
               1
     1  C   -0.364214
     2  C   -0.387720
     3  C    0.007801
     4  C   -0.387589
     5  C    0.073601
     6  C    0.091220
     7  C    0.009622
     8  C    0.091403
     9  C    0.058556
    10  C    0.089326
    11  C    0.091230
    12  C    0.040847
    13  C   -0.014680
    14  C    0.010825
    15  C    0.042404
    16  C    0.010713
    17  C    0.125143
    18  C    0.043018
    19  C    0.125428
    20  C    0.046906
    21  C   -0.361780
    22  C    0.006484
    23  C    0.184191
    24  C    0.092149
    25  C    0.187174
    26  C    0.091045
    27  C   -0.370685
    28  C   -0.376906
    29  C    0.132573
    30  C    0.087401
    31  C    0.081582
    32  C    0.091303
    33  C    0.007657
    34  C    0.006563
    35  C    0.034951
    36  C    0.035211
    37  C    0.069781
    38  C    0.070011
    39  C    0.121970
    40  C    0.118810
    41  C    0.116724
    42  C    0.123351
    43  C    0.082205
    44  C    0.143419
    45  C    0.144100
    46  C    0.079099
    47  C    0.122130
    48  C    0.122850
    49  C   -0.381141
    50  C   -0.380643
    51  C    0.095229
    52  C    0.088578
    53  C    0.041010
    54  C    0.010488
    55  C   -0.013228
    56  C    0.007794
    57  C    0.075061
    58  C    0.010974
    59  C    0.134595
    60  C    0.081470
    61  C   -0.371988
    62  C   -0.379961
    63  C    0.123552
    64  C    0.128179
    65  C    0.127474
    66  C    0.126083
    67  C    0.129648
    68  C    0.121894
    69  C   -0.374345
    70  C   -0.371390
    71  C    0.092159
    72  C    0.092064
    73  C    0.018848
    74  C    0.020432
    75  C   -0.006279
    76  C   -0.005771
    77  C   -0.044071
    78  C   -0.042464
    79  C   -0.351675
    80  C   -0.353982
    81  C    0.036913
    82  C    0.135643
    83  C    0.066018
    84  C    0.044087
    85  Cl   0.030457
    86  Cl   0.018303
    87  Cl   0.020335
    88  Cl   0.028876
    89  Cl   0.028856
    90  Cl   0.027514
    91  Cl   0.021713
    92  Cl   0.019258
    93  Cl   0.029148
    94  Cl   0.028774
    95  Cl   0.000996
    96  Cl  -0.014500
    97  Cl   0.005481
    98  Cl  -0.023672
 Sum of Mulliken charges =  -0.00000
 Mulliken charges with hydrogens summed into heavy atoms:
               1
     1  C   -0.364214
     2  C   -0.387720
     3  C    0.007801
     4  C   -0.387589
     5  C    0.073601
     6  C    0.091220
     7  C    0.009622
     8  C    0.091403
     9  C    0.058556
    10  C    0.089326
    11  C    0.091230
    12  C    0.040847
    13  C   -0.014680
    14  C    0.010825
    15  C    0.042404
    16  C    0.010713
    17  C    0.125143
    18  C    0.043018
    19  C    0.125428
    20  C    0.046906
    21  C   -0.361780
    22  C    0.006484
    23  C    0.184191
    24  C    0.092149
    25  C    0.187174
    26  C    0.091045
    27  C   -0.370685
    28  C   -0.376906
    29  C    0.132573
    30  C    0.087401
    31  C    0.081582
    32  C    0.091303
    33  C    0.007657
    34  C    0.006563
    35  C    0.034951
    36  C    0.035211
    37  C    0.069781
    38  C    0.070011
    39  C    0.121970
    40  C    0.118810
    41  C    0.116724
    42  C    0.123351
    43  C    0.082205
    44  C    0.143419
    45  C    0.144100
    46  C    0.079099
    47  C    0.122130
    48  C    0.122850
    49  C   -0.381141
    50  C   -0.380643
    51  C    0.095229
    52  C    0.088578
    53  C    0.041010
    54  C    0.010488
    55  C   -0.013228
    56  C    0.007794
    57  C    0.075061
    58  C    0.010974
    59  C    0.134595
    60  C    0.081470
    61  C   -0.371988
    62  C   -0.379961
    63  C    0.123552
    64  C    0.128179
    65  C    0.127474
    66  C    0.126083
    67  C    0.129648
    68  C    0.121894
    69  C   -0.374345
    70  C   -0.371390
    71  C    0.092159
    72  C    0.092064
    73  C    0.018848
    74  C    0.020432
    75  C   -0.006279
    76  C   -0.005771
    77  C   -0.044071
    78  C   -0.042464
    79  C   -0.351675
    80  C   -0.353982
    81  C    0.036913
    82  C    0.135643
    83  C    0.066018
    84  C    0.044087
    85  Cl   0.030457
    86  Cl   0.018303
    87  Cl   0.020335
    88  Cl   0.028876
    89  Cl   0.028856
    90  Cl   0.027514
    91  Cl   0.021713
    92  Cl   0.019258
    93  Cl   0.029148
    94  Cl   0.028774
    95  Cl   0.000996
    96  Cl  -0.014500
    97  Cl   0.005481
    98  Cl  -0.023672
 Electronic spatial extent (au):  <R**2>=          66633.7300
 Charge=             -0.0000 electrons
 Dipole moment (field-independent basis, Debye):
    X=              0.1337    Y=             -3.0884    Z=              2.3612  Tot=              3.8899
 Quadrupole moment (field-independent basis, Debye-Ang):
   XX=           -707.0425   YY=           -653.4368   ZZ=           -636.4633
   XY=             -3.8954   XZ=             -6.7329   YZ=              0.8432
 Traceless Quadrupole moment (field-independent basis, Debye-Ang):
   XX=            -41.3949   YY=             12.2107   ZZ=             29.1842
   XY=             -3.8954   XZ=             -6.7329   YZ=              0.8432
 Octapole moment (field-independent basis, Debye-Ang**2):
  XXX=             90.1287  YYY=            -46.4425  ZZZ=             30.5396  XYY=            -26.2997
  XXY=             38.2485  XXZ=             35.6312  XZZ=             27.4975  YZZ=              0.5426
  YYZ=             13.1581  XYZ=             14.4324
 Hexadecapole moment (field-independent basis, Debye-Ang**3):
 XXXX=         -39761.3226 YYYY=         -29155.4868 ZZZZ=         -24813.2039 XXXY=           -108.2636
 XXXZ=            -85.1458 YYYX=            -69.5157 YYYZ=            -42.4310 ZZZX=            -71.7039
 ZZZY=            -33.6317 XXYY=         -11712.6706 XXZZ=         -11073.6515 YYZZ=          -8979.7128
 XXYZ=            -77.0183 YYXZ=             -2.2735 ZZXY=              1.7626
 N-N= 2.606675177114D+04 E-N=-7.483769510273D+04  KE= 9.594192757114D+03
 No NMR shielding tensors so no spin-rotation constants.
 Leave Link  601 at Mon Jun 27 15:39:31 2022, MaxMem=  1342177280 cpu:              27.6 elap:               1.4
 (Enter /home/mkliu/g16/l9999.exe)
 1\1\GINC-NODE04\FOpt\RB3LYP\6-31G(d,p)\C84Cl14\MKLIU\27-Jun-2022\0\\#P
  opt b3lyp/6-31G(d, p) empiricaldispersion=GD3\\force\\0,1\C,8.2166348
 737,18.6432529727,10.6008295796\C,12.5068683871,19.9987319978,8.909100
 8545\C,8.2603481452,26.8659670671,10.5312854772\C,12.5020846844,25.764
 3087506,8.9075472363\C,7.9439467554,18.9625233506,9.1498122799\C,11.89
 96249865,19.5639287407,10.2196661657\C,7.9415461761,26.8166314554,9.13
 73876591\C,11.8907278774,26.2026154515,10.2171536645\C,8.9491813292,19
 .1380038768,8.1733258701\C,12.1641078634,20.1980125457,11.3917588029\C
 ,12.156133038,25.5695084881,11.3917958971\C,8.9520258171,26.6452822102
 ,8.1498866778\C,10.3033455259,19.0689458997,8.618815487\C,10.292551875
 3,26.6912584218,8.6106786909\C,10.6243837099,18.9716789532,10.00500803
 17\C,10.6152972699,26.8078074836,9.9916413551\C,9.628975606,18.9834144
 002,11.0164032585\C,9.6018913484,26.803189813,10.9914245332\C,9.893238
 4126,19.6427031951,12.214772229\C,9.8712873596,26.1183026985,12.232897
 4554\C,8.7670274858,20.067746674,13.1361616397\C,8.7814015743,25.52464
 57083,12.916060472\C,7.4407966741,20.1642728257,12.4148299511\C,7.4509
 372436,25.5965159609,12.4173136082\C,7.1901023788,19.5155307315,11.288
 037708\C,7.1928513341,26.2620351263,11.2588779724\C,6.0967947093,19.95
 77857291,10.3417314676\C,6.0763269224,25.8369040503,10.3289860044\C,6.
 6969889349,19.5766634627,9.0177168168\C,6.6499464979,26.2354357887,8.9
 865887052\C,6.3700489859,20.2397378426,7.8624968282\C,6.3485936059,25.
 5649292034,7.8493659406\C,7.3189201623,20.3452037099,6.8222984096\C,7.
 3144102593,25.4482772908,6.7977377675\C,8.6607940176,19.8880006788,6.9
 819079415\C,8.6574252182,25.8988325188,6.9540661117\C,9.7287946459,20.
 60719331,6.2989917157\C,9.7267756306,25.1682047926,6.2852950441\C,11.0
 760500971,20.5635880587,6.8407555986\C,12.72571904,22.1858510334,7.771
 388325\C,12.7259743764,23.5782509783,7.771284075\C,11.0764132435,25.20
 31175123,6.8381715722\C,11.3302607135,19.7829300391,7.9469556708\C,12.
 8838186142,21.470933478,8.954598034\C,12.8827503285,24.2939071578,8.95
 29050768\C,11.3335033438,25.9785484474,7.9370196784\C,13.0898037042,22
 .1734397502,10.162067045\C,13.0885226346,23.5922650154,10.1618273946\C
 ,13.0889896655,21.3967660609,11.4848028758\C,13.0823487125,24.36739021
 95,11.48278097\C,12.4125602133,22.1967613595,12.5811578548\C,12.411752
 8987,23.5616324925,12.5762133181\C,11.1579344732,20.2580864909,12.4013
 91524\C,11.1496784391,25.5019750936,12.4060562265\C,11.3165016728,21.4
 733381417,13.1302542015\C,11.3026985377,24.2775505913,13.1197887507\C,
 8.9381247225,21.4844300023,13.6327444981\C,8.9339530324,24.2712976152,
 13.6127594904\C,7.7338542341,22.1893038001,13.5196886465\C,7.718285896
 7,23.5643865806,13.538112615\C,6.6683874359,21.4057491472,12.802032003
 3\C,6.6595972146,24.364498539,12.8141230639\C,6.1751875748,22.18468700
 88,11.5661574114\C,6.1768482215,23.5997760297,11.5665445559\C,5.881903
 8696,21.4834863465,10.3821569593\C,5.8842971569,24.3041186009,10.37786
 59727\C,5.5719823963,22.1881640572,9.1929458324\C,5.5735391343,23.5995
 33331,9.1918119808\C,5.4141951586,21.4141715539,7.8657826262\C,5.40679
 49744,24.3743915149,7.861198811\C,5.9307208062,22.2172513393,6.6901663
 302\C,5.9285515894,23.5733999291,6.6890162507\C,7.0015305015,21.503633
 6316,6.0391708684\C,7.0026073727,24.2877825077,6.0381876915\C,8.023944
 0174,22.1687162102,5.3845075553\C,8.0271486454,23.6110567503,5.3816160
 423\C,9.3787789973,21.7046235057,5.4860711717\C,9.3773191978,24.065276
 0729,5.4841527452\C,12.0966643998,21.6347205335,6.5010235736\C,12.0977
 642977,24.1274784669,6.4988193485\C,10.2400679239,22.8810261256,5.4349
 169422\C,11.4933856617,22.8806637433,5.9305990522\C,10.1781877009,22.1
 528915504,13.6813036657\C,10.1818883576,23.5938476137,13.6720527665\Cl
 ,4.5139778111,19.0864452075,10.6938341712\Cl,3.6525547033,20.924456189
 4,7.6384873193\Cl,3.6425507528,24.8501686525,7.6432181119\Cl,4.5003954
 505,26.691406813,10.7217106405\Cl,5.238612824,21.013011863,13.89676540
 55\Cl,5.2303318531,24.7729832042,13.8965502407\Cl,14.8103805128,20.921
 6277752,11.9264146215\Cl,14.801076174,24.8585183717,11.9313851051\Cl,1
 3.9596359159,18.9662782304,8.461628337\Cl,13.9518647111,26.8092485761,
 8.4713010672\Cl,7.9094472734,16.8341040297,10.9417834654\Cl,13.4046489
 115,24.8440826496,5.3646122469\Cl,8.6738488912,18.8815129529,14.569345
 0728\Cl,13.4123270529,20.9224678343,5.3620951426\\Version=ES64L-G16Rev
 A.03\State=1-A\HF=-9643.8108478\RMSD=9.409e-09\RMSF=4.372e-05\Dipole=-
 0.2060383,1.514285,0.0811918\Quadrupole=-24.8437176,12.5386046,12.3051
 13,-2.3777174,16.2040087,7.2720779\PG=C01 [X(C84Cl14)]\\@


 THERE IS MUCH PLEASURE TO BE GAINED FROM USELESS KNOWLEDGE

                                       -- BERTRAND RUSSELL
 Job cpu time:       1 days 17 hours 24 minutes 16.6 seconds.
 Elapsed time:       0 days  1 hours 43 minutes 39.1 seconds.
 File lengths (MBytes):  RWF=   1429 Int=      0 D2E=      0 Chk=    179 Scr=      1
 Normal termination of Gaussian 16 at Mon Jun 27 15:39:33 2022.
