 Entering Gaussian System, Link 0=g16
 Input=16_addons_C84_14_Cl22_rank_1.gjf
 Output=16_addons_C84_14_Cl22_rank_1.log
 Initial command:
 /home/mkliu/g16/l1.exe "/data/scratch/Gau-224932.inp" -scrdir="/data/scratch/"
 Entering Link 1 = /home/mkliu/g16/l1.exe PID=    224933.
  
 Copyright (c) 1988,1990,1992,1993,1995,1998,2003,2009,2016,
            Gaussian, Inc.  All Rights Reserved.
  
 This is part of the Gaussian(R) 16 program.  It is based on
 the Gaussian(R) 09 system (copyright 2009, Gaussian, Inc.),
 the Gaussian(R) 03 system (copyright 2003, Gaussian, Inc.),
 the Gaussian(R) 98 system (copyright 1998, Gaussian, Inc.),
 the Gaussian(R) 94 system (copyright 1995, Gaussian, Inc.),
 the Gaussian 92(TM) system (copyright 1992, Gaussian, Inc.),
 the Gaussian 90(TM) system (copyright 1990, Gaussian, Inc.),
 the Gaussian 88(TM) system (copyright 1988, Gaussian, Inc.),
 the Gaussian 86(TM) system (copyright 1986, Carnegie Mellon
 University), and the Gaussian 82(TM) system (copyright 1983,
 Carnegie Mellon University). Gaussian is a federally registered
 trademark of Gaussian, Inc.
  
 This software contains proprietary and confidential information,
 including trade secrets, belonging to Gaussian, Inc.
  
 This software is provided under written license and may be
 used, copied, transmitted, or stored only in accord with that
 written license.
  
 The following legend is applicable only to US Government
 contracts under FAR:
  
                    RESTRICTED RIGHTS LEGEND
  
 Use, reproduction and disclosure by the US Government is
 subject to restrictions as set forth in subparagraphs (a)
 and (c) of the Commercial Computer Software - Restricted
 Rights clause in FAR 52.227-19.
  
 Gaussian, Inc.
 340 Quinnipiac St., Bldg. 40, Wallingford CT 06492
  
  
 ---------------------------------------------------------------
 Warning -- This program may not be used in any manner that
 competes with the business of Gaussian, Inc. or will provide
 assistance to any competitor of Gaussian, Inc.  The licensee
 of this program is prohibited from giving any competitor of
 Gaussian, Inc. access to this program.  By using this program,
 the user acknowledges that Gaussian, Inc. is engaged in the
 business of creating and licensing software in the field of
 computational chemistry and represents and warrants to the
 licensee that it is not a competitor of Gaussian, Inc. and that
 it will not use this program in any manner prohibited above.
 ---------------------------------------------------------------
  

 Cite this work as:
 Gaussian 16, Revision A.03,
 M. J. Frisch, G. W. Trucks, H. B. Schlegel, G. E. Scuseria, 
 M. A. Robb, J. R. Cheeseman, G. Scalmani, V. Barone, 
 G. A. Petersson, H. Nakatsuji, X. Li, M. Caricato, A. V. Marenich, 
 J. Bloino, B. G. Janesko, R. Gomperts, B. Mennucci, H. P. Hratchian, 
 J. V. Ortiz, A. F. Izmaylov, J. L. Sonnenberg, D. Williams-Young, 
 F. Ding, F. Lipparini, F. Egidi, J. Goings, B. Peng, A. Petrone, 
 T. Henderson, D. Ranasinghe, V. G. Zakrzewski, J. Gao, N. Rega, 
 G. Zheng, W. Liang, M. Hada, M. Ehara, K. Toyota, R. Fukuda, 
 J. Hasegawa, M. Ishida, T. Nakajima, Y. Honda, O. Kitao, H. Nakai, 
 T. Vreven, K. Throssell, J. A. Montgomery, Jr., J. E. Peralta, 
 F. Ogliaro, M. J. Bearpark, J. J. Heyd, E. N. Brothers, K. N. Kudin, 
 V. N. Staroverov, T. A. Keith, R. Kobayashi, J. Normand, 
 K. Raghavachari, A. P. Rendell, J. C. Burant, S. S. Iyengar, 
 J. Tomasi, M. Cossi, J. M. Millam, M. Klene, C. Adamo, R. Cammi, 
 J. W. Ochterski, R. L. Martin, K. Morokuma, O. Farkas, 
 J. B. Foresman, and D. J. Fox, Gaussian, Inc., Wallingford CT, 2016.
 
 ******************************************
 Gaussian 16:  ES64L-G16RevA.03 25-Dec-2016
                30-Jun-2022 
 ******************************************
 %mem=10GB
 %chk=16_addons_C84_14_Cl22_rank_1.chk
 %nprocshared=24
 Will use up to   24 processors via shared memory.
 ------------------------------------------------
 #P opt b3lyp/6-31G(d, p) empiricaldispersion=GD3
 ------------------------------------------------
 1/18=20,19=15,26=3,38=1/1,3;
 2/9=110,12=2,17=6,18=5,40=1/2;
 3/5=1,6=6,7=101,11=2,25=1,30=1,71=1,74=-5,124=31/1,2,3;
 4//1;
 5/5=2,38=5/2;
 6/7=2,8=2,9=2,10=2,28=1/1;
 7//1,2,3,16;
 1/18=20,19=15,26=3/3(2);
 2/9=110/2;
 99//99;
 2/9=110/2;
 3/5=1,6=6,7=101,11=2,25=1,30=1,71=1,74=-5,124=31/1,2,3;
 4/5=5,16=3,69=1/1;
 5/5=2,38=5/2;
 7//1,2,3,16;
 1/18=20,19=15,26=3/3(-5);
 2/9=110/2;
 6/7=2,8=2,9=2,10=2,19=2,28=1/1;
 99/9=1/99;
 Leave Link    1 at Thu Jun 30 02:49:28 2022, MaxMem=  1342177280 cpu:               0.7 elap:               0.1
 (Enter /home/mkliu/g16/l101.exe)
 -----
 force
 -----
 Symbolic Z-matrix:
 Charge =  0 Multiplicity = 1
 C                     8.2777    18.92758   10.54702 
 C                     12.45096   20.01361   8.91842 
 C                     8.27473   26.82234   10.54958 
 C                     12.44881   25.74052   8.92028 
 C                     7.95479   18.97164   9.14015 
 C                     11.85292   19.57805   10.22441 
 C                     7.95185   26.77895   9.14268 
 C                     11.85044   26.17478   10.22654 
 C                     8.95353   19.14759   8.15526 
 C                     12.103    20.24038   11.4126 
 C                     12.10101   25.51187   11.4143 
 C                     8.95072   26.6044   8.15767 
 C                     10.28226   19.09932   8.61244 
 C                     10.27942   26.65337   8.61488 
 C                     10.61182   18.98173   10.01762 
 C                     10.60889   26.7703   10.02014 
 C                     9.61063   18.99122   11.01009 
 C                     9.60771   26.75942   11.0126 
 C                     9.88573   19.66049   12.24448 
 C                     9.88331   26.08954   12.24656 
 C                     8.79265   20.24317   12.92759 
 C                     8.79067   25.5056   12.92929 
 C                     7.48957   20.18858   12.42357 
 C                     7.48755   25.55953   12.42531 
 C                     7.22479   19.51725   11.25338 
 C                     7.22226   26.23142   11.25555 
 C                     6.12287   19.953    10.32927 
 C                     6.12067   25.79544   10.33116 
 C                     6.68954   19.5458   9.00136 
 C                     6.68703   26.20393   9.00352 
 C                     6.38357   20.21873   7.84614 
 C                     6.38157   25.53151   7.84786 
 C                     7.32217   20.31767   6.81279 
 C                     7.32024   25.43396   6.81444 
 C                     8.66692   19.89185   6.96977 
 C                     8.66467   25.86069   6.9717 
 C                     9.72044   20.60536   6.31732 
 C                     9.71873   25.14839   6.31879 
 C                     11.00999   20.58176   6.84354 
 C                     12.60398   22.18402   7.79731 
 C                     12.60346   23.57095   7.79775 
 C                     11.00826   25.17262   6.84502 
 C                     11.29379   19.79516   7.96232 
 C                     12.77672   21.47797   8.97428 
 C                     12.77568   24.27636   8.97519 
 C                     11.29147   25.95871   7.96432 
 C                     12.9957   22.17659   10.17069 
 C                     12.99518   23.57714   10.17114 
 C                     13.02989   21.41749   11.48232 
 C                     13.02879   24.33542   11.48326 
 C                     12.39652   22.21355   12.58918 
 C                     12.39602   23.53816   12.58961 
 C                     11.15131   20.2592   12.42353 
 C                     11.14934   25.49168   12.42522 
 C                     11.41976   21.39065   13.38056 
 C                     11.41864   24.35981   13.38152 
 C                     8.9578    21.50349   13.61729 
 C                     8.95677   24.24496   13.61817 
 C                     7.73294   22.19391   13.53806 
 C                     7.73243   23.55366   13.5385 
 C                     6.6936    21.40663   12.79859 
 C                     6.69249   24.34064   12.79954 
 C                     6.28246   22.17189   11.5404 
 C                     6.28194   23.57589   11.54085 
 C                     5.99503   21.47446   10.3584 
 C                     5.99398   24.27386   10.3593 
 C                     5.68781   22.17297   9.17836 
 C                     5.68728   23.57589   9.17881 
 C                     5.45383   21.40139   7.87666 
 C                     5.45272   24.34814   7.87762 
 C                     5.96692   22.19353   6.70972 
 C                     5.9664    23.55714   6.71017 
 C                     7.01567   21.50475   6.05934 
 C                     7.01464   24.24713   6.06023 
 C                     8.01212   22.17895   5.38389 
 C                     8.0116    23.57412   5.38434 
 C                     9.39353   21.62249   5.24435 
 C                     9.39258   24.13171   5.24516 
 C                     12.03628   21.63429   6.51418 
 C                     12.03535   24.12108   6.51498 
 C                     10.21635   22.87736   5.3914 
 C                     11.41794   22.87764   5.94452 
 C                     10.17783   22.17439   13.69935 
 C                     10.1773   23.57492   13.6998 
 Cl                    4.52875   19.2243   10.71193 
 Cl                    3.71149   20.98564   7.7648 
 Cl                    3.71007   24.76263   7.76602 
 Cl                    4.526     26.52267   10.71429 
 Cl                    5.21841   21.05042   13.75787 
 Cl                    5.21703   24.69512   13.75905 
 Cl                    14.73513   20.96006   11.84966 
 Cl                    14.73369   24.79389   11.8509 
 Cl                    13.90817   19.06556   8.45649 
 Cl                    13.32025   20.95341   5.44721 
 Cl                    12.15998   24.97145   14.9245 
 Cl                    12.16156   20.77857   14.92315 
 Cl                    13.90529   26.68998   8.45895 
 Cl                    13.3188   24.80362   5.44845 
 Cl                    9.65645   20.84992   3.62161 
 Cl                    9.65492   24.90554   3.62293 
 
 ITRead=  0  0  0  0  0  0  0  0  0  0  0  0  0  0  0  0  0  0  0  0
 ITRead=  0  0  0  0  0  0  0  0  0  0  0  0  0  0  0  0  0  0  0  0
 ITRead=  0  0  0  0  0  0  0  0  0  0  0  0  0  0  0  0  0  0  0  0
 ITRead=  0  0  0  0  0  0  0  0  0  0  0  0  0  0  0  0  0  0  0  0
 ITRead=  0  0  0  0  0  0  0  0  0  0  0  0  0  0  0  0  0  0  0  0
 MicOpt= -1 -1 -1 -1 -1 -1 -1 -1 -1 -1 -1 -1 -1 -1 -1 -1 -1 -1 -1 -1
 MicOpt= -1 -1 -1 -1 -1 -1 -1 -1 -1 -1 -1 -1 -1 -1 -1 -1 -1 -1 -1 -1
 MicOpt= -1 -1 -1 -1 -1 -1 -1 -1 -1 -1 -1 -1 -1 -1 -1 -1 -1 -1 -1 -1
 MicOpt= -1 -1 -1 -1 -1 -1 -1 -1 -1 -1 -1 -1 -1 -1 -1 -1 -1 -1 -1 -1
 MicOpt= -1 -1 -1 -1 -1 -1 -1 -1 -1 -1 -1 -1 -1 -1 -1 -1 -1 -1 -1 -1
 NAtoms=    100 NQM=      100 NQMF=       0 NMMI=      0 NMMIF=      0
                NMic=       0 NMicF=      0.
                    Isotopes and Nuclear Properties:
 (Nuclear quadrupole moments (NQMom) in fm**2, nuclear magnetic moments (NMagM)
  in nuclear magnetons)

  Atom         1           2           3           4           5           6           7           8           9          10
 IAtWgt=          12          12          12          12          12          12          12          12          12          12
 AtmWgt=  12.0000000  12.0000000  12.0000000  12.0000000  12.0000000  12.0000000  12.0000000  12.0000000  12.0000000  12.0000000
 NucSpn=           0           0           0           0           0           0           0           0           0           0
 AtZEff=  -0.0000000  -0.0000000  -0.0000000  -0.0000000  -0.0000000  -0.0000000  -0.0000000  -0.0000000  -0.0000000  -0.0000000
 NQMom=    0.0000000   0.0000000   0.0000000   0.0000000   0.0000000   0.0000000   0.0000000   0.0000000   0.0000000   0.0000000
 NMagM=    0.0000000   0.0000000   0.0000000   0.0000000   0.0000000   0.0000000   0.0000000   0.0000000   0.0000000   0.0000000
 AtZNuc=   6.0000000   6.0000000   6.0000000   6.0000000   6.0000000   6.0000000   6.0000000   6.0000000   6.0000000   6.0000000

  Atom        11          12          13          14          15          16          17          18          19          20
 IAtWgt=          12          12          12          12          12          12          12          12          12          12
 AtmWgt=  12.0000000  12.0000000  12.0000000  12.0000000  12.0000000  12.0000000  12.0000000  12.0000000  12.0000000  12.0000000
 NucSpn=           0           0           0           0           0           0           0           0           0           0
 AtZEff=  -0.0000000  -0.0000000  -0.0000000  -0.0000000  -0.0000000  -0.0000000  -0.0000000  -0.0000000  -0.0000000  -0.0000000
 NQMom=    0.0000000   0.0000000   0.0000000   0.0000000   0.0000000   0.0000000   0.0000000   0.0000000   0.0000000   0.0000000
 NMagM=    0.0000000   0.0000000   0.0000000   0.0000000   0.0000000   0.0000000   0.0000000   0.0000000   0.0000000   0.0000000
 AtZNuc=   6.0000000   6.0000000   6.0000000   6.0000000   6.0000000   6.0000000   6.0000000   6.0000000   6.0000000   6.0000000

  Atom        21          22          23          24          25          26          27          28          29          30
 IAtWgt=          12          12          12          12          12          12          12          12          12          12
 AtmWgt=  12.0000000  12.0000000  12.0000000  12.0000000  12.0000000  12.0000000  12.0000000  12.0000000  12.0000000  12.0000000
 NucSpn=           0           0           0           0           0           0           0           0           0           0
 AtZEff=  -0.0000000  -0.0000000  -0.0000000  -0.0000000  -0.0000000  -0.0000000  -0.0000000  -0.0000000  -0.0000000  -0.0000000
 NQMom=    0.0000000   0.0000000   0.0000000   0.0000000   0.0000000   0.0000000   0.0000000   0.0000000   0.0000000   0.0000000
 NMagM=    0.0000000   0.0000000   0.0000000   0.0000000   0.0000000   0.0000000   0.0000000   0.0000000   0.0000000   0.0000000
 AtZNuc=   6.0000000   6.0000000   6.0000000   6.0000000   6.0000000   6.0000000   6.0000000   6.0000000   6.0000000   6.0000000

  Atom        31          32          33          34          35          36          37          38          39          40
 IAtWgt=          12          12          12          12          12          12          12          12          12          12
 AtmWgt=  12.0000000  12.0000000  12.0000000  12.0000000  12.0000000  12.0000000  12.0000000  12.0000000  12.0000000  12.0000000
 NucSpn=           0           0           0           0           0           0           0           0           0           0
 AtZEff=  -0.0000000  -0.0000000  -0.0000000  -0.0000000  -0.0000000  -0.0000000  -0.0000000  -0.0000000  -0.0000000  -0.0000000
 NQMom=    0.0000000   0.0000000   0.0000000   0.0000000   0.0000000   0.0000000   0.0000000   0.0000000   0.0000000   0.0000000
 NMagM=    0.0000000   0.0000000   0.0000000   0.0000000   0.0000000   0.0000000   0.0000000   0.0000000   0.0000000   0.0000000
 AtZNuc=   6.0000000   6.0000000   6.0000000   6.0000000   6.0000000   6.0000000   6.0000000   6.0000000   6.0000000   6.0000000

  Atom        41          42          43          44          45          46          47          48          49          50
 IAtWgt=          12          12          12          12          12          12          12          12          12          12
 AtmWgt=  12.0000000  12.0000000  12.0000000  12.0000000  12.0000000  12.0000000  12.0000000  12.0000000  12.0000000  12.0000000
 NucSpn=           0           0           0           0           0           0           0           0           0           0
 AtZEff=  -0.0000000  -0.0000000  -0.0000000  -0.0000000  -0.0000000  -0.0000000  -0.0000000  -0.0000000  -0.0000000  -0.0000000
 NQMom=    0.0000000   0.0000000   0.0000000   0.0000000   0.0000000   0.0000000   0.0000000   0.0000000   0.0000000   0.0000000
 NMagM=    0.0000000   0.0000000   0.0000000   0.0000000   0.0000000   0.0000000   0.0000000   0.0000000   0.0000000   0.0000000
 AtZNuc=   6.0000000   6.0000000   6.0000000   6.0000000   6.0000000   6.0000000   6.0000000   6.0000000   6.0000000   6.0000000

  Atom        51          52          53          54          55          56          57          58          59          60
 IAtWgt=          12          12          12          12          12          12          12          12          12          12
 AtmWgt=  12.0000000  12.0000000  12.0000000  12.0000000  12.0000000  12.0000000  12.0000000  12.0000000  12.0000000  12.0000000
 NucSpn=           0           0           0           0           0           0           0           0           0           0
 AtZEff=  -0.0000000  -0.0000000  -0.0000000  -0.0000000  -0.0000000  -0.0000000  -0.0000000  -0.0000000  -0.0000000  -0.0000000
 NQMom=    0.0000000   0.0000000   0.0000000   0.0000000   0.0000000   0.0000000   0.0000000   0.0000000   0.0000000   0.0000000
 NMagM=    0.0000000   0.0000000   0.0000000   0.0000000   0.0000000   0.0000000   0.0000000   0.0000000   0.0000000   0.0000000
 AtZNuc=   6.0000000   6.0000000   6.0000000   6.0000000   6.0000000   6.0000000   6.0000000   6.0000000   6.0000000   6.0000000

  Atom        61          62          63          64          65          66          67          68          69          70
 IAtWgt=          12          12          12          12          12          12          12          12          12          12
 AtmWgt=  12.0000000  12.0000000  12.0000000  12.0000000  12.0000000  12.0000000  12.0000000  12.0000000  12.0000000  12.0000000
 NucSpn=           0           0           0           0           0           0           0           0           0           0
 AtZEff=  -0.0000000  -0.0000000  -0.0000000  -0.0000000  -0.0000000  -0.0000000  -0.0000000  -0.0000000  -0.0000000  -0.0000000
 NQMom=    0.0000000   0.0000000   0.0000000   0.0000000   0.0000000   0.0000000   0.0000000   0.0000000   0.0000000   0.0000000
 NMagM=    0.0000000   0.0000000   0.0000000   0.0000000   0.0000000   0.0000000   0.0000000   0.0000000   0.0000000   0.0000000
 AtZNuc=   6.0000000   6.0000000   6.0000000   6.0000000   6.0000000   6.0000000   6.0000000   6.0000000   6.0000000   6.0000000

  Atom        71          72          73          74          75          76          77          78          79          80
 IAtWgt=          12          12          12          12          12          12          12          12          12          12
 AtmWgt=  12.0000000  12.0000000  12.0000000  12.0000000  12.0000000  12.0000000  12.0000000  12.0000000  12.0000000  12.0000000
 NucSpn=           0           0           0           0           0           0           0           0           0           0
 AtZEff=  -0.0000000  -0.0000000  -0.0000000  -0.0000000  -0.0000000  -0.0000000  -0.0000000  -0.0000000  -0.0000000  -0.0000000
 NQMom=    0.0000000   0.0000000   0.0000000   0.0000000   0.0000000   0.0000000   0.0000000   0.0000000   0.0000000   0.0000000
 NMagM=    0.0000000   0.0000000   0.0000000   0.0000000   0.0000000   0.0000000   0.0000000   0.0000000   0.0000000   0.0000000
 AtZNuc=   6.0000000   6.0000000   6.0000000   6.0000000   6.0000000   6.0000000   6.0000000   6.0000000   6.0000000   6.0000000

  Atom        81          82          83          84          85          86          87          88          89          90
 IAtWgt=          12          12          12          12          35          35          35          35          35          35
 AtmWgt=  12.0000000  12.0000000  12.0000000  12.0000000  34.9688527  34.9688527  34.9688527  34.9688527  34.9688527  34.9688527
 NucSpn=           0           0           0           0           3           3           3           3           3           3
 AtZEff=  -0.0000000  -0.0000000  -0.0000000  -0.0000000  -0.0000000  -0.0000000  -0.0000000  -0.0000000  -0.0000000  -0.0000000
 NQMom=    0.0000000   0.0000000   0.0000000   0.0000000  -8.1650000  -8.1650000  -8.1650000  -8.1650000  -8.1650000  -8.1650000
 NMagM=    0.0000000   0.0000000   0.0000000   0.0000000   0.8218740   0.8218740   0.8218740   0.8218740   0.8218740   0.8218740
 AtZNuc=   6.0000000   6.0000000   6.0000000   6.0000000  17.0000000  17.0000000  17.0000000  17.0000000  17.0000000  17.0000000

  Atom        91          92          93          94          95          96          97          98          99         100
 IAtWgt=          35          35          35          35          35          35          35          35          35          35
 AtmWgt=  34.9688527  34.9688527  34.9688527  34.9688527  34.9688527  34.9688527  34.9688527  34.9688527  34.9688527  34.9688527
 NucSpn=           3           3           3           3           3           3           3           3           3           3
 AtZEff=  -0.0000000  -0.0000000  -0.0000000  -0.0000000  -0.0000000  -0.0000000  -0.0000000  -0.0000000  -0.0000000  -0.0000000
 NQMom=   -8.1650000  -8.1650000  -8.1650000  -8.1650000  -8.1650000  -8.1650000  -8.1650000  -8.1650000  -8.1650000  -8.1650000
 NMagM=    0.8218740   0.8218740   0.8218740   0.8218740   0.8218740   0.8218740   0.8218740   0.8218740   0.8218740   0.8218740
 AtZNuc=  17.0000000  17.0000000  17.0000000  17.0000000  17.0000000  17.0000000  17.0000000  17.0000000  17.0000000  17.0000000
 Leave Link  101 at Thu Jun 30 02:49:29 2022, MaxMem=  1342177280 cpu:               6.8 elap:               0.3
 (Enter /home/mkliu/g16/l103.exe)

 GradGradGradGradGradGradGradGradGradGradGradGradGradGradGradGradGradGrad
 Berny optimization.
 Initialization pass.
                           ----------------------------
                           !    Initial Parameters    !
                           ! (Angstroms and Degrees)  !
 --------------------------                            --------------------------
 ! Name  Definition              Value          Derivative Info.                !
 --------------------------------------------------------------------------------
 ! R1    R(1,5)                  1.4441         estimate D2E/DX2                !
 ! R2    R(1,17)                 1.4125         estimate D2E/DX2                !
 ! R3    R(1,25)                 1.3983         estimate D2E/DX2                !
 ! R4    R(2,6)                  1.501          estimate D2E/DX2                !
 ! R5    R(2,43)                 1.5169         estimate D2E/DX2                !
 ! R6    R(2,44)                 1.5012         estimate D2E/DX2                !
 ! R7    R(2,93)                 1.7988         estimate D2E/DX2                !
 ! R8    R(3,7)                  1.4441         estimate D2E/DX2                !
 ! R9    R(3,18)                 1.4125         estimate D2E/DX2                !
 ! R10   R(3,26)                 1.3983         estimate D2E/DX2                !
 ! R11   R(4,8)                  1.501          estimate D2E/DX2                !
 ! R12   R(4,45)                 1.5012         estimate D2E/DX2                !
 ! R13   R(4,46)                 1.5169         estimate D2E/DX2                !
 ! R14   R(4,97)                 1.7988         estimate D2E/DX2                !
 ! R15   R(5,9)                  1.4137         estimate D2E/DX2                !
 ! R16   R(5,29)                 1.3963         estimate D2E/DX2                !
 ! R17   R(6,10)                 1.3831         estimate D2E/DX2                !
 ! R18   R(6,15)                 1.3924         estimate D2E/DX2                !
 ! R19   R(7,12)                 1.4137         estimate D2E/DX2                !
 ! R20   R(7,30)                 1.3963         estimate D2E/DX2                !
 ! R21   R(8,11)                 1.3831         estimate D2E/DX2                !
 ! R22   R(8,16)                 1.3924         estimate D2E/DX2                !
 ! R23   R(9,13)                 1.406          estimate D2E/DX2                !
 ! R24   R(9,35)                 1.4288         estimate D2E/DX2                !
 ! R25   R(10,49)                1.4999         estimate D2E/DX2                !
 ! R26   R(10,53)                1.3885         estimate D2E/DX2                !
 ! R27   R(11,50)                1.4999         estimate D2E/DX2                !
 ! R28   R(11,54)                1.3885         estimate D2E/DX2                !
 ! R29   R(12,14)                1.406          estimate D2E/DX2                !
 ! R30   R(12,36)                1.4288         estimate D2E/DX2                !
 ! R31   R(13,15)                1.4481         estimate D2E/DX2                !
 ! R32   R(13,43)                1.3893         estimate D2E/DX2                !
 ! R33   R(14,16)                1.4481         estimate D2E/DX2                !
 ! R34   R(14,46)                1.3893         estimate D2E/DX2                !
 ! R35   R(15,17)                1.4098         estimate D2E/DX2                !
 ! R36   R(16,18)                1.4098         estimate D2E/DX2                !
 ! R37   R(17,19)                1.4308         estimate D2E/DX2                !
 ! R38   R(18,20)                1.4308         estimate D2E/DX2                !
 ! R39   R(19,21)                1.4146         estimate D2E/DX2                !
 ! R40   R(19,53)                1.4115         estimate D2E/DX2                !
 ! R41   R(20,22)                1.4146         estimate D2E/DX2                !
 ! R42   R(20,54)                1.4115         estimate D2E/DX2                !
 ! R43   R(21,23)                1.3982         estimate D2E/DX2                !
 ! R44   R(21,57)                1.4462         estimate D2E/DX2                !
 ! R45   R(22,24)                1.3982         estimate D2E/DX2                !
 ! R46   R(22,58)                1.4462         estimate D2E/DX2                !
 ! R47   R(23,25)                1.3748         estimate D2E/DX2                !
 ! R48   R(23,61)                1.5026         estimate D2E/DX2                !
 ! R49   R(24,26)                1.3748         estimate D2E/DX2                !
 ! R50   R(24,62)                1.5026         estimate D2E/DX2                !
 ! R51   R(25,27)                1.5027         estimate D2E/DX2                !
 ! R52   R(26,28)                1.5027         estimate D2E/DX2                !
 ! R53   R(27,29)                1.5001         estimate D2E/DX2                !
 ! R54   R(27,65)                1.5271         estimate D2E/DX2                !
 ! R55   R(27,85)                1.7941         estimate D2E/DX2                !
 ! R56   R(28,30)                1.5001         estimate D2E/DX2                !
 ! R57   R(28,66)                1.5271         estimate D2E/DX2                !
 ! R58   R(28,88)                1.7941         estimate D2E/DX2                !
 ! R59   R(29,31)                1.3715         estimate D2E/DX2                !
 ! R60   R(30,32)                1.3715         estimate D2E/DX2                !
 ! R61   R(31,33)                1.3995         estimate D2E/DX2                !
 ! R62   R(31,69)                1.5047         estimate D2E/DX2                !
 ! R63   R(32,34)                1.3995         estimate D2E/DX2                !
 ! R64   R(32,70)                1.5047         estimate D2E/DX2                !
 ! R65   R(33,35)                1.4193         estimate D2E/DX2                !
 ! R66   R(33,73)                1.439          estimate D2E/DX2                !
 ! R67   R(34,36)                1.4193         estimate D2E/DX2                !
 ! R68   R(34,74)                1.439          estimate D2E/DX2                !
 ! R69   R(35,37)                1.4299         estimate D2E/DX2                !
 ! R70   R(36,38)                1.4299         estimate D2E/DX2                !
 ! R71   R(37,39)                1.393          estimate D2E/DX2                !
 ! R72   R(37,77)                1.5142         estimate D2E/DX2                !
 ! R73   R(38,42)                1.393          estimate D2E/DX2                !
 ! R74   R(38,78)                1.5142         estimate D2E/DX2                !
 ! R75   R(39,43)                1.3968         estimate D2E/DX2                !
 ! R76   R(39,79)                1.5065         estimate D2E/DX2                !
 ! R77   R(40,41)                1.3869         estimate D2E/DX2                !
 ! R78   R(40,44)                1.3833         estimate D2E/DX2                !
 ! R79   R(40,79)                1.507          estimate D2E/DX2                !
 ! R80   R(41,45)                1.3833         estimate D2E/DX2                !
 ! R81   R(41,80)                1.507          estimate D2E/DX2                !
 ! R82   R(42,46)                1.3968         estimate D2E/DX2                !
 ! R83   R(42,80)                1.5065         estimate D2E/DX2                !
 ! R84   R(44,47)                1.4026         estimate D2E/DX2                !
 ! R85   R(45,48)                1.4026         estimate D2E/DX2                !
 ! R86   R(47,48)                1.4005         estimate D2E/DX2                !
 ! R87   R(47,49)                1.5158         estimate D2E/DX2                !
 ! R88   R(48,50)                1.5158         estimate D2E/DX2                !
 ! R89   R(49,51)                1.5033         estimate D2E/DX2                !
 ! R90   R(49,91)                1.8033         estimate D2E/DX2                !
 ! R91   R(50,52)                1.5033         estimate D2E/DX2                !
 ! R92   R(50,92)                1.8033         estimate D2E/DX2                !
 ! R93   R(51,52)                1.3246         estimate D2E/DX2                !
 ! R94   R(51,55)                1.5025         estimate D2E/DX2                !
 ! R95   R(52,56)                1.5025         estimate D2E/DX2                !
 ! R96   R(53,55)                1.506          estimate D2E/DX2                !
 ! R97   R(54,56)                1.506          estimate D2E/DX2                !
 ! R98   R(55,83)                1.5028         estimate D2E/DX2                !
 ! R99   R(55,96)                1.8178         estimate D2E/DX2                !
 ! R100  R(56,84)                1.5028         estimate D2E/DX2                !
 ! R101  R(56,95)                1.8178         estimate D2E/DX2                !
 ! R102  R(57,59)                1.4083         estimate D2E/DX2                !
 ! R103  R(57,83)                1.3948         estimate D2E/DX2                !
 ! R104  R(58,60)                1.4083         estimate D2E/DX2                !
 ! R105  R(58,84)                1.3948         estimate D2E/DX2                !
 ! R106  R(59,60)                1.3598         estimate D2E/DX2                !
 ! R107  R(59,61)                1.499          estimate D2E/DX2                !
 ! R108  R(60,62)                1.499          estimate D2E/DX2                !
 ! R109  R(61,63)                1.529          estimate D2E/DX2                !
 ! R110  R(61,89)                1.7954         estimate D2E/DX2                !
 ! R111  R(62,64)                1.529          estimate D2E/DX2                !
 ! R112  R(62,90)                1.7954         estimate D2E/DX2                !
 ! R113  R(63,64)                1.404          estimate D2E/DX2                !
 ! R114  R(63,65)                1.4022         estimate D2E/DX2                !
 ! R115  R(64,66)                1.4022         estimate D2E/DX2                !
 ! R116  R(65,67)                1.4053         estimate D2E/DX2                !
 ! R117  R(66,68)                1.4053         estimate D2E/DX2                !
 ! R118  R(67,68)                1.4029         estimate D2E/DX2                !
 ! R119  R(67,69)                1.5312         estimate D2E/DX2                !
 ! R120  R(68,70)                1.5312         estimate D2E/DX2                !
 ! R121  R(69,71)                1.5008         estimate D2E/DX2                !
 ! R122  R(69,86)                1.7947         estimate D2E/DX2                !
 ! R123  R(70,72)                1.5008         estimate D2E/DX2                !
 ! R124  R(70,87)                1.7947         estimate D2E/DX2                !
 ! R125  R(71,72)                1.3636         estimate D2E/DX2                !
 ! R126  R(71,73)                1.4133         estimate D2E/DX2                !
 ! R127  R(72,74)                1.4133         estimate D2E/DX2                !
 ! R128  R(73,75)                1.3797         estimate D2E/DX2                !
 ! R129  R(74,76)                1.3797         estimate D2E/DX2                !
 ! R130  R(75,76)                1.3952         estimate D2E/DX2                !
 ! R131  R(75,77)                1.4958         estimate D2E/DX2                !
 ! R132  R(76,78)                1.4958         estimate D2E/DX2                !
 ! R133  R(77,81)                1.5078         estimate D2E/DX2                !
 ! R134  R(77,99)                1.8164         estimate D2E/DX2                !
 ! R135  R(78,81)                1.5078         estimate D2E/DX2                !
 ! R136  R(78,100)               1.8164         estimate D2E/DX2                !
 ! R137  R(79,82)                1.5009         estimate D2E/DX2                !
 ! R138  R(79,94)                1.8029         estimate D2E/DX2                !
 ! R139  R(80,82)                1.5009         estimate D2E/DX2                !
 ! R140  R(80,98)                1.8029         estimate D2E/DX2                !
 ! R141  R(81,82)                1.3228         estimate D2E/DX2                !
 ! R142  R(83,84)                1.4005         estimate D2E/DX2                !
 ! A1    A(5,1,17)             121.9382         estimate D2E/DX2                !
 ! A2    A(5,1,25)             108.1126         estimate D2E/DX2                !
 ! A3    A(17,1,25)            121.7333         estimate D2E/DX2                !
 ! A4    A(6,2,43)             101.6939         estimate D2E/DX2                !
 ! A5    A(6,2,44)             109.7031         estimate D2E/DX2                !
 ! A6    A(6,2,93)             113.1582         estimate D2E/DX2                !
 ! A7    A(43,2,44)            109.2366         estimate D2E/DX2                !
 ! A8    A(43,2,93)            112.3485         estimate D2E/DX2                !
 ! A9    A(44,2,93)            110.3577         estimate D2E/DX2                !
 ! A10   A(7,3,18)             121.9381         estimate D2E/DX2                !
 ! A11   A(7,3,26)             108.1126         estimate D2E/DX2                !
 ! A12   A(18,3,26)            121.7333         estimate D2E/DX2                !
 ! A13   A(8,4,45)             109.7033         estimate D2E/DX2                !
 ! A14   A(8,4,46)             101.6938         estimate D2E/DX2                !
 ! A15   A(8,4,97)             113.1582         estimate D2E/DX2                !
 ! A16   A(45,4,46)            109.2366         estimate D2E/DX2                !
 ! A17   A(45,4,97)            110.3578         estimate D2E/DX2                !
 ! A18   A(46,4,97)            112.3483         estimate D2E/DX2                !
 ! A19   A(1,5,9)              121.6377         estimate D2E/DX2                !
 ! A20   A(1,5,29)             108.1786         estimate D2E/DX2                !
 ! A21   A(9,5,29)             121.3146         estimate D2E/DX2                !
 ! A22   A(2,6,10)             122.443          estimate D2E/DX2                !
 ! A23   A(2,6,15)             110.4997         estimate D2E/DX2                !
 ! A24   A(10,6,15)            119.593          estimate D2E/DX2                !
 ! A25   A(3,7,12)             121.6377         estimate D2E/DX2                !
 ! A26   A(3,7,30)             108.1786         estimate D2E/DX2                !
 ! A27   A(12,7,30)            121.3146         estimate D2E/DX2                !
 ! A28   A(4,8,11)             122.443          estimate D2E/DX2                !
 ! A29   A(4,8,16)             110.4997         estimate D2E/DX2                !
 ! A30   A(11,8,16)            119.593          estimate D2E/DX2                !
 ! A31   A(5,9,13)             115.903          estimate D2E/DX2                !
 ! A32   A(5,9,35)             120.0772         estimate D2E/DX2                !
 ! A33   A(13,9,35)            118.5054         estimate D2E/DX2                !
 ! A34   A(6,10,49)            121.836          estimate D2E/DX2                !
 ! A35   A(6,10,53)            120.5317         estimate D2E/DX2                !
 ! A36   A(49,10,53)           112.2768         estimate D2E/DX2                !
 ! A37   A(8,11,50)            121.836          estimate D2E/DX2                !
 ! A38   A(8,11,54)            120.5317         estimate D2E/DX2                !
 ! A39   A(50,11,54)           112.2768         estimate D2E/DX2                !
 ! A40   A(7,12,14)            115.903          estimate D2E/DX2                !
 ! A41   A(7,12,36)            120.0771         estimate D2E/DX2                !
 ! A42   A(14,12,36)           118.5054         estimate D2E/DX2                !
 ! A43   A(9,13,15)            122.2344         estimate D2E/DX2                !
 ! A44   A(9,13,43)            121.2473         estimate D2E/DX2                !
 ! A45   A(15,13,43)           109.2118         estimate D2E/DX2                !
 ! A46   A(12,14,16)           122.2344         estimate D2E/DX2                !
 ! A47   A(12,14,46)           121.2472         estimate D2E/DX2                !
 ! A48   A(16,14,46)           109.2118         estimate D2E/DX2                !
 ! A49   A(6,15,13)            108.1916         estimate D2E/DX2                !
 ! A50   A(6,15,17)            121.7077         estimate D2E/DX2                !
 ! A51   A(13,15,17)           121.3969         estimate D2E/DX2                !
 ! A52   A(8,16,14)            108.1916         estimate D2E/DX2                !
 ! A53   A(8,16,18)            121.7077         estimate D2E/DX2                !
 ! A54   A(14,16,18)           121.3968         estimate D2E/DX2                !
 ! A55   A(1,17,15)            116.0446         estimate D2E/DX2                !
 ! A56   A(1,17,19)            119.0336         estimate D2E/DX2                !
 ! A57   A(15,17,19)           118.2903         estimate D2E/DX2                !
 ! A58   A(3,18,16)            116.0446         estimate D2E/DX2                !
 ! A59   A(3,18,20)            119.0335         estimate D2E/DX2                !
 ! A60   A(16,18,20)           118.2903         estimate D2E/DX2                !
 ! A61   A(17,19,21)           117.4328         estimate D2E/DX2                !
 ! A62   A(17,19,53)           118.7011         estimate D2E/DX2                !
 ! A63   A(21,19,53)           117.1868         estimate D2E/DX2                !
 ! A64   A(18,20,22)           117.4328         estimate D2E/DX2                !
 ! A65   A(18,20,54)           118.7011         estimate D2E/DX2                !
 ! A66   A(22,20,54)           117.1868         estimate D2E/DX2                !
 ! A67   A(19,21,23)           122.0057         estimate D2E/DX2                !
 ! A68   A(19,21,57)           120.0691         estimate D2E/DX2                !
 ! A69   A(23,21,57)           108.2017         estimate D2E/DX2                !
 ! A70   A(20,22,24)           122.0057         estimate D2E/DX2                !
 ! A71   A(20,22,58)           120.0691         estimate D2E/DX2                !
 ! A72   A(24,22,58)           108.2017         estimate D2E/DX2                !
 ! A73   A(21,23,25)           120.3554         estimate D2E/DX2                !
 ! A74   A(21,23,61)           111.8435         estimate D2E/DX2                !
 ! A75   A(25,23,61)           120.4133         estimate D2E/DX2                !
 ! A76   A(22,24,26)           120.3555         estimate D2E/DX2                !
 ! A77   A(22,24,62)           111.8435         estimate D2E/DX2                !
 ! A78   A(26,24,62)           120.4133         estimate D2E/DX2                !
 ! A79   A(1,25,23)            119.3972         estimate D2E/DX2                !
 ! A80   A(1,25,27)            111.3339         estimate D2E/DX2                !
 ! A81   A(23,25,27)           121.5379         estimate D2E/DX2                !
 ! A82   A(3,26,24)            119.3971         estimate D2E/DX2                !
 ! A83   A(3,26,28)            111.3338         estimate D2E/DX2                !
 ! A84   A(24,26,28)           121.5378         estimate D2E/DX2                !
 ! A85   A(25,27,29)           100.8742         estimate D2E/DX2                !
 ! A86   A(25,27,65)           109.7897         estimate D2E/DX2                !
 ! A87   A(25,27,85)           113.7426         estimate D2E/DX2                !
 ! A88   A(29,27,65)           108.5997         estimate D2E/DX2                !
 ! A89   A(29,27,85)           114.4699         estimate D2E/DX2                !
 ! A90   A(65,27,85)           109.0395         estimate D2E/DX2                !
 ! A91   A(26,28,30)           100.8742         estimate D2E/DX2                !
 ! A92   A(26,28,66)           109.7896         estimate D2E/DX2                !
 ! A93   A(26,28,88)           113.7428         estimate D2E/DX2                !
 ! A94   A(30,28,66)           108.5996         estimate D2E/DX2                !
 ! A95   A(30,28,88)           114.4699         estimate D2E/DX2                !
 ! A96   A(66,28,88)           109.0395         estimate D2E/DX2                !
 ! A97   A(5,29,27)            111.4646         estimate D2E/DX2                !
 ! A98   A(5,29,31)            119.1842         estimate D2E/DX2                !
 ! A99   A(27,29,31)           121.8816         estimate D2E/DX2                !
 ! A100  A(7,30,28)            111.4646         estimate D2E/DX2                !
 ! A101  A(7,30,32)            119.1845         estimate D2E/DX2                !
 ! A102  A(28,30,32)           121.8814         estimate D2E/DX2                !
 ! A103  A(29,31,33)           120.4648         estimate D2E/DX2                !
 ! A104  A(29,31,69)           120.4253         estimate D2E/DX2                !
 ! A105  A(33,31,69)           111.9516         estimate D2E/DX2                !
 ! A106  A(30,32,34)           120.4646         estimate D2E/DX2                !
 ! A107  A(30,32,70)           120.4254         estimate D2E/DX2                !
 ! A108  A(34,32,70)           111.9516         estimate D2E/DX2                !
 ! A109  A(31,33,35)           122.1797         estimate D2E/DX2                !
 ! A110  A(31,33,73)           107.5821         estimate D2E/DX2                !
 ! A111  A(35,33,73)           120.4788         estimate D2E/DX2                !
 ! A112  A(32,34,36)           122.1799         estimate D2E/DX2                !
 ! A113  A(32,34,74)           107.5819         estimate D2E/DX2                !
 ! A114  A(36,34,74)           120.4788         estimate D2E/DX2                !
 ! A115  A(9,35,33)            115.9842         estimate D2E/DX2                !
 ! A116  A(9,35,37)            119.3871         estimate D2E/DX2                !
 ! A117  A(33,35,37)           119.8616         estimate D2E/DX2                !
 ! A118  A(12,36,34)           115.9842         estimate D2E/DX2                !
 ! A119  A(12,36,38)           119.387          estimate D2E/DX2                !
 ! A120  A(34,36,38)           119.8618         estimate D2E/DX2                !
 ! A121  A(35,37,39)           120.0822         estimate D2E/DX2                !
 ! A122  A(35,37,77)           119.9633         estimate D2E/DX2                !
 ! A123  A(39,37,77)           118.6166         estimate D2E/DX2                !
 ! A124  A(36,38,42)           120.0823         estimate D2E/DX2                !
 ! A125  A(36,38,78)           119.9632         estimate D2E/DX2                !
 ! A126  A(42,38,78)           118.6166         estimate D2E/DX2                !
 ! A127  A(37,39,43)           120.0144         estimate D2E/DX2                !
 ! A128  A(37,39,79)           122.4273         estimate D2E/DX2                !
 ! A129  A(43,39,79)           115.4771         estimate D2E/DX2                !
 ! A130  A(41,40,44)           120.6749         estimate D2E/DX2                !
 ! A131  A(41,40,79)           111.4031         estimate D2E/DX2                !
 ! A132  A(44,40,79)           125.8249         estimate D2E/DX2                !
 ! A133  A(40,41,45)           120.6747         estimate D2E/DX2                !
 ! A134  A(40,41,80)           111.4031         estimate D2E/DX2                !
 ! A135  A(45,41,80)           125.8249         estimate D2E/DX2                !
 ! A136  A(38,42,46)           120.0143         estimate D2E/DX2                !
 ! A137  A(38,42,80)           122.4274         estimate D2E/DX2                !
 ! A138  A(46,42,80)           115.4771         estimate D2E/DX2                !
 ! A139  A(2,43,13)            109.4279         estimate D2E/DX2                !
 ! A140  A(2,43,39)            125.3641         estimate D2E/DX2                !
 ! A141  A(13,43,39)           120.5945         estimate D2E/DX2                !
 ! A142  A(2,44,40)            116.0473         estimate D2E/DX2                !
 ! A143  A(2,44,47)            123.4677         estimate D2E/DX2                !
 ! A144  A(40,44,47)           119.4069         estimate D2E/DX2                !
 ! A145  A(4,45,41)            116.0473         estimate D2E/DX2                !
 ! A146  A(4,45,48)            123.4676         estimate D2E/DX2                !
 ! A147  A(41,45,48)           119.4068         estimate D2E/DX2                !
 ! A148  A(4,46,14)            109.4279         estimate D2E/DX2                !
 ! A149  A(4,46,42)            125.3641         estimate D2E/DX2                !
 ! A150  A(14,46,42)           120.5946         estimate D2E/DX2                !
 ! A151  A(44,47,48)           119.8868         estimate D2E/DX2                !
 ! A152  A(44,47,49)           119.4819         estimate D2E/DX2                !
 ! A153  A(48,47,49)           120.0339         estimate D2E/DX2                !
 ! A154  A(45,48,47)           119.887          estimate D2E/DX2                !
 ! A155  A(45,48,50)           119.482          estimate D2E/DX2                !
 ! A156  A(47,48,50)           120.0337         estimate D2E/DX2                !
 ! A157  A(10,49,47)           109.8076         estimate D2E/DX2                !
 ! A158  A(10,49,51)           100.9205         estimate D2E/DX2                !
 ! A159  A(10,49,91)           113.2516         estimate D2E/DX2                !
 ! A160  A(47,49,51)           111.2476         estimate D2E/DX2                !
 ! A161  A(47,49,91)           108.9418         estimate D2E/DX2                !
 ! A162  A(51,49,91)           112.5027         estimate D2E/DX2                !
 ! A163  A(11,50,48)           109.8076         estimate D2E/DX2                !
 ! A164  A(11,50,52)           100.9205         estimate D2E/DX2                !
 ! A165  A(11,50,92)           113.2515         estimate D2E/DX2                !
 ! A166  A(48,50,52)           111.2477         estimate D2E/DX2                !
 ! A167  A(48,50,92)           108.9418         estimate D2E/DX2                !
 ! A168  A(52,50,92)           112.5027         estimate D2E/DX2                !
 ! A169  A(49,51,52)           122.0006         estimate D2E/DX2                !
 ! A170  A(49,51,55)           111.8186         estimate D2E/DX2                !
 ! A171  A(52,51,55)           123.18           estimate D2E/DX2                !
 ! A172  A(50,52,51)           122.0008         estimate D2E/DX2                !
 ! A173  A(50,52,56)           111.8186         estimate D2E/DX2                !
 ! A174  A(51,52,56)           123.1799         estimate D2E/DX2                !
 ! A175  A(10,53,19)           121.0941         estimate D2E/DX2                !
 ! A176  A(10,53,55)           110.528          estimate D2E/DX2                !
 ! A177  A(19,53,55)           123.9943         estimate D2E/DX2                !
 ! A178  A(11,54,20)           121.0941         estimate D2E/DX2                !
 ! A179  A(11,54,56)           110.528          estimate D2E/DX2                !
 ! A180  A(20,54,56)           123.9943         estimate D2E/DX2                !
 ! A181  A(51,55,53)           101.1067         estimate D2E/DX2                !
 ! A182  A(51,55,83)           111.3062         estimate D2E/DX2                !
 ! A183  A(51,55,96)           111.4744         estimate D2E/DX2                !
 ! A184  A(53,55,83)           112.2912         estimate D2E/DX2                !
 ! A185  A(53,55,96)           111.0403         estimate D2E/DX2                !
 ! A186  A(83,55,96)           109.441          estimate D2E/DX2                !
 ! A187  A(52,56,54)           101.1067         estimate D2E/DX2                !
 ! A188  A(52,56,84)           111.3062         estimate D2E/DX2                !
 ! A189  A(52,56,95)           111.4744         estimate D2E/DX2                !
 ! A190  A(54,56,84)           112.2912         estimate D2E/DX2                !
 ! A191  A(54,56,95)           111.0402         estimate D2E/DX2                !
 ! A192  A(84,56,95)           109.441          estimate D2E/DX2                !
 ! A193  A(21,57,59)           107.524          estimate D2E/DX2                !
 ! A194  A(21,57,83)           123.1724         estimate D2E/DX2                !
 ! A195  A(59,57,83)           121.8898         estimate D2E/DX2                !
 ! A196  A(22,58,60)           107.524          estimate D2E/DX2                !
 ! A197  A(22,58,84)           123.1725         estimate D2E/DX2                !
 ! A198  A(60,58,84)           121.8898         estimate D2E/DX2                !
 ! A199  A(57,59,60)           119.3782         estimate D2E/DX2                !
 ! A200  A(57,59,61)           111.9212         estimate D2E/DX2                !
 ! A201  A(60,59,61)           121.6763         estimate D2E/DX2                !
 ! A202  A(58,60,59)           119.3782         estimate D2E/DX2                !
 ! A203  A(58,60,62)           111.9212         estimate D2E/DX2                !
 ! A204  A(59,60,62)           121.6763         estimate D2E/DX2                !
 ! A205  A(23,61,59)           100.4614         estimate D2E/DX2                !
 ! A206  A(23,61,63)           110.0469         estimate D2E/DX2                !
 ! A207  A(23,61,89)           114.0655         estimate D2E/DX2                !
 ! A208  A(59,61,63)           109.2403         estimate D2E/DX2                !
 ! A209  A(59,61,89)           114.2268         estimate D2E/DX2                !
 ! A210  A(63,61,89)           108.5449         estimate D2E/DX2                !
 ! A211  A(24,62,60)           100.4614         estimate D2E/DX2                !
 ! A212  A(24,62,64)           110.0468         estimate D2E/DX2                !
 ! A213  A(24,62,90)           114.0656         estimate D2E/DX2                !
 ! A214  A(60,62,64)           109.2402         estimate D2E/DX2                !
 ! A215  A(60,62,90)           114.227          estimate D2E/DX2                !
 ! A216  A(64,62,90)           108.5449         estimate D2E/DX2                !
 ! A217  A(61,63,64)           120.023          estimate D2E/DX2                !
 ! A218  A(61,63,65)           119.9908         estimate D2E/DX2                !
 ! A219  A(64,63,65)           119.8398         estimate D2E/DX2                !
 ! A220  A(62,64,63)           120.0229         estimate D2E/DX2                !
 ! A221  A(62,64,66)           119.9907         estimate D2E/DX2                !
 ! A222  A(63,64,66)           119.8399         estimate D2E/DX2                !
 ! A223  A(27,65,63)           119.6343         estimate D2E/DX2                !
 ! A224  A(27,65,67)           119.8355         estimate D2E/DX2                !
 ! A225  A(63,65,67)           120.3607         estimate D2E/DX2                !
 ! A226  A(28,66,64)           119.6343         estimate D2E/DX2                !
 ! A227  A(28,66,68)           119.8356         estimate D2E/DX2                !
 ! A228  A(64,66,68)           120.3608         estimate D2E/DX2                !
 ! A229  A(65,67,68)           119.7933         estimate D2E/DX2                !
 ! A230  A(65,67,69)           119.7887         estimate D2E/DX2                !
 ! A231  A(68,67,69)           120.2738         estimate D2E/DX2                !
 ! A232  A(66,68,67)           119.7932         estimate D2E/DX2                !
 ! A233  A(66,68,70)           119.7886         estimate D2E/DX2                !
 ! A234  A(67,68,70)           120.274          estimate D2E/DX2                !
 ! A235  A(31,69,67)           108.5963         estimate D2E/DX2                !
 ! A236  A(31,69,71)           100.8265         estimate D2E/DX2                !
 ! A237  A(31,69,86)           114.6155         estimate D2E/DX2                !
 ! A238  A(67,69,71)           110.0471         estimate D2E/DX2                !
 ! A239  A(67,69,86)           108.5457         estimate D2E/DX2                !
 ! A240  A(71,69,86)           113.9342         estimate D2E/DX2                !
 ! A241  A(32,70,68)           108.5964         estimate D2E/DX2                !
 ! A242  A(32,70,72)           100.8266         estimate D2E/DX2                !
 ! A243  A(32,70,87)           114.6156         estimate D2E/DX2                !
 ! A244  A(68,70,72)           110.0469         estimate D2E/DX2                !
 ! A245  A(68,70,87)           108.5458         estimate D2E/DX2                !
 ! A246  A(72,70,87)           113.934          estimate D2E/DX2                !
 ! A247  A(69,71,72)           121.8314         estimate D2E/DX2                !
 ! A248  A(69,71,73)           110.7493         estimate D2E/DX2                !
 ! A249  A(72,71,73)           119.1959         estimate D2E/DX2                !
 ! A250  A(70,72,71)           121.8316         estimate D2E/DX2                !
 ! A251  A(70,72,74)           110.749          estimate D2E/DX2                !
 ! A252  A(71,72,74)           119.1961         estimate D2E/DX2                !
 ! A253  A(33,73,71)           108.6111         estimate D2E/DX2                !
 ! A254  A(33,73,75)           120.3703         estimate D2E/DX2                !
 ! A255  A(71,73,75)           121.5387         estimate D2E/DX2                !
 ! A256  A(34,74,72)           108.6115         estimate D2E/DX2                !
 ! A257  A(34,74,76)           120.3702         estimate D2E/DX2                !
 ! A258  A(72,74,76)           121.5388         estimate D2E/DX2                !
 ! A259  A(73,75,76)           119.223          estimate D2E/DX2                !
 ! A260  A(73,75,77)           122.0635         estimate D2E/DX2                !
 ! A261  A(76,75,77)           111.8633         estimate D2E/DX2                !
 ! A262  A(74,76,75)           119.2228         estimate D2E/DX2                !
 ! A263  A(74,76,78)           122.0636         estimate D2E/DX2                !
 ! A264  A(75,76,78)           111.8633         estimate D2E/DX2                !
 ! A265  A(37,77,75)           112.5312         estimate D2E/DX2                !
 ! A266  A(37,77,81)           111.8472         estimate D2E/DX2                !
 ! A267  A(37,77,99)           108.4275         estimate D2E/DX2                !
 ! A268  A(75,77,81)           100.6771         estimate D2E/DX2                !
 ! A269  A(75,77,99)           112.04           estimate D2E/DX2                !
 ! A270  A(81,77,99)           111.2315         estimate D2E/DX2                !
 ! A271  A(38,78,76)           112.5312         estimate D2E/DX2                !
 ! A272  A(38,78,81)           111.8471         estimate D2E/DX2                !
 ! A273  A(38,78,100)          108.4274         estimate D2E/DX2                !
 ! A274  A(76,78,81)           100.6771         estimate D2E/DX2                !
 ! A275  A(76,78,100)          112.0401         estimate D2E/DX2                !
 ! A276  A(81,78,100)          111.2316         estimate D2E/DX2                !
 ! A277  A(39,79,40)           108.9867         estimate D2E/DX2                !
 ! A278  A(39,79,82)           112.4007         estimate D2E/DX2                !
 ! A279  A(39,79,94)           110.5289         estimate D2E/DX2                !
 ! A280  A(40,79,82)           100.1471         estimate D2E/DX2                !
 ! A281  A(40,79,94)           111.924          estimate D2E/DX2                !
 ! A282  A(82,79,94)           112.4341         estimate D2E/DX2                !
 ! A283  A(41,80,42)           108.9866         estimate D2E/DX2                !
 ! A284  A(41,80,82)           100.1471         estimate D2E/DX2                !
 ! A285  A(41,80,98)           111.9242         estimate D2E/DX2                !
 ! A286  A(42,80,82)           112.4007         estimate D2E/DX2                !
 ! A287  A(42,80,98)           110.5287         estimate D2E/DX2                !
 ! A288  A(82,80,98)           112.4341         estimate D2E/DX2                !
 ! A289  A(77,81,78)           112.6294         estimate D2E/DX2                !
 ! A290  A(77,81,82)           122.4578         estimate D2E/DX2                !
 ! A291  A(78,81,82)           122.4579         estimate D2E/DX2                !
 ! A292  A(79,82,80)           111.8737         estimate D2E/DX2                !
 ! A293  A(79,82,81)           122.1921         estimate D2E/DX2                !
 ! A294  A(80,82,81)           122.1921         estimate D2E/DX2                !
 ! A295  A(55,83,57)           117.3585         estimate D2E/DX2                !
 ! A296  A(55,83,84)           121.4611         estimate D2E/DX2                !
 ! A297  A(57,83,84)           118.7319         estimate D2E/DX2                !
 ! A298  A(56,84,58)           117.3585         estimate D2E/DX2                !
 ! A299  A(56,84,83)           121.4611         estimate D2E/DX2                !
 ! A300  A(58,84,83)           118.7319         estimate D2E/DX2                !
 ! D1    D(17,1,5,9)            -3.1858         estimate D2E/DX2                !
 ! D2    D(17,1,5,29)         -150.8412         estimate D2E/DX2                !
 ! D3    D(25,1,5,9)           145.685          estimate D2E/DX2                !
 ! D4    D(25,1,5,29)           -1.9704         estimate D2E/DX2                !
 ! D5    D(5,1,17,15)           -5.3672         estimate D2E/DX2                !
 ! D6    D(5,1,17,19)          145.6286         estimate D2E/DX2                !
 ! D7    D(25,1,17,15)        -150.077          estimate D2E/DX2                !
 ! D8    D(25,1,17,19)           0.9188         estimate D2E/DX2                !
 ! D9    D(5,1,25,23)         -148.3315         estimate D2E/DX2                !
 ! D10   D(5,1,25,27)            1.5032         estimate D2E/DX2                !
 ! D11   D(17,1,25,23)           0.616          estimate D2E/DX2                !
 ! D12   D(17,1,25,27)         150.4507         estimate D2E/DX2                !
 ! D13   D(43,2,6,10)         -140.7142         estimate D2E/DX2                !
 ! D14   D(43,2,6,15)            8.8719         estimate D2E/DX2                !
 ! D15   D(44,2,6,10)          -25.1515         estimate D2E/DX2                !
 ! D16   D(44,2,6,15)          124.4346         estimate D2E/DX2                !
 ! D17   D(93,2,6,10)           98.5646         estimate D2E/DX2                !
 ! D18   D(93,2,6,15)         -111.8493         estimate D2E/DX2                !
 ! D19   D(6,2,43,13)           -9.7945         estimate D2E/DX2                !
 ! D20   D(6,2,43,39)          146.005          estimate D2E/DX2                !
 ! D21   D(44,2,43,13)        -125.6994         estimate D2E/DX2                !
 ! D22   D(44,2,43,39)          30.1001         estimate D2E/DX2                !
 ! D23   D(93,2,43,13)         111.4918         estimate D2E/DX2                !
 ! D24   D(93,2,43,39)         -92.7086         estimate D2E/DX2                !
 ! D25   D(6,2,44,40)         -144.7334         estimate D2E/DX2                !
 ! D26   D(6,2,44,47)           23.2937         estimate D2E/DX2                !
 ! D27   D(43,2,44,40)         -34.0635         estimate D2E/DX2                !
 ! D28   D(43,2,44,47)         133.9637         estimate D2E/DX2                !
 ! D29   D(93,2,44,40)          89.9257         estimate D2E/DX2                !
 ! D30   D(93,2,44,47)        -102.0471         estimate D2E/DX2                !
 ! D31   D(18,3,7,12)            3.1859         estimate D2E/DX2                !
 ! D32   D(18,3,7,30)          150.8412         estimate D2E/DX2                !
 ! D33   D(26,3,7,12)         -145.685          estimate D2E/DX2                !
 ! D34   D(26,3,7,30)            1.9703         estimate D2E/DX2                !
 ! D35   D(7,3,18,16)            5.3672         estimate D2E/DX2                !
 ! D36   D(7,3,18,20)         -145.6287         estimate D2E/DX2                !
 ! D37   D(26,3,18,16)         150.0771         estimate D2E/DX2                !
 ! D38   D(26,3,18,20)          -0.9188         estimate D2E/DX2                !
 ! D39   D(7,3,26,24)          148.3314         estimate D2E/DX2                !
 ! D40   D(7,3,26,28)           -1.5029         estimate D2E/DX2                !
 ! D41   D(18,3,26,24)          -0.6162         estimate D2E/DX2                !
 ! D42   D(18,3,26,28)        -150.4505         estimate D2E/DX2                !
 ! D43   D(45,4,8,11)           25.1513         estimate D2E/DX2                !
 ! D44   D(45,4,8,16)         -124.4348         estimate D2E/DX2                !
 ! D45   D(46,4,8,11)          140.714          estimate D2E/DX2                !
 ! D46   D(46,4,8,16)           -8.8721         estimate D2E/DX2                !
 ! D47   D(97,4,8,11)          -98.565          estimate D2E/DX2                !
 ! D48   D(97,4,8,16)          111.8489         estimate D2E/DX2                !
 ! D49   D(8,4,45,41)          144.7332         estimate D2E/DX2                !
 ! D50   D(8,4,45,48)          -23.2933         estimate D2E/DX2                !
 ! D51   D(46,4,45,41)          34.0633         estimate D2E/DX2                !
 ! D52   D(46,4,45,48)        -133.9633         estimate D2E/DX2                !
 ! D53   D(97,4,45,41)         -89.9258         estimate D2E/DX2                !
 ! D54   D(97,4,45,48)         102.0477         estimate D2E/DX2                !
 ! D55   D(8,4,46,14)            9.7948         estimate D2E/DX2                !
 ! D56   D(8,4,46,42)         -146.0051         estimate D2E/DX2                !
 ! D57   D(45,4,46,14)         125.6998         estimate D2E/DX2                !
 ! D58   D(45,4,46,42)         -30.1001         estimate D2E/DX2                !
 ! D59   D(97,4,46,14)        -111.4914         estimate D2E/DX2                !
 ! D60   D(97,4,46,42)          92.7087         estimate D2E/DX2                !
 ! D61   D(1,5,9,13)             8.0629         estimate D2E/DX2                !
 ! D62   D(1,5,9,35)          -145.3625         estimate D2E/DX2                !
 ! D63   D(29,5,9,13)          151.5517         estimate D2E/DX2                !
 ! D64   D(29,5,9,35)           -1.8737         estimate D2E/DX2                !
 ! D65   D(1,5,29,27)            1.7167         estimate D2E/DX2                !
 ! D66   D(1,5,29,31)          152.1353         estimate D2E/DX2                !
 ! D67   D(9,5,29,27)         -146.0637         estimate D2E/DX2                !
 ! D68   D(9,5,29,31)            4.3549         estimate D2E/DX2                !
 ! D69   D(2,6,10,49)           -2.0692         estimate D2E/DX2                !
 ! D70   D(2,6,10,53)          150.0882         estimate D2E/DX2                !
 ! D71   D(15,6,10,49)        -149.0227         estimate D2E/DX2                !
 ! D72   D(15,6,10,53)           3.1347         estimate D2E/DX2                !
 ! D73   D(2,6,15,13)           -4.9631         estimate D2E/DX2                !
 ! D74   D(2,6,15,17)         -152.915          estimate D2E/DX2                !
 ! D75   D(10,6,15,13)         145.6094         estimate D2E/DX2                !
 ! D76   D(10,6,15,17)          -2.3425         estimate D2E/DX2                !
 ! D77   D(3,7,12,14)           -8.0629         estimate D2E/DX2                !
 ! D78   D(3,7,12,36)          145.3624         estimate D2E/DX2                !
 ! D79   D(30,7,12,14)        -151.5516         estimate D2E/DX2                !
 ! D80   D(30,7,12,36)           1.8737         estimate D2E/DX2                !
 ! D81   D(3,7,30,28)           -1.7167         estimate D2E/DX2                !
 ! D82   D(3,7,30,32)         -152.1353         estimate D2E/DX2                !
 ! D83   D(12,7,30,28)         146.0636         estimate D2E/DX2                !
 ! D84   D(12,7,30,32)          -4.355          estimate D2E/DX2                !
 ! D85   D(4,8,11,50)            2.0693         estimate D2E/DX2                !
 ! D86   D(4,8,11,54)         -150.0882         estimate D2E/DX2                !
 ! D87   D(16,8,11,50)         149.0228         estimate D2E/DX2                !
 ! D88   D(16,8,11,54)          -3.1347         estimate D2E/DX2                !
 ! D89   D(4,8,16,14)            4.9632         estimate D2E/DX2                !
 ! D90   D(4,8,16,18)          152.9149         estimate D2E/DX2                !
 ! D91   D(11,8,16,14)        -145.6093         estimate D2E/DX2                !
 ! D92   D(11,8,16,18)           2.3424         estimate D2E/DX2                !
 ! D93   D(5,9,13,15)           -4.6573         estimate D2E/DX2                !
 ! D94   D(5,9,13,43)         -151.5477         estimate D2E/DX2                !
 ! D95   D(35,9,13,15)         149.205          estimate D2E/DX2                !
 ! D96   D(35,9,13,43)           2.3146         estimate D2E/DX2                !
 ! D97   D(5,9,35,33)           -5.2869         estimate D2E/DX2                !
 ! D98   D(5,9,35,37)          150.2437         estimate D2E/DX2                !
 ! D99   D(13,9,35,33)        -158.0331         estimate D2E/DX2                !
 ! D100  D(13,9,35,37)          -2.5025         estimate D2E/DX2                !
 ! D101  D(6,10,49,47)          30.8306         estimate D2E/DX2                !
 ! D102  D(6,10,49,51)         148.3329         estimate D2E/DX2                !
 ! D103  D(6,10,49,91)         -91.1934         estimate D2E/DX2                !
 ! D104  D(53,10,49,47)       -123.401          estimate D2E/DX2                !
 ! D105  D(53,10,49,51)         -5.8987         estimate D2E/DX2                !
 ! D106  D(53,10,49,91)        114.575          estimate D2E/DX2                !
 ! D107  D(6,10,53,19)          -2.9943         estimate D2E/DX2                !
 ! D108  D(6,10,53,55)        -160.3659         estimate D2E/DX2                !
 ! D109  D(49,10,53,19)        151.6152         estimate D2E/DX2                !
 ! D110  D(49,10,53,55)         -5.7563         estimate D2E/DX2                !
 ! D111  D(8,11,50,48)         -30.8306         estimate D2E/DX2                !
 ! D112  D(8,11,50,52)        -148.333          estimate D2E/DX2                !
 ! D113  D(8,11,50,92)          91.1934         estimate D2E/DX2                !
 ! D114  D(54,11,50,48)        123.4011         estimate D2E/DX2                !
 ! D115  D(54,11,50,52)          5.8987         estimate D2E/DX2                !
 ! D116  D(54,11,50,92)       -114.575          estimate D2E/DX2                !
 ! D117  D(8,11,54,20)           2.9943         estimate D2E/DX2                !
 ! D118  D(8,11,54,56)         160.3659         estimate D2E/DX2                !
 ! D119  D(50,11,54,20)       -151.6153         estimate D2E/DX2                !
 ! D120  D(50,11,54,56)          5.7563         estimate D2E/DX2                !
 ! D121  D(7,12,14,16)           4.6573         estimate D2E/DX2                !
 ! D122  D(7,12,14,46)         151.5475         estimate D2E/DX2                !
 ! D123  D(36,12,14,16)       -149.2049         estimate D2E/DX2                !
 ! D124  D(36,12,14,46)         -2.3147         estimate D2E/DX2                !
 ! D125  D(7,12,36,34)           5.287          estimate D2E/DX2                !
 ! D126  D(7,12,36,38)        -150.2437         estimate D2E/DX2                !
 ! D127  D(14,12,36,34)        158.0331         estimate D2E/DX2                !
 ! D128  D(14,12,36,38)          2.5024         estimate D2E/DX2                !
 ! D129  D(9,13,15,6)         -151.9857         estimate D2E/DX2                !
 ! D130  D(9,13,15,17)          -3.9147         estimate D2E/DX2                !
 ! D131  D(43,13,15,6)          -1.6255         estimate D2E/DX2                !
 ! D132  D(43,13,15,17)        146.4456         estimate D2E/DX2                !
 ! D133  D(9,13,43,2)          158.1632         estimate D2E/DX2                !
 ! D134  D(9,13,43,39)           1.0155         estimate D2E/DX2                !
 ! D135  D(15,13,43,2)           7.4579         estimate D2E/DX2                !
 ! D136  D(15,13,43,39)       -149.6898         estimate D2E/DX2                !
 ! D137  D(12,14,16,8)         151.9857         estimate D2E/DX2                !
 ! D138  D(12,14,16,18)          3.9147         estimate D2E/DX2                !
 ! D139  D(46,14,16,8)           1.6256         estimate D2E/DX2                !
 ! D140  D(46,14,16,18)       -146.4453         estimate D2E/DX2                !
 ! D141  D(12,14,46,4)        -158.1633         estimate D2E/DX2                !
 ! D142  D(12,14,46,42)         -1.0153         estimate D2E/DX2                !
 ! D143  D(16,14,46,4)          -7.4582         estimate D2E/DX2                !
 ! D144  D(16,14,46,42)        149.6898         estimate D2E/DX2                !
 ! D145  D(6,15,17,1)          152.5598         estimate D2E/DX2                !
 ! D146  D(6,15,17,19)           1.3397         estimate D2E/DX2                !
 ! D147  D(13,15,17,1)           8.7582         estimate D2E/DX2                !
 ! D148  D(13,15,17,19)       -142.4618         estimate D2E/DX2                !
 ! D149  D(8,16,18,3)         -152.5597         estimate D2E/DX2                !
 ! D150  D(8,16,18,20)          -1.3396         estimate D2E/DX2                !
 ! D151  D(14,16,18,3)          -8.7583         estimate D2E/DX2                !
 ! D152  D(14,16,18,20)        142.4618         estimate D2E/DX2                !
 ! D153  D(1,17,19,21)          -0.8811         estimate D2E/DX2                !
 ! D154  D(1,17,19,53)        -151.466          estimate D2E/DX2                !
 ! D155  D(15,17,19,21)        149.4671         estimate D2E/DX2                !
 ! D156  D(15,17,19,53)         -1.1178         estimate D2E/DX2                !
 ! D157  D(3,18,20,22)           0.8811         estimate D2E/DX2                !
 ! D158  D(3,18,20,54)         151.466          estimate D2E/DX2                !
 ! D159  D(16,18,20,22)       -149.4672         estimate D2E/DX2                !
 ! D160  D(16,18,20,54)          1.1177         estimate D2E/DX2                !
 ! D161  D(17,19,21,23)         -0.6492         estimate D2E/DX2                !
 ! D162  D(17,19,21,57)       -142.6008         estimate D2E/DX2                !
 ! D163  D(53,19,21,23)        150.3845         estimate D2E/DX2                !
 ! D164  D(53,19,21,57)          8.4329         estimate D2E/DX2                !
 ! D165  D(17,19,53,10)          1.9595         estimate D2E/DX2                !
 ! D166  D(17,19,53,55)        156.1998         estimate D2E/DX2                !
 ! D167  D(21,19,53,10)       -148.6969         estimate D2E/DX2                !
 ! D168  D(21,19,53,55)          5.5434         estimate D2E/DX2                !
 ! D169  D(18,20,22,24)          0.6492         estimate D2E/DX2                !
 ! D170  D(18,20,22,58)        142.6008         estimate D2E/DX2                !
 ! D171  D(54,20,22,24)       -150.3845         estimate D2E/DX2                !
 ! D172  D(54,20,22,58)         -8.4329         estimate D2E/DX2                !
 ! D173  D(18,20,54,11)         -1.9595         estimate D2E/DX2                !
 ! D174  D(18,20,54,56)       -156.1999         estimate D2E/DX2                !
 ! D175  D(22,20,54,11)        148.6969         estimate D2E/DX2                !
 ! D176  D(22,20,54,56)         -5.5435         estimate D2E/DX2                !
 ! D177  D(19,21,23,25)          2.2181         estimate D2E/DX2                !
 ! D178  D(19,21,23,61)       -147.8707         estimate D2E/DX2                !
 ! D179  D(57,21,23,25)        148.0601         estimate D2E/DX2                !
 ! D180  D(57,21,23,61)         -2.0287         estimate D2E/DX2                !
 ! D181  D(19,21,57,59)        147.4983         estimate D2E/DX2                !
 ! D182  D(19,21,57,83)         -2.7601         estimate D2E/DX2                !
 ! D183  D(23,21,57,59)          0.8771         estimate D2E/DX2                !
 ! D184  D(23,21,57,83)       -149.3814         estimate D2E/DX2                !
 ! D185  D(20,22,24,26)         -2.2182         estimate D2E/DX2                !
 ! D186  D(20,22,24,62)        147.8708         estimate D2E/DX2                !
 ! D187  D(58,22,24,26)       -148.0602         estimate D2E/DX2                !
 ! D188  D(58,22,24,62)          2.0288         estimate D2E/DX2                !
 ! D189  D(20,22,58,60)       -147.4984         estimate D2E/DX2                !
 ! D190  D(20,22,58,84)          2.7602         estimate D2E/DX2                !
 ! D191  D(24,22,58,60)         -0.8772         estimate D2E/DX2                !
 ! D192  D(24,22,58,84)        149.3814         estimate D2E/DX2                !
 ! D193  D(21,23,25,1)          -2.1625         estimate D2E/DX2                !
 ! D194  D(21,23,25,27)       -148.8516         estimate D2E/DX2                !
 ! D195  D(61,23,25,1)         145.3777         estimate D2E/DX2                !
 ! D196  D(61,23,25,27)         -1.3114         estimate D2E/DX2                !
 ! D197  D(21,23,61,59)          2.2238         estimate D2E/DX2                !
 ! D198  D(21,23,61,63)        117.3168         estimate D2E/DX2                !
 ! D199  D(21,23,61,89)       -120.4238         estimate D2E/DX2                !
 ! D200  D(25,23,61,59)       -147.8455         estimate D2E/DX2                !
 ! D201  D(25,23,61,63)        -32.7525         estimate D2E/DX2                !
 ! D202  D(25,23,61,89)         89.5069         estimate D2E/DX2                !
 ! D203  D(22,24,26,3)           2.1626         estimate D2E/DX2                !
 ! D204  D(22,24,26,28)        148.8514         estimate D2E/DX2                !
 ! D205  D(62,24,26,3)        -145.3777         estimate D2E/DX2                !
 ! D206  D(62,24,26,28)          1.3111         estimate D2E/DX2                !
 ! D207  D(22,24,62,60)         -2.2238         estimate D2E/DX2                !
 ! D208  D(22,24,62,64)       -117.3167         estimate D2E/DX2                !
 ! D209  D(22,24,62,90)        120.424          estimate D2E/DX2                !
 ! D210  D(26,24,62,60)        147.8457         estimate D2E/DX2                !
 ! D211  D(26,24,62,64)         32.7528         estimate D2E/DX2                !
 ! D212  D(26,24,62,90)        -89.5065         estimate D2E/DX2                !
 ! D213  D(1,25,27,29)          -0.4699         estimate D2E/DX2                !
 ! D214  D(1,25,27,65)        -114.9446         estimate D2E/DX2                !
 ! D215  D(1,25,27,85)         122.5743         estimate D2E/DX2                !
 ! D216  D(23,25,27,29)        148.6218         estimate D2E/DX2                !
 ! D217  D(23,25,27,65)         34.147          estimate D2E/DX2                !
 ! D218  D(23,25,27,85)        -88.334          estimate D2E/DX2                !
 ! D219  D(3,26,28,30)           0.4696         estimate D2E/DX2                !
 ! D220  D(3,26,28,66)         114.9443         estimate D2E/DX2                !
 ! D221  D(3,26,28,88)        -122.5747         estimate D2E/DX2                !
 ! D222  D(24,26,28,30)       -148.6217         estimate D2E/DX2                !
 ! D223  D(24,26,28,66)        -34.1471         estimate D2E/DX2                !
 ! D224  D(24,26,28,88)         88.334          estimate D2E/DX2                !
 ! D225  D(25,27,29,5)          -0.7848         estimate D2E/DX2                !
 ! D226  D(25,27,29,31)       -150.2832         estimate D2E/DX2                !
 ! D227  D(65,27,29,5)         114.5816         estimate D2E/DX2                !
 ! D228  D(65,27,29,31)        -34.9168         estimate D2E/DX2                !
 ! D229  D(85,27,29,5)        -123.3239         estimate D2E/DX2                !
 ! D230  D(85,27,29,31)         87.1777         estimate D2E/DX2                !
 ! D231  D(25,27,65,63)        -32.2239         estimate D2E/DX2                !
 ! D232  D(25,27,65,67)        143.0634         estimate D2E/DX2                !
 ! D233  D(29,27,65,63)       -141.6525         estimate D2E/DX2                !
 ! D234  D(29,27,65,67)         33.6348         estimate D2E/DX2                !
 ! D235  D(85,27,65,63)         93.0045         estimate D2E/DX2                !
 ! D236  D(85,27,65,67)        -91.7083         estimate D2E/DX2                !
 ! D237  D(26,28,30,7)           0.785          estimate D2E/DX2                !
 ! D238  D(26,28,30,32)        150.2835         estimate D2E/DX2                !
 ! D239  D(66,28,30,7)        -114.5813         estimate D2E/DX2                !
 ! D240  D(66,28,30,32)         34.9172         estimate D2E/DX2                !
 ! D241  D(88,28,30,7)         123.3243         estimate D2E/DX2                !
 ! D242  D(88,28,30,32)        -87.1772         estimate D2E/DX2                !
 ! D243  D(26,28,66,64)         32.2244         estimate D2E/DX2                !
 ! D244  D(26,28,66,68)       -143.064          estimate D2E/DX2                !
 ! D245  D(30,28,66,64)        141.653          estimate D2E/DX2                !
 ! D246  D(30,28,66,68)        -33.6355         estimate D2E/DX2                !
 ! D247  D(88,28,66,64)        -93.004          estimate D2E/DX2                !
 ! D248  D(88,28,66,68)         91.7075         estimate D2E/DX2                !
 ! D249  D(5,29,31,33)           0.653          estimate D2E/DX2                !
 ! D250  D(5,29,31,69)        -147.3871         estimate D2E/DX2                !
 ! D251  D(27,29,31,33)        147.8983         estimate D2E/DX2                !
 ! D252  D(27,29,31,69)         -0.1418         estimate D2E/DX2                !
 ! D253  D(7,30,32,34)          -0.6527         estimate D2E/DX2                !
 ! D254  D(7,30,32,70)         147.3869         estimate D2E/DX2                !
 ! D255  D(28,30,32,34)       -147.8982         estimate D2E/DX2                !
 ! D256  D(28,30,32,70)          0.1414         estimate D2E/DX2                !
 ! D257  D(29,31,33,35)         -8.3609         estimate D2E/DX2                !
 ! D258  D(29,31,33,73)       -154.2587         estimate D2E/DX2                !
 ! D259  D(69,31,33,35)        142.1597         estimate D2E/DX2                !
 ! D260  D(69,31,33,73)         -3.738          estimate D2E/DX2                !
 ! D261  D(29,31,69,67)         35.6138         estimate D2E/DX2                !
 ! D262  D(29,31,69,71)        151.2449         estimate D2E/DX2                !
 ! D263  D(29,31,69,86)        -85.939          estimate D2E/DX2                !
 ! D264  D(33,31,69,67)       -114.9199         estimate D2E/DX2                !
 ! D265  D(33,31,69,71)          0.7112         estimate D2E/DX2                !
[...]
 Alpha virt. eigenvalues --    1.53747   1.54821   1.55330   1.55879   1.56074
 Alpha virt. eigenvalues --    1.57208   1.57378   1.57680   1.57882   1.58562
 Alpha virt. eigenvalues --    1.58650   1.59732   1.60028   1.60162   1.60950
 Alpha virt. eigenvalues --    1.61345   1.61428   1.61936   1.62357   1.62615
 Alpha virt. eigenvalues --    1.62825   1.62901   1.63675   1.63932   1.64085
 Alpha virt. eigenvalues --    1.64176   1.64377   1.64707   1.64752   1.65112
 Alpha virt. eigenvalues --    1.65279   1.65582   1.65705   1.66020   1.66461
 Alpha virt. eigenvalues --    1.66807   1.66835   1.66940   1.67005   1.67446
 Alpha virt. eigenvalues --    1.67661   1.67851   1.68174   1.68275   1.68473
 Alpha virt. eigenvalues --    1.68537   1.68616   1.69049   1.69586   1.69707
 Alpha virt. eigenvalues --    1.69716   1.70063   1.70497   1.70538   1.70816
 Alpha virt. eigenvalues --    1.70859   1.71170   1.71387   1.71451   1.71570
 Alpha virt. eigenvalues --    1.72010   1.72294   1.72531   1.72934   1.73061
 Alpha virt. eigenvalues --    1.73579   1.73819   1.74324   1.74378   1.74480
 Alpha virt. eigenvalues --    1.74823   1.75162   1.75404   1.75406   1.75779
 Alpha virt. eigenvalues --    1.75903   1.76005   1.76148   1.76248   1.76862
 Alpha virt. eigenvalues --    1.77058   1.77109   1.77538   1.77645   1.77800
 Alpha virt. eigenvalues --    1.78173   1.78343   1.78618   1.78624   1.78849
 Alpha virt. eigenvalues --    1.79521   1.79622   1.79964   1.80135   1.80198
 Alpha virt. eigenvalues --    1.80575   1.80662   1.80786   1.81133   1.81739
 Alpha virt. eigenvalues --    1.81864   1.81921   1.82083   1.82333   1.82606
 Alpha virt. eigenvalues --    1.82619   1.82854   1.82892   1.83007   1.83356
 Alpha virt. eigenvalues --    1.84501   1.84642   1.84892   1.85172   1.85302
 Alpha virt. eigenvalues --    1.85358   1.85511   1.86040   1.86575   1.86646
 Alpha virt. eigenvalues --    1.86915   1.86979   1.87181   1.87680   1.88148
 Alpha virt. eigenvalues --    1.88298   1.88483   1.88553   1.89087   1.89265
 Alpha virt. eigenvalues --    1.89496   1.90068   1.90421   1.91240   1.91772
 Alpha virt. eigenvalues --    1.91814   1.92162   1.92693   1.93038   1.93481
 Alpha virt. eigenvalues --    1.93850   1.93929   1.94514   1.94610   1.95255
 Alpha virt. eigenvalues --    1.95619   1.96200   1.96424   1.96492   1.96755
 Alpha virt. eigenvalues --    1.96951   1.97101   1.97891   1.97967   1.98127
 Alpha virt. eigenvalues --    1.98799   1.99375   1.99478   2.00074   2.00205
 Alpha virt. eigenvalues --    2.00839   2.01006   2.01316   2.01502   2.02111
 Alpha virt. eigenvalues --    2.02212   2.02568   2.02625   2.02938   2.03580
 Alpha virt. eigenvalues --    2.03789   2.04160   2.04394   2.04480   2.05097
 Alpha virt. eigenvalues --    2.05636   2.05759   2.06832   2.06879   2.07233
 Alpha virt. eigenvalues --    2.07729   2.08009   2.08689   2.08844   2.09010
 Alpha virt. eigenvalues --    2.09198   2.09673   2.09849   2.10386   2.10887
 Alpha virt. eigenvalues --    2.10899   2.11516   2.11774   2.12104   2.12141
 Alpha virt. eigenvalues --    2.12513   2.13458   2.13537   2.13581   2.13788
 Alpha virt. eigenvalues --    2.14719   2.14910   2.15051   2.15163   2.15844
 Alpha virt. eigenvalues --    2.16381   2.16907   2.16962   2.17959   2.18351
 Alpha virt. eigenvalues --    2.18841   2.18861   2.19912   2.19924   2.20371
 Alpha virt. eigenvalues --    2.20511   2.20618   2.21776   2.21944   2.22430
 Alpha virt. eigenvalues --    2.22546   2.23214   2.23761   2.23842   2.24323
 Alpha virt. eigenvalues --    2.24779   2.25234   2.25633   2.25979   2.26373
 Alpha virt. eigenvalues --    2.27100   2.27191   2.27432   2.28199   2.28552
 Alpha virt. eigenvalues --    2.28617   2.29533   2.29747   2.30124   2.30153
 Alpha virt. eigenvalues --    2.30436   2.31361   2.31665   2.31927   2.33112
 Alpha virt. eigenvalues --    2.33815   2.34106   2.34166   2.34864   2.35162
 Alpha virt. eigenvalues --    2.35622   2.37041   2.37156   2.37731   2.37750
 Alpha virt. eigenvalues --    2.38055   2.38589   2.38857   2.39192   2.39400
 Alpha virt. eigenvalues --    2.40493   2.40919   2.40952   2.41361   2.41498
 Alpha virt. eigenvalues --    2.42316   2.42581   2.43362   2.44228   2.44239
 Alpha virt. eigenvalues --    2.44924   2.45203   2.45366   2.46031   2.46675
 Alpha virt. eigenvalues --    2.47866   2.48251   2.48277   2.48889   2.49461
 Alpha virt. eigenvalues --    2.49708   2.49890   2.50082   2.50951   2.50981
 Alpha virt. eigenvalues --    2.51529   2.52641   2.53025   2.53206   2.53265
 Alpha virt. eigenvalues --    2.54095   2.54588   2.54605   2.54951   2.55006
 Alpha virt. eigenvalues --    2.55840   2.55972   2.56086   2.56128   2.56875
 Alpha virt. eigenvalues --    2.56939   2.57444   2.58214   2.58766   2.58792
 Alpha virt. eigenvalues --    2.59086   2.59392   2.59952   2.60270   2.60479
 Alpha virt. eigenvalues --    2.60945   2.61357   2.61766   2.61931   2.62248
 Alpha virt. eigenvalues --    2.62497   2.62914   2.63017   2.63697   2.63919
 Alpha virt. eigenvalues --    2.64180   2.64989   2.65317   2.65940   2.66415
 Alpha virt. eigenvalues --    2.66436   2.66720   2.67366   2.67465   2.67611
 Alpha virt. eigenvalues --    2.68388   2.68523   2.68967   2.69055   2.69511
 Alpha virt. eigenvalues --    2.69839   2.69862   2.70894   2.71253   2.71336
 Alpha virt. eigenvalues --    2.72003   2.72476   2.72542   2.73132   2.73137
 Alpha virt. eigenvalues --    2.73553   2.73593   2.74225   2.74419   2.74737
 Alpha virt. eigenvalues --    2.75021   2.75592   2.75797   2.76594   2.76914
 Alpha virt. eigenvalues --    2.77235   2.77259   2.77384   2.77817   2.78338
 Alpha virt. eigenvalues --    2.78746   2.78936   2.79557   2.80124   2.80486
 Alpha virt. eigenvalues --    2.80938   2.81988   2.82138   2.82471   2.82531
 Alpha virt. eigenvalues --    2.83733   2.84081   2.84569   2.85413   2.85805
 Alpha virt. eigenvalues --    2.86258   2.86606   2.86878   2.87742   2.88144
 Alpha virt. eigenvalues --    2.88224   2.89016   2.89970   2.90193   2.90201
 Alpha virt. eigenvalues --    2.91059   2.92221   2.92406   2.93313   2.93473
 Alpha virt. eigenvalues --    2.94023   2.94600   2.94903   2.96115   2.96640
 Alpha virt. eigenvalues --    2.96761   2.98678   2.99376   3.00069   3.00607
 Alpha virt. eigenvalues --    3.01008   3.03886   3.06564   3.07947   3.08033
 Alpha virt. eigenvalues --    3.08094   3.09107   3.10799   3.11780   3.13143
 Alpha virt. eigenvalues --    3.13877   3.15653   3.16076   3.16430   3.18918
 Alpha virt. eigenvalues --    3.20101   3.20827   3.21339   3.23972   3.25805
 Alpha virt. eigenvalues --    3.26661   3.26693   3.29728   3.32694   3.34128
 Alpha virt. eigenvalues --    3.34256   3.36676   3.37394   3.41795   3.43466
 Alpha virt. eigenvalues --    3.45823   3.47440   3.48741   3.49298   3.53516
 Alpha virt. eigenvalues --    3.58630   4.00410   4.01514   4.01623   4.02840
 Alpha virt. eigenvalues --    4.03437   4.04089   4.04670   4.05869   4.06687
 Alpha virt. eigenvalues --    4.06809   4.07872   4.08372   4.08756   4.09847
 Alpha virt. eigenvalues --    4.10420   4.10820   4.11973   4.12406   4.12608
 Alpha virt. eigenvalues --    4.13118   4.15634   4.16369   4.16424   4.16547
 Alpha virt. eigenvalues --    4.17899   4.18782   4.19135   4.19827   4.20160
 Alpha virt. eigenvalues --    4.20793   4.21270   4.21852   4.22370   4.24572
 Alpha virt. eigenvalues --    4.24988   4.25661   4.25957   4.25966   4.26687
 Alpha virt. eigenvalues --    4.26801   4.27291   4.27489   4.28678   4.28694
 Alpha virt. eigenvalues --    4.29123   4.29158   4.29794   4.30084   4.31297
 Alpha virt. eigenvalues --    4.32290   4.32826   4.35181   4.35545   4.36435
 Alpha virt. eigenvalues --    4.38618   4.38876   4.38910   4.39537   4.40749
 Alpha virt. eigenvalues --    4.41406   4.41995   4.42308   4.42725   4.44160
 Alpha virt. eigenvalues --    4.44561   4.45350   4.45840   4.47365   4.49093
 Alpha virt. eigenvalues --    4.49305   4.52274   4.53222   4.54224   4.56298
 Alpha virt. eigenvalues --    4.57469   4.58020   4.59993   4.61351   4.61555
 Alpha virt. eigenvalues --    4.63812   4.66027   4.67245   4.68941   4.69285
 Alpha virt. eigenvalues --    4.74358   4.79112   4.79558   4.81596   4.82707
 Alpha virt. eigenvalues --    4.83799   4.89105   4.90388   4.92372   4.96916
 Alpha virt. eigenvalues --    4.98890   4.99674   5.05003   5.12413   5.13917
 Alpha virt. eigenvalues --    5.22476
          Condensed to atoms (all electrons):
 Mulliken charges:
               1
     1  C    0.008686
     2  C   -0.395712
     3  C    0.008686
     4  C   -0.395712
     5  C    0.012236
     6  C    0.080625
     7  C    0.012236
     8  C    0.080625
     9  C    0.040933
    10  C    0.134635
    11  C    0.134635
    12  C    0.040933
    13  C    0.005629
    14  C    0.005629
    15  C    0.013812
    16  C    0.013812
    17  C    0.045200
    18  C    0.045200
    19  C    0.061572
    20  C    0.061572
    21  C   -0.012024
    22  C   -0.012024
    23  C    0.094993
    24  C    0.094993
    25  C    0.087045
    26  C    0.087045
    27  C   -0.378866
    28  C   -0.378866
    29  C    0.085614
    30  C    0.085614
    31  C    0.096338
    32  C    0.096338
    33  C   -0.017208
    34  C   -0.017208
    35  C    0.069577
    36  C    0.069577
    37  C    0.090952
    38  C    0.090952
    39  C    0.151743
    40  C    0.114220
    41  C    0.114220
    42  C    0.151743
    43  C    0.081933
    44  C    0.151986
    45  C    0.151986
    46  C    0.081933
    47  C    0.122354
    48  C    0.122354
    49  C   -0.375975
    50  C   -0.375975
    51  C    0.182039
    52  C    0.182039
    53  C    0.078110
    54  C    0.078110
    55  C   -0.353077
    56  C   -0.353077
    57  C    0.038628
    58  C    0.038628
    59  C    0.090236
    60  C    0.090236
    61  C   -0.378287
    62  C   -0.378287
    63  C    0.123226
    64  C    0.123226
    65  C    0.127435
    66  C    0.127435
    67  C    0.121931
    68  C    0.121931
    69  C   -0.376227
    70  C   -0.376227
    71  C    0.093465
    72  C    0.093465
    73  C    0.033695
    74  C    0.033695
    75  C    0.102242
    76  C    0.102242
    77  C   -0.351164
    78  C   -0.351164
    79  C   -0.378679
    80  C   -0.378679
    81  C    0.178502
    82  C    0.185955
    83  C    0.123223
    84  C    0.123223
    85  Cl   0.032334
    86  Cl   0.029394
    87  Cl   0.029394
    88  Cl   0.032334
    89  Cl   0.030157
    90  Cl   0.030157
    91  Cl   0.026862
    92  Cl   0.026862
    93  Cl   0.031657
    94  Cl   0.030433
    95  Cl  -0.008665
    96  Cl  -0.008665
    97  Cl   0.031657
    98  Cl   0.030433
    99  Cl  -0.001490
   100  Cl  -0.001490
 Sum of Mulliken charges =  -0.00000
 Mulliken charges with hydrogens summed into heavy atoms:
               1
     1  C    0.008686
     2  C   -0.395712
     3  C    0.008686
     4  C   -0.395712
     5  C    0.012236
     6  C    0.080625
     7  C    0.012236
     8  C    0.080625
     9  C    0.040933
    10  C    0.134635
    11  C    0.134635
    12  C    0.040933
    13  C    0.005629
    14  C    0.005629
    15  C    0.013812
    16  C    0.013812
    17  C    0.045200
    18  C    0.045200
    19  C    0.061572
    20  C    0.061572
    21  C   -0.012024
    22  C   -0.012024
    23  C    0.094993
    24  C    0.094993
    25  C    0.087045
    26  C    0.087045
    27  C   -0.378866
    28  C   -0.378866
    29  C    0.085614
    30  C    0.085614
    31  C    0.096338
    32  C    0.096338
    33  C   -0.017208
    34  C   -0.017208
    35  C    0.069577
    36  C    0.069577
    37  C    0.090952
    38  C    0.090952
    39  C    0.151743
    40  C    0.114220
    41  C    0.114220
    42  C    0.151743
    43  C    0.081933
    44  C    0.151986
    45  C    0.151986
    46  C    0.081933
    47  C    0.122354
    48  C    0.122354
    49  C   -0.375975
    50  C   -0.375975
    51  C    0.182039
    52  C    0.182039
    53  C    0.078110
    54  C    0.078110
    55  C   -0.353077
    56  C   -0.353077
    57  C    0.038628
    58  C    0.038628
    59  C    0.090236
    60  C    0.090236
    61  C   -0.378287
    62  C   -0.378287
    63  C    0.123226
    64  C    0.123226
    65  C    0.127435
    66  C    0.127435
    67  C    0.121931
    68  C    0.121931
    69  C   -0.376227
    70  C   -0.376227
    71  C    0.093465
    72  C    0.093465
    73  C    0.033695
    74  C    0.033695
    75  C    0.102242
    76  C    0.102242
    77  C   -0.351164
    78  C   -0.351164
    79  C   -0.378679
    80  C   -0.378679
    81  C    0.178502
    82  C    0.185955
    83  C    0.123223
    84  C    0.123223
    85  Cl   0.032334
    86  Cl   0.029394
    87  Cl   0.029394
    88  Cl   0.032334
    89  Cl   0.030157
    90  Cl   0.030157
    91  Cl   0.026862
    92  Cl   0.026862
    93  Cl   0.031657
    94  Cl   0.030433
    95  Cl  -0.008665
    96  Cl  -0.008665
    97  Cl   0.031657
    98  Cl   0.030433
    99  Cl  -0.001490
   100  Cl  -0.001490
 Electronic spatial extent (au):  <R**2>=          71769.6497
 Charge=             -0.0000 electrons
 Dipole moment (field-independent basis, Debye):
    X=             -2.2338    Y=              0.2027    Z=              0.0000  Tot=              2.2429
 Quadrupole moment (field-independent basis, Debye-Ang):
   XX=           -715.6680   YY=           -708.7666   ZZ=           -658.5284
   XY=             -1.0649   XZ=             -0.0000   YZ=             -0.0000
 Traceless Quadrupole moment (field-independent basis, Debye-Ang):
   XX=            -21.3470   YY=            -14.4456   ZZ=             35.7926
   XY=             -1.0649   XZ=             -0.0000   YZ=             -0.0000
 Octapole moment (field-independent basis, Debye-Ang**2):
  XXX=             42.4835  YYY=            -14.8773  ZZZ=             -0.0000  XYY=            -77.9866
  XXY=             31.1689  XXZ=              0.0000  XZZ=             -1.9211  YZZ=             -0.3319
  YYZ=              0.0000  XYZ=              0.0000
 Hexadecapole moment (field-independent basis, Debye-Ang**3):
 XXXX=         -39066.5624 YYYY=         -37099.2488 ZZZZ=         -24527.0904 XXXY=            189.5457
 XXXZ=             -0.0000 YYYX=            141.5538 YYYZ=             -0.0000 ZZZX=             -0.0000
 ZZZY=             -0.0000 XXYY=         -12741.1899 XXZZ=         -10819.6564 YYZZ=         -10203.1622
 XXYZ=             -0.0000 YYXZ=              0.0000 ZZXY=             16.9570
 N-N= 2.806494743332D+04 E-N=-8.101923377442D+04  KE= 1.051180923127D+04
 No NMR shielding tensors so no spin-rotation constants.
 Leave Link  601 at Thu Jun 30 04:25:01 2022, MaxMem=  1342177280 cpu:              28.5 elap:               1.5
 (Enter /home/mkliu/g16/l9999.exe)
 1\1\GINC-NODE02\FOpt\RB3LYP\6-31G(d,p)\C84Cl16\MKLIU\30-Jun-2022\0\\#P
  opt b3lyp/6-31G(d, p) empiricaldispersion=GD3\\force\\0,1\C,8.2707820
 334,18.9042672635,10.5579986549\C,12.4641410799,19.9955817745,8.919174
 0907\C,8.2677875489,26.845644631,10.5605701152\C,12.4619679958,25.7585
 544033,8.921040172\C,7.9432942289,18.9454509718,9.134768225\C,11.85918
 94155,19.5557461974,10.2337671541\C,7.9403305428,26.8051356675,9.13731
 32316\C,11.8566851327,26.1970821902,10.235917657\C,8.9525356089,19.117
 2082567,8.1428048221\C,12.1087499173,20.2281181613,11.4273051183\C,12.
 1067529378,25.5241258245,11.4290200021\C,8.9497009227,26.6347819834,8.
 1452390539\C,10.2899658074,19.0683317115,8.5989442394\C,10.2870939978,
 26.6843717285,8.6014103582\C,10.6219095852,18.9599060923,10.0241219068
 \C,10.6189562486,26.7921246666,10.0266580216\C,9.6118303259,18.9707939
 955,11.0221122919\C,9.6088857384,26.7798287182,11.0246409061\C,9.88568
 40893,19.643833565,12.2665274202\C,9.8832473025,26.1061901149,12.26861
 99781\C,8.7871595528,20.2251404244,12.9571937009\C,8.7851616393,25.523
 6078136,12.9589093805\C,7.4851235192,20.1655177158,12.4465193015\C,7.4
 83080885,25.5825792734,12.4482733765\C,7.2214120849,19.4919259286,11.2
 688327642\C,7.2188612658,26.2567345044,11.271023236\C,6.1115024364,19.
 9272706186,10.3316992345\C,6.1092799922,25.8211599165,10.3336077082\C,
 6.6796478215,19.5154689745,8.9892731117\C,6.6771143289,26.2342591985,8
 .9914486938\C,6.3699935836,20.1912659408,7.8272883826\C,6.3679696028,2
 5.5589815181,7.8290264887\C,7.3066976154,20.2987157061,6.7912237844\C,
 7.3047541152,25.4529092086,6.7928927385\C,8.6605532036,19.8639951189,6
 .9488531313\C,8.6582815023,25.8885485175,6.9508039172\C,9.7243216213,2
 0.5838811945,6.2883805881\C,9.7225923685,25.1698927648,6.2898655588\C,
 11.0199394018,20.554705066,6.8199145695\C,12.6316943764,22.1826754738,
 7.7799036806\C,12.6311703595,23.5723259353,7.7803536756\C,11.018187898
 6,25.1997017576,6.8214186337\C,11.3028152119,19.7581736842,7.944733027
 1\C,12.805561683,21.468538188,8.9628686859\C,12.804499321,24.285827893
 5,8.9637809461\C,11.300463214,25.9957176432,7.9467527722\C,13.02711252
 22,22.1708658627,10.1673575949\C,13.0265800757,23.5828876118,10.167814
 8255\C,13.044695114,21.4092991722,11.4948282908\C,13.0435886601,24.343
 6075027,11.4957784379\C,12.4210943682,22.2110996449,12.6168646786\C,12
 .4205930375,23.5406104985,12.6172951893\C,11.1608335613,20.2508996002,
 12.4436574248\C,11.1588542786,25.4999713258,12.4453571066\C,11.4327289
 084,21.3855538641,13.4097272423\C,11.4316054836,24.3648970368,13.41069
 19915\C,8.9534065369,21.4955386669,13.6572185167\C,8.9523668075,24.252
 8822249,13.6581113755\C,7.7279504464,22.1923678158,13.5779196764\C,7.7
 27436565,23.5551805956,13.578360962\C,6.6850750114,21.3961135666,12.82
 61623481\C,6.6839607406,24.351134809,12.8271191925\C,6.2375667121,22.1
 660505027,11.5616571528\C,6.2370329198,23.5816796774,11.5621155396\C,5
 .9480310322,21.4620490238,10.3706661195\C,5.9469660873,24.2862337473,1
 0.3715805992\C,5.6393654014,22.1673240137,9.1807130885\C,5.6388321396,
 23.5814969467,9.1811710053\C,5.4369908625,21.3903463014,7.8562252211\C
 ,5.4358713886,24.3591794235,7.8571865329\C,5.9558413548,22.1915480524,
 6.6817660986\C,5.9553256272,23.5591299717,6.682208896\C,7.0045729539,2
 1.4957711121,6.0325563963\C,7.0035320607,24.2561179047,6.0334501425\C,
 8.0052109819,22.1758196741,5.3601148985\C,8.0046825196,23.5772597654,5
 .3605687029\C,9.3926814654,21.6146092223,5.2109144262\C,9.3917293551,2
 4.1396129407,5.2117320189\C,12.0442757106,21.6285144634,6.4924861088\C
 ,12.0433336413,24.1268774417,6.4932950884\C,10.2274141038,22.877382100
 5,5.3469240485\C,11.4249416455,22.8776495176,5.9156231211\C,10.1795263
 084,22.1682199724,13.7392874326\C,10.178993557,23.5810727858,13.739744
 9254\Cl,4.5195238602,19.105376576,10.7190115771\Cl,3.6683679647,20.945
 9276427,7.6613780004\Cl,3.666913817,24.8023903927,7.6626268189\Cl,4.51
 66822063,26.6416022044,10.7214519254\Cl,5.2212688458,20.9956237583,13.
 857399392\Cl,5.2198532547,24.7498526933,13.8586150555\Cl,14.7749319253
 ,20.8995755585,11.8808252884\Cl,14.7734406881,24.8543856912,11.8821058
 732\Cl,13.9451177121,18.9952380646,8.4880451304\Cl,13.350559741,20.949
 598464,5.3821501987\Cl,12.1955221222,25.0094621598,14.9884272399\Cl,12
 .1971318189,20.740543388,14.9870449468\Cl,13.9421898005,26.760293599,8
 .4905595764\Cl,13.3491051168,24.8074971946,5.3833994787\Cl,9.622623318
 7,20.834953606,3.5348340745\Cl,9.6210827306,24.9205270086,3.5361570216
 \\Version=ES64L-G16RevA.03\State=1-A\HF=-10564.2281048\RMSD=5.272e-09\
 RMSF=2.448e-05\Dipole=-0.8823751,-0.0003292,-0.0105644\Quadrupole=-15.
 7155299,26.6109333,-10.8954034,-0.0163431,1.1833569,0.0125909\PG=C01 [
 X(C84Cl16)]\\@


 The most important thing in communication is to hear what isn't being said.
 -- Peter F. Drucker
 Job cpu time:       1 days 13 hours 58 minutes 49.0 seconds.
 Elapsed time:       0 days  1 hours 35 minutes  5.6 seconds.
 File lengths (MBytes):  RWF=   1500 Int=      0 D2E=      0 Chk=    187 Scr=      1
 Normal termination of Gaussian 16 at Thu Jun 30 04:25:03 2022.
