 Entering Gaussian System, Link 0=g16
 Input=16_addons_C84_14_Cl22_rank_3.gjf
 Output=16_addons_C84_14_Cl22_rank_3.log
 Initial command:
 /home/mkliu/g16/l1.exe "/data/scratch/Gau-214044.inp" -scrdir="/data/scratch/"
 Entering Link 1 = /home/mkliu/g16/l1.exe PID=    214045.
  
 Copyright (c) 1988,1990,1992,1993,1995,1998,2003,2009,2016,
            Gaussian, Inc.  All Rights Reserved.
  
 This is part of the Gaussian(R) 16 program.  It is based on
 the Gaussian(R) 09 system (copyright 2009, Gaussian, Inc.),
 the Gaussian(R) 03 system (copyright 2003, Gaussian, Inc.),
 the Gaussian(R) 98 system (copyright 1998, Gaussian, Inc.),
 the Gaussian(R) 94 system (copyright 1995, Gaussian, Inc.),
 the Gaussian 92(TM) system (copyright 1992, Gaussian, Inc.),
 the Gaussian 90(TM) system (copyright 1990, Gaussian, Inc.),
 the Gaussian 88(TM) system (copyright 1988, Gaussian, Inc.),
 the Gaussian 86(TM) system (copyright 1986, Carnegie Mellon
 University), and the Gaussian 82(TM) system (copyright 1983,
 Carnegie Mellon University). Gaussian is a federally registered
 trademark of Gaussian, Inc.
  
 This software contains proprietary and confidential information,
 including trade secrets, belonging to Gaussian, Inc.
  
 This software is provided under written license and may be
 used, copied, transmitted, or stored only in accord with that
 written license.
  
 The following legend is applicable only to US Government
 contracts under FAR:
  
                    RESTRICTED RIGHTS LEGEND
  
 Use, reproduction and disclosure by the US Government is
 subject to restrictions as set forth in subparagraphs (a)
 and (c) of the Commercial Computer Software - Restricted
 Rights clause in FAR 52.227-19.
  
 Gaussian, Inc.
 340 Quinnipiac St., Bldg. 40, Wallingford CT 06492
  
  
 ---------------------------------------------------------------
 Warning -- This program may not be used in any manner that
 competes with the business of Gaussian, Inc. or will provide
 assistance to any competitor of Gaussian, Inc.  The licensee
 of this program is prohibited from giving any competitor of
 Gaussian, Inc. access to this program.  By using this program,
 the user acknowledges that Gaussian, Inc. is engaged in the
 business of creating and licensing software in the field of
 computational chemistry and represents and warrants to the
 licensee that it is not a competitor of Gaussian, Inc. and that
 it will not use this program in any manner prohibited above.
 ---------------------------------------------------------------
  

 Cite this work as:
 Gaussian 16, Revision A.03,
 M. J. Frisch, G. W. Trucks, H. B. Schlegel, G. E. Scuseria, 
 M. A. Robb, J. R. Cheeseman, G. Scalmani, V. Barone, 
 G. A. Petersson, H. Nakatsuji, X. Li, M. Caricato, A. V. Marenich, 
 J. Bloino, B. G. Janesko, R. Gomperts, B. Mennucci, H. P. Hratchian, 
 J. V. Ortiz, A. F. Izmaylov, J. L. Sonnenberg, D. Williams-Young, 
 F. Ding, F. Lipparini, F. Egidi, J. Goings, B. Peng, A. Petrone, 
 T. Henderson, D. Ranasinghe, V. G. Zakrzewski, J. Gao, N. Rega, 
 G. Zheng, W. Liang, M. Hada, M. Ehara, K. Toyota, R. Fukuda, 
 J. Hasegawa, M. Ishida, T. Nakajima, Y. Honda, O. Kitao, H. Nakai, 
 T. Vreven, K. Throssell, J. A. Montgomery, Jr., J. E. Peralta, 
 F. Ogliaro, M. J. Bearpark, J. J. Heyd, E. N. Brothers, K. N. Kudin, 
 V. N. Staroverov, T. A. Keith, R. Kobayashi, J. Normand, 
 K. Raghavachari, A. P. Rendell, J. C. Burant, S. S. Iyengar, 
 J. Tomasi, M. Cossi, J. M. Millam, M. Klene, C. Adamo, R. Cammi, 
 J. W. Ochterski, R. L. Martin, K. Morokuma, O. Farkas, 
 J. B. Foresman, and D. J. Fox, Gaussian, Inc., Wallingford CT, 2016.
 
 ******************************************
 Gaussian 16:  ES64L-G16RevA.03 25-Dec-2016
                28-Jun-2022 
 ******************************************
 %mem=10GB
 %chk=16_addons_C84_14_Cl22_rank_3.chk
 %nprocshared=24
 Will use up to   24 processors via shared memory.
 ------------------------------------------------
 #P opt b3lyp/6-31G(d, p) empiricaldispersion=GD3
 ------------------------------------------------
 1/18=20,19=15,26=3,38=1/1,3;
 2/9=110,12=2,17=6,18=5,40=1/2;
 3/5=1,6=6,7=101,11=2,25=1,30=1,71=1,74=-5,124=31/1,2,3;
 4//1;
 5/5=2,38=5/2;
 6/7=2,8=2,9=2,10=2,28=1/1;
 7//1,2,3,16;
 1/18=20,19=15,26=3/3(2);
 2/9=110/2;
 99//99;
 2/9=110/2;
 3/5=1,6=6,7=101,11=2,25=1,30=1,71=1,74=-5,124=31/1,2,3;
 4/5=5,16=3,69=1/1;
 5/5=2,38=5/2;
 7//1,2,3,16;
 1/18=20,19=15,26=3/3(-5);
 2/9=110/2;
 6/7=2,8=2,9=2,10=2,19=2,28=1/1;
 99/9=1/99;
 Leave Link    1 at Tue Jun 28 02:26:53 2022, MaxMem=  1342177280 cpu:               0.6 elap:               0.0
 (Enter /home/mkliu/g16/l101.exe)
 -----
 force
 -----
 Symbolic Z-matrix:
 Charge =  0 Multiplicity = 1
 C                     8.2309    18.65775   10.56951 
 C                     12.46521   20.01653   8.90581 
 C                     8.28454   26.83205   10.51172 
 C                     12.49303   25.74019   8.8877 
 C                     7.96662   18.97592   9.12113 
 C                     11.8538   19.60733   10.20731 
 C                     7.9711    26.77399   9.14532 
 C                     11.87122   26.14692   10.18861 
 C                     8.95127   19.14617   8.13759 
 C                     12.10647   20.26246   11.38034 
 C                     12.10969   25.49953   11.36243 
 C                     8.96793   26.59969   8.14306 
 C                     10.2997   19.09015   8.58432 
 C                     10.29139   26.6486   8.59307 
 C                     10.60153   19.01173   10.00335 
 C                     10.61049   26.74275   9.9764 
 C                     9.62417   19.01757   10.99066 
 C                     9.61477   26.73335   10.97443 
 C                     9.89305   19.67751   12.19887 
 C                     9.8968    26.08114   12.20874 
 C                     8.77314   20.07645   13.11642 
 C                     8.77031   25.67701   13.11643 
 C                     7.46683   20.17976   12.37389 
 C                     7.44454   25.58471   12.40685 
 C                     7.2189    19.53543   11.24627 
 C                     7.21494   26.20562   11.24884 
 C                     6.12869   19.97552   10.3115 
 C                     6.1064    25.79229   10.32015 
 C                     6.72256   19.5904   8.99683 
 C                     6.67757   26.19314   8.99459 
 C                     6.39733   20.25445   7.84685 
 C                     6.37347   25.53586   7.85761 
 C                     7.33322   20.34929   6.80446 
 C                     7.3334    25.42637   6.80416 
 C                     8.66247   19.88457   6.94655 
 C                     8.66927   25.86108   6.95578 
 C                     9.71788   20.59601   6.26435 
 C                     9.72466   25.1363   6.2855 
 C                     11.04488   20.58034   6.8154 
 C                     12.66776   22.18053   7.78708 
 C                     12.70897   23.57817   7.77341 
 C                     11.05792   25.16723   6.83752 
 C                     11.31105   19.77621   7.94869 
 C                     12.83747   21.47228   8.96576 
 C                     12.8676   24.28306   8.94661 
 C                     11.3303   25.94144   7.92836 
 C                     13.0585   22.17744   10.1582 
 C                     13.06403   23.57892   10.15163 
 C                     13.05215   21.42132   11.47388 
 C                     13.04909   24.33801   11.46425 
 C                     12.40222   22.21924   12.56872 
 C                     12.39897   23.54344   12.56179 
 C                     11.12915   20.28429   12.38252 
 C                     11.12391   25.48064   12.3761 
 C                     11.41504   21.3985   13.3534 
 C                     11.41279   24.3647   13.34511 
 C                     8.95563   21.50063   13.56135 
 C                     8.95279   24.25573   13.56363 
 C                     7.75453   22.19469   13.4362 
 C                     7.75159   23.56114   13.44096 
 C                     6.68917   21.4099   12.7486 
 C                     6.67618   24.34825   12.76818 
 C                     6.23004   22.18162   11.5197 
 C                     6.22434   23.5851   11.52525 
 C                     5.94747   21.48692   10.34063 
 C                     5.93674   24.27932   10.34627 
 C                     5.63881   22.18486   9.16176 
 C                     5.63436   23.58509   9.16461 
 C                     5.44209   21.41524   7.85836 
 C                     5.43206   24.36199   7.86282 
 C                     5.94456   22.21396   6.68901 
 C                     5.94498   23.57207   6.69271 
 C                     7.00675   21.51341   6.03845 
 C                     7.00564   24.27876   6.04537 
 C                     8.01316   22.17755   5.37248 
 C                     8.02029   23.60769   5.36929 
 C                     9.36686   21.71356   5.4718 
 C                     9.36416   24.05653   5.45725 
 C                     11.86224   21.71923   6.66856 
 C                     12.0772   24.10682   6.505 
 C                     10.19641   22.86817   5.39387 
 C                     11.44419   22.85512   5.97016 
 C                     10.16411   22.17833   13.63379 
 C                     10.16306   23.58178   13.63182 
 Cl                    4.55393   19.18205   10.67121 
 Cl                    3.71228   20.94481   7.7209 
 Cl                    3.69681   24.80882   7.72668 
 Cl                    4.53737   26.57151   10.71455 
 Cl                    5.26197   21.04988   13.78395 
 Cl                    5.24162   24.65878   13.81121 
 Cl                    14.73958   20.93728   11.88259 
 Cl                    14.73656   24.82488   11.88307 
 Cl                    13.91362   19.03619   8.46016 
 Cl                    13.91893   26.74095   8.43408 
 Cl                    7.93141   16.89878   10.90753 
 Cl                    13.31788   24.77901   5.37484 
 Cl                    8.66835   18.94165   14.51572 
 Cl                    12.12323   20.77906   14.8956 
 Cl                    12.12406   24.98743   14.88474 
 Cl                    8.68102   26.80841   14.53435 
 
 ITRead=  0  0  0  0  0  0  0  0  0  0  0  0  0  0  0  0  0  0  0  0
 ITRead=  0  0  0  0  0  0  0  0  0  0  0  0  0  0  0  0  0  0  0  0
 ITRead=  0  0  0  0  0  0  0  0  0  0  0  0  0  0  0  0  0  0  0  0
 ITRead=  0  0  0  0  0  0  0  0  0  0  0  0  0  0  0  0  0  0  0  0
 ITRead=  0  0  0  0  0  0  0  0  0  0  0  0  0  0  0  0  0  0  0  0
 MicOpt= -1 -1 -1 -1 -1 -1 -1 -1 -1 -1 -1 -1 -1 -1 -1 -1 -1 -1 -1 -1
 MicOpt= -1 -1 -1 -1 -1 -1 -1 -1 -1 -1 -1 -1 -1 -1 -1 -1 -1 -1 -1 -1
 MicOpt= -1 -1 -1 -1 -1 -1 -1 -1 -1 -1 -1 -1 -1 -1 -1 -1 -1 -1 -1 -1
 MicOpt= -1 -1 -1 -1 -1 -1 -1 -1 -1 -1 -1 -1 -1 -1 -1 -1 -1 -1 -1 -1
 MicOpt= -1 -1 -1 -1 -1 -1 -1 -1 -1 -1 -1 -1 -1 -1 -1 -1 -1 -1 -1 -1
 NAtoms=    100 NQM=      100 NQMF=       0 NMMI=      0 NMMIF=      0
                NMic=       0 NMicF=      0.
                    Isotopes and Nuclear Properties:
 (Nuclear quadrupole moments (NQMom) in fm**2, nuclear magnetic moments (NMagM)
  in nuclear magnetons)

  Atom         1           2           3           4           5           6           7           8           9          10
 IAtWgt=          12          12          12          12          12          12          12          12          12          12
 AtmWgt=  12.0000000  12.0000000  12.0000000  12.0000000  12.0000000  12.0000000  12.0000000  12.0000000  12.0000000  12.0000000
 NucSpn=           0           0           0           0           0           0           0           0           0           0
 AtZEff=  -0.0000000  -0.0000000  -0.0000000  -0.0000000  -0.0000000  -0.0000000  -0.0000000  -0.0000000  -0.0000000  -0.0000000
 NQMom=    0.0000000   0.0000000   0.0000000   0.0000000   0.0000000   0.0000000   0.0000000   0.0000000   0.0000000   0.0000000
 NMagM=    0.0000000   0.0000000   0.0000000   0.0000000   0.0000000   0.0000000   0.0000000   0.0000000   0.0000000   0.0000000
 AtZNuc=   6.0000000   6.0000000   6.0000000   6.0000000   6.0000000   6.0000000   6.0000000   6.0000000   6.0000000   6.0000000

  Atom        11          12          13          14          15          16          17          18          19          20
 IAtWgt=          12          12          12          12          12          12          12          12          12          12
 AtmWgt=  12.0000000  12.0000000  12.0000000  12.0000000  12.0000000  12.0000000  12.0000000  12.0000000  12.0000000  12.0000000
 NucSpn=           0           0           0           0           0           0           0           0           0           0
 AtZEff=  -0.0000000  -0.0000000  -0.0000000  -0.0000000  -0.0000000  -0.0000000  -0.0000000  -0.0000000  -0.0000000  -0.0000000
 NQMom=    0.0000000   0.0000000   0.0000000   0.0000000   0.0000000   0.0000000   0.0000000   0.0000000   0.0000000   0.0000000
 NMagM=    0.0000000   0.0000000   0.0000000   0.0000000   0.0000000   0.0000000   0.0000000   0.0000000   0.0000000   0.0000000
 AtZNuc=   6.0000000   6.0000000   6.0000000   6.0000000   6.0000000   6.0000000   6.0000000   6.0000000   6.0000000   6.0000000

  Atom        21          22          23          24          25          26          27          28          29          30
 IAtWgt=          12          12          12          12          12          12          12          12          12          12
 AtmWgt=  12.0000000  12.0000000  12.0000000  12.0000000  12.0000000  12.0000000  12.0000000  12.0000000  12.0000000  12.0000000
 NucSpn=           0           0           0           0           0           0           0           0           0           0
 AtZEff=  -0.0000000  -0.0000000  -0.0000000  -0.0000000  -0.0000000  -0.0000000  -0.0000000  -0.0000000  -0.0000000  -0.0000000
 NQMom=    0.0000000   0.0000000   0.0000000   0.0000000   0.0000000   0.0000000   0.0000000   0.0000000   0.0000000   0.0000000
 NMagM=    0.0000000   0.0000000   0.0000000   0.0000000   0.0000000   0.0000000   0.0000000   0.0000000   0.0000000   0.0000000
 AtZNuc=   6.0000000   6.0000000   6.0000000   6.0000000   6.0000000   6.0000000   6.0000000   6.0000000   6.0000000   6.0000000

  Atom        31          32          33          34          35          36          37          38          39          40
 IAtWgt=          12          12          12          12          12          12          12          12          12          12
 AtmWgt=  12.0000000  12.0000000  12.0000000  12.0000000  12.0000000  12.0000000  12.0000000  12.0000000  12.0000000  12.0000000
 NucSpn=           0           0           0           0           0           0           0           0           0           0
 AtZEff=  -0.0000000  -0.0000000  -0.0000000  -0.0000000  -0.0000000  -0.0000000  -0.0000000  -0.0000000  -0.0000000  -0.0000000
 NQMom=    0.0000000   0.0000000   0.0000000   0.0000000   0.0000000   0.0000000   0.0000000   0.0000000   0.0000000   0.0000000
 NMagM=    0.0000000   0.0000000   0.0000000   0.0000000   0.0000000   0.0000000   0.0000000   0.0000000   0.0000000   0.0000000
 AtZNuc=   6.0000000   6.0000000   6.0000000   6.0000000   6.0000000   6.0000000   6.0000000   6.0000000   6.0000000   6.0000000

  Atom        41          42          43          44          45          46          47          48          49          50
 IAtWgt=          12          12          12          12          12          12          12          12          12          12
 AtmWgt=  12.0000000  12.0000000  12.0000000  12.0000000  12.0000000  12.0000000  12.0000000  12.0000000  12.0000000  12.0000000
 NucSpn=           0           0           0           0           0           0           0           0           0           0
 AtZEff=  -0.0000000  -0.0000000  -0.0000000  -0.0000000  -0.0000000  -0.0000000  -0.0000000  -0.0000000  -0.0000000  -0.0000000
 NQMom=    0.0000000   0.0000000   0.0000000   0.0000000   0.0000000   0.0000000   0.0000000   0.0000000   0.0000000   0.0000000
 NMagM=    0.0000000   0.0000000   0.0000000   0.0000000   0.0000000   0.0000000   0.0000000   0.0000000   0.0000000   0.0000000
 AtZNuc=   6.0000000   6.0000000   6.0000000   6.0000000   6.0000000   6.0000000   6.0000000   6.0000000   6.0000000   6.0000000

  Atom        51          52          53          54          55          56          57          58          59          60
 IAtWgt=          12          12          12          12          12          12          12          12          12          12
 AtmWgt=  12.0000000  12.0000000  12.0000000  12.0000000  12.0000000  12.0000000  12.0000000  12.0000000  12.0000000  12.0000000
 NucSpn=           0           0           0           0           0           0           0           0           0           0
 AtZEff=  -0.0000000  -0.0000000  -0.0000000  -0.0000000  -0.0000000  -0.0000000  -0.0000000  -0.0000000  -0.0000000  -0.0000000
 NQMom=    0.0000000   0.0000000   0.0000000   0.0000000   0.0000000   0.0000000   0.0000000   0.0000000   0.0000000   0.0000000
 NMagM=    0.0000000   0.0000000   0.0000000   0.0000000   0.0000000   0.0000000   0.0000000   0.0000000   0.0000000   0.0000000
 AtZNuc=   6.0000000   6.0000000   6.0000000   6.0000000   6.0000000   6.0000000   6.0000000   6.0000000   6.0000000   6.0000000

  Atom        61          62          63          64          65          66          67          68          69          70
 IAtWgt=          12          12          12          12          12          12          12          12          12          12
 AtmWgt=  12.0000000  12.0000000  12.0000000  12.0000000  12.0000000  12.0000000  12.0000000  12.0000000  12.0000000  12.0000000
 NucSpn=           0           0           0           0           0           0           0           0           0           0
 AtZEff=  -0.0000000  -0.0000000  -0.0000000  -0.0000000  -0.0000000  -0.0000000  -0.0000000  -0.0000000  -0.0000000  -0.0000000
 NQMom=    0.0000000   0.0000000   0.0000000   0.0000000   0.0000000   0.0000000   0.0000000   0.0000000   0.0000000   0.0000000
 NMagM=    0.0000000   0.0000000   0.0000000   0.0000000   0.0000000   0.0000000   0.0000000   0.0000000   0.0000000   0.0000000
 AtZNuc=   6.0000000   6.0000000   6.0000000   6.0000000   6.0000000   6.0000000   6.0000000   6.0000000   6.0000000   6.0000000

  Atom        71          72          73          74          75          76          77          78          79          80
 IAtWgt=          12          12          12          12          12          12          12          12          12          12
 AtmWgt=  12.0000000  12.0000000  12.0000000  12.0000000  12.0000000  12.0000000  12.0000000  12.0000000  12.0000000  12.0000000
 NucSpn=           0           0           0           0           0           0           0           0           0           0
 AtZEff=  -0.0000000  -0.0000000  -0.0000000  -0.0000000  -0.0000000  -0.0000000  -0.0000000  -0.0000000  -0.0000000  -0.0000000
 NQMom=    0.0000000   0.0000000   0.0000000   0.0000000   0.0000000   0.0000000   0.0000000   0.0000000   0.0000000   0.0000000
 NMagM=    0.0000000   0.0000000   0.0000000   0.0000000   0.0000000   0.0000000   0.0000000   0.0000000   0.0000000   0.0000000
 AtZNuc=   6.0000000   6.0000000   6.0000000   6.0000000   6.0000000   6.0000000   6.0000000   6.0000000   6.0000000   6.0000000

  Atom        81          82          83          84          85          86          87          88          89          90
 IAtWgt=          12          12          12          12          35          35          35          35          35          35
 AtmWgt=  12.0000000  12.0000000  12.0000000  12.0000000  34.9688527  34.9688527  34.9688527  34.9688527  34.9688527  34.9688527
 NucSpn=           0           0           0           0           3           3           3           3           3           3
 AtZEff=  -0.0000000  -0.0000000  -0.0000000  -0.0000000  -0.0000000  -0.0000000  -0.0000000  -0.0000000  -0.0000000  -0.0000000
 NQMom=    0.0000000   0.0000000   0.0000000   0.0000000  -8.1650000  -8.1650000  -8.1650000  -8.1650000  -8.1650000  -8.1650000
 NMagM=    0.0000000   0.0000000   0.0000000   0.0000000   0.8218740   0.8218740   0.8218740   0.8218740   0.8218740   0.8218740
 AtZNuc=   6.0000000   6.0000000   6.0000000   6.0000000  17.0000000  17.0000000  17.0000000  17.0000000  17.0000000  17.0000000

  Atom        91          92          93          94          95          96          97          98          99         100
 IAtWgt=          35          35          35          35          35          35          35          35          35          35
 AtmWgt=  34.9688527  34.9688527  34.9688527  34.9688527  34.9688527  34.9688527  34.9688527  34.9688527  34.9688527  34.9688527
 NucSpn=           3           3           3           3           3           3           3           3           3           3
 AtZEff=  -0.0000000  -0.0000000  -0.0000000  -0.0000000  -0.0000000  -0.0000000  -0.0000000  -0.0000000  -0.0000000  -0.0000000
 NQMom=   -8.1650000  -8.1650000  -8.1650000  -8.1650000  -8.1650000  -8.1650000  -8.1650000  -8.1650000  -8.1650000  -8.1650000
 NMagM=    0.8218740   0.8218740   0.8218740   0.8218740   0.8218740   0.8218740   0.8218740   0.8218740   0.8218740   0.8218740
 AtZNuc=  17.0000000  17.0000000  17.0000000  17.0000000  17.0000000  17.0000000  17.0000000  17.0000000  17.0000000  17.0000000
 Leave Link  101 at Tue Jun 28 02:26:54 2022, MaxMem=  1342177280 cpu:               6.7 elap:               0.3
 (Enter /home/mkliu/g16/l103.exe)

 GradGradGradGradGradGradGradGradGradGradGradGradGradGradGradGradGradGrad
 Berny optimization.
 Initialization pass.
                           ----------------------------
                           !    Initial Parameters    !
                           ! (Angstroms and Degrees)  !
 --------------------------                            --------------------------
 ! Name  Definition              Value          Derivative Info.                !
 --------------------------------------------------------------------------------
 ! R1    R(1,5)                  1.5063         estimate D2E/DX2                !
 ! R2    R(1,17)                 1.4993         estimate D2E/DX2                !
 ! R3    R(1,25)                 1.5008         estimate D2E/DX2                !
 ! R4    R(1,95)                 1.816          estimate D2E/DX2                !
 ! R5    R(2,6)                  1.495          estimate D2E/DX2                !
 ! R6    R(2,43)                 1.5185         estimate D2E/DX2                !
 ! R7    R(2,44)                 1.5038         estimate D2E/DX2                !
 ! R8    R(2,93)                 1.8049         estimate D2E/DX2                !
 ! R9    R(3,7)                  1.4031         estimate D2E/DX2                !
 ! R10   R(3,18)                 1.4119         estimate D2E/DX2                !
 ! R11   R(3,26)                 1.4422         estimate D2E/DX2                !
 ! R12   R(4,8)                  1.4981         estimate D2E/DX2                !
 ! R13   R(4,45)                 1.5057         estimate D2E/DX2                !
 ! R14   R(4,46)                 1.5208         estimate D2E/DX2                !
 ! R15   R(4,94)                 1.8001         estimate D2E/DX2                !
 ! R16   R(5,9)                  1.4021         estimate D2E/DX2                !
 ! R17   R(5,29)                 1.3931         estimate D2E/DX2                !
 ! R18   R(6,10)                 1.3671         estimate D2E/DX2                !
 ! R19   R(6,15)                 1.4016         estimate D2E/DX2                !
 ! R20   R(7,12)                 1.4243         estimate D2E/DX2                !
 ! R21   R(7,30)                 1.426          estimate D2E/DX2                !
 ! R22   R(8,11)                 1.3616         estimate D2E/DX2                !
 ! R23   R(8,16)                 1.4105         estimate D2E/DX2                !
 ! R24   R(9,13)                 1.4216         estimate D2E/DX2                !
 ! R25   R(9,35)                 1.4308         estimate D2E/DX2                !
 ! R26   R(10,49)                1.4987         estimate D2E/DX2                !
 ! R27   R(10,53)                1.4            estimate D2E/DX2                !
 ! R28   R(11,50)                1.4973         estimate D2E/DX2                !
 ! R29   R(11,54)                1.4141         estimate D2E/DX2                !
 ! R30   R(12,14)                1.3987         estimate D2E/DX2                !
 ! R31   R(12,36)                1.4298         estimate D2E/DX2                !
 ! R32   R(13,15)                1.4529         estimate D2E/DX2                !
 ! R33   R(13,43)                1.3775         estimate D2E/DX2                !
 ! R34   R(14,16)                1.4228         estimate D2E/DX2                !
 ! R35   R(14,46)                1.4217         estimate D2E/DX2                !
 ! R36   R(15,17)                1.3893         estimate D2E/DX2                !
 ! R37   R(16,18)                1.4098         estimate D2E/DX2                !
 ! R38   R(17,19)                1.4027         estimate D2E/DX2                !
 ! R39   R(18,20)                1.4242         estimate D2E/DX2                !
 ! R40   R(19,21)                1.5017         estimate D2E/DX2                !
 ! R41   R(19,53)                1.3892         estimate D2E/DX2                !
 ! R42   R(20,22)                1.5021         estimate D2E/DX2                !
 ! R43   R(20,54)                1.3764         estimate D2E/DX2                !
 ! R44   R(21,23)                1.5061         estimate D2E/DX2                !
 ! R45   R(21,57)                1.5032         estimate D2E/DX2                !
 ! R46   R(21,97)                1.8047         estimate D2E/DX2                !
 ! R47   R(22,24)                1.5065         estimate D2E/DX2                !
 ! R48   R(22,58)                1.5011         estimate D2E/DX2                !
 ! R49   R(22,100)               1.8162         estimate D2E/DX2                !
 ! R50   R(23,25)                1.3222         estimate D2E/DX2                !
 ! R51   R(23,61)                1.5028         estimate D2E/DX2                !
 ! R52   R(24,26)                1.3339         estimate D2E/DX2                !
 ! R53   R(24,62)                1.4999         estimate D2E/DX2                !
 ! R54   R(25,27)                1.502          estimate D2E/DX2                !
 ! R55   R(26,28)                1.5041         estimate D2E/DX2                !
 ! R56   R(27,29)                1.4931         estimate D2E/DX2                !
 ! R57   R(27,65)                1.5225         estimate D2E/DX2                !
 ! R58   R(27,85)                1.7997         estimate D2E/DX2                !
 ! R59   R(28,30)                1.498          estimate D2E/DX2                !
 ! R60   R(28,66)                1.5227         estimate D2E/DX2                !
 ! R61   R(28,88)                1.7957         estimate D2E/DX2                !
 ! R62   R(29,31)                1.3672         estimate D2E/DX2                !
 ! R63   R(30,32)                1.348          estimate D2E/DX2                !
 ! R64   R(31,33)                1.4041         estimate D2E/DX2                !
 ! R65   R(31,69)                1.5034         estimate D2E/DX2                !
 ! R66   R(32,34)                1.4294         estimate D2E/DX2                !
 ! R67   R(32,70)                1.5047         estimate D2E/DX2                !
 ! R68   R(33,35)                1.4153         estimate D2E/DX2                !
 ! R69   R(33,73)                1.4313         estimate D2E/DX2                !
 ! R70   R(34,36)                1.413          estimate D2E/DX2                !
 ! R71   R(34,74)                1.4143         estimate D2E/DX2                !
 ! R72   R(35,37)                1.4441         estimate D2E/DX2                !
 ! R73   R(36,38)                1.4451         estimate D2E/DX2                !
 ! R74   R(37,39)                1.437          estimate D2E/DX2                !
 ! R75   R(37,77)                1.4143         estimate D2E/DX2                !
 ! R76   R(38,42)                1.4434         estimate D2E/DX2                !
 ! R77   R(38,78)                1.4078         estimate D2E/DX2                !
 ! R78   R(39,43)                1.4149         estimate D2E/DX2                !
 ! R79   R(39,79)                1.4095         estimate D2E/DX2                !
 ! R80   R(40,41)                1.3983         estimate D2E/DX2                !
 ! R81   R(40,44)                1.3855         estimate D2E/DX2                !
 ! R82   R(40,79)                1.4535         estimate D2E/DX2                !
 ! R83   R(41,45)                1.3778         estimate D2E/DX2                !
 ! R84   R(41,80)                1.5124         estimate D2E/DX2                !
 ! R85   R(42,46)                1.3651         estimate D2E/DX2                !
 ! R86   R(42,80)                1.508          estimate D2E/DX2                !
 ! R87   R(44,47)                1.4029         estimate D2E/DX2                !
 ! R88   R(45,48)                1.4094         estimate D2E/DX2                !
 ! R89   R(47,48)                1.4015         estimate D2E/DX2                !
 ! R90   R(47,49)                1.5175         estimate D2E/DX2                !
 ! R91   R(48,50)                1.5164         estimate D2E/DX2                !
 ! R92   R(49,51)                1.5026         estimate D2E/DX2                !
 ! R93   R(49,91)                1.8024         estimate D2E/DX2                !
 ! R94   R(50,52)                1.5029         estimate D2E/DX2                !
 ! R95   R(50,92)                1.8055         estimate D2E/DX2                !
 ! R96   R(51,52)                1.3242         estimate D2E/DX2                !
 ! R97   R(51,55)                1.5046         estimate D2E/DX2                !
 ! R98   R(52,56)                1.5035         estimate D2E/DX2                !
 ! R99   R(53,55)                1.5053         estimate D2E/DX2                !
 ! R100  R(54,56)                1.5059         estimate D2E/DX2                !
 ! R101  R(55,83)                1.5005         estimate D2E/DX2                !
 ! R102  R(55,98)                1.8066         estimate D2E/DX2                !
 ! R103  R(56,84)                1.5023         estimate D2E/DX2                !
 ! R104  R(56,99)                1.8067         estimate D2E/DX2                !
 ! R105  R(57,59)                1.3929         estimate D2E/DX2                !
 ! R106  R(57,83)                1.3874         estimate D2E/DX2                !
 ! R107  R(58,60)                1.393          estimate D2E/DX2                !
 ! R108  R(58,84)                1.3869         estimate D2E/DX2                !
 ! R109  R(59,60)                1.3665         estimate D2E/DX2                !
 ! R110  R(59,61)                1.4912         estimate D2E/DX2                !
 ! R111  R(60,62)                1.4929         estimate D2E/DX2                !
 ! R112  R(61,63)                1.522          estimate D2E/DX2                !
 ! R113  R(61,89)                1.7996         estimate D2E/DX2                !
 ! R114  R(62,64)                1.5269         estimate D2E/DX2                !
 ! R115  R(62,90)                1.8006         estimate D2E/DX2                !
 ! R116  R(63,64)                1.4035         estimate D2E/DX2                !
 ! R117  R(63,65)                1.3974         estimate D2E/DX2                !
 ! R118  R(64,66)                1.3981         estimate D2E/DX2                !
 ! R119  R(65,67)                1.4043         estimate D2E/DX2                !
 ! R120  R(66,68)                1.4035         estimate D2E/DX2                !
 ! R121  R(67,68)                1.4002         estimate D2E/DX2                !
 ! R122  R(67,69)                1.5264         estimate D2E/DX2                !
 ! R123  R(68,70)                1.5294         estimate D2E/DX2                !
 ! R124  R(69,71)                1.5026         estimate D2E/DX2                !
 ! R125  R(69,86)                1.7979         estimate D2E/DX2                !
 ! R126  R(70,72)                1.5021         estimate D2E/DX2                !
 ! R127  R(70,87)                1.797          estimate D2E/DX2                !
 ! R128  R(71,72)                1.3581         estimate D2E/DX2                !
 ! R129  R(71,73)                1.4291         estimate D2E/DX2                !
 ! R130  R(72,74)                1.4295         estimate D2E/DX2                !
 ! R131  R(73,75)                1.3775         estimate D2E/DX2                !
 ! R132  R(74,76)                1.3917         estimate D2E/DX2                !
 ! R133  R(75,76)                1.4302         estimate D2E/DX2                !
 ! R134  R(75,77)                1.4345         estimate D2E/DX2                !
 ! R135  R(76,78)                1.4196         estimate D2E/DX2                !
 ! R136  R(77,81)                1.4239         estimate D2E/DX2                !
 ! R137  R(78,81)                1.4522         estimate D2E/DX2                !
 ! R138  R(79,82)                1.3974         estimate D2E/DX2                !
 ! R139  R(80,82)                1.5012         estimate D2E/DX2                !
 ! R140  R(80,96)                1.8079         estimate D2E/DX2                !
 ! R141  R(81,82)                1.3745         estimate D2E/DX2                !
 ! R142  R(83,84)                1.4034         estimate D2E/DX2                !
 ! A1    A(5,1,17)             112.4851         estimate D2E/DX2                !
 ! A2    A(5,1,25)             101.0551         estimate D2E/DX2                !
 ! A3    A(5,1,95)             110.7713         estimate D2E/DX2                !
 ! A4    A(17,1,25)            111.0749         estimate D2E/DX2                !
 ! A5    A(17,1,95)            109.4761         estimate D2E/DX2                !
 ! A6    A(25,1,95)            111.7954         estimate D2E/DX2                !
 ! A7    A(6,2,43)             101.2188         estimate D2E/DX2                !
 ! A8    A(6,2,44)             109.3593         estimate D2E/DX2                !
 ! A9    A(6,2,93)             113.2333         estimate D2E/DX2                !
 ! A10   A(43,2,44)            111.4986         estimate D2E/DX2                !
 ! A11   A(43,2,93)            111.6141         estimate D2E/DX2                !
 ! A12   A(44,2,93)            109.6938         estimate D2E/DX2                !
 ! A13   A(7,3,18)             121.7853         estimate D2E/DX2                !
 ! A14   A(7,3,26)             108.3069         estimate D2E/DX2                !
 ! A15   A(18,3,26)            120.0604         estimate D2E/DX2                !
 ! A16   A(8,4,45)             109.3911         estimate D2E/DX2                !
 ! A17   A(8,4,46)             101.2158         estimate D2E/DX2                !
 ! A18   A(8,4,94)             113.369          estimate D2E/DX2                !
 ! A19   A(45,4,46)            110.0569         estimate D2E/DX2                !
 ! A20   A(45,4,94)            110.5377         estimate D2E/DX2                !
 ! A21   A(46,4,94)            111.9063         estimate D2E/DX2                !
 ! A22   A(1,5,9)              125.2361         estimate D2E/DX2                !
 ! A23   A(1,5,29)             109.6124         estimate D2E/DX2                !
 ! A24   A(9,5,29)             120.7295         estimate D2E/DX2                !
 ! A25   A(2,6,10)             122.6978         estimate D2E/DX2                !
 ! A26   A(2,6,15)             110.7941         estimate D2E/DX2                !
 ! A27   A(10,6,15)            119.5784         estimate D2E/DX2                !
 ! A28   A(3,7,12)             122.277          estimate D2E/DX2                !
 ! A29   A(3,7,30)             108.8107         estimate D2E/DX2                !
 ! A30   A(12,7,30)            120.7075         estimate D2E/DX2                !
 ! A31   A(4,8,11)             123.1504         estimate D2E/DX2                !
 ! A32   A(4,8,16)             110.7949         estimate D2E/DX2                !
 ! A33   A(11,8,16)            119.1506         estimate D2E/DX2                !
 ! A34   A(5,9,13)             116.1614         estimate D2E/DX2                !
 ! A35   A(5,9,35)             120.3211         estimate D2E/DX2                !
 ! A36   A(13,9,35)            118.2534         estimate D2E/DX2                !
 ! A37   A(6,10,49)            122.7326         estimate D2E/DX2                !
 ! A38   A(6,10,53)            119.5158         estimate D2E/DX2                !
 ! A39   A(49,10,53)           112.5672         estimate D2E/DX2                !
 ! A40   A(8,11,50)            122.5031         estimate D2E/DX2                !
 ! A41   A(8,11,54)            120.1496         estimate D2E/DX2                !
 ! A42   A(50,11,54)           112.2253         estimate D2E/DX2                !
 ! A43   A(7,12,14)            115.5652         estimate D2E/DX2                !
 ! A44   A(7,12,36)            120.0898         estimate D2E/DX2                !
 ! A45   A(14,12,36)           118.8723         estimate D2E/DX2                !
 ! A46   A(9,13,15)            120.4038         estimate D2E/DX2                !
 ! A47   A(9,13,43)            122.1248         estimate D2E/DX2                !
 ! A48   A(15,13,43)           108.9682         estimate D2E/DX2                !
 ! A49   A(12,14,16)           121.8258         estimate D2E/DX2                !
 ! A50   A(12,14,46)           121.5746         estimate D2E/DX2                !
 ! A51   A(16,14,46)           108.8808         estimate D2E/DX2                !
 ! A52   A(6,15,13)            107.7457         estimate D2E/DX2                !
 ! A53   A(6,15,17)            121.557          estimate D2E/DX2                !
 ! A54   A(13,15,17)           123.2119         estimate D2E/DX2                !
 ! A55   A(8,16,14)            108.5902         estimate D2E/DX2                !
 ! A56   A(8,16,18)            121.4636         estimate D2E/DX2                !
 ! A57   A(14,16,18)           121.9674         estimate D2E/DX2                !
 ! A58   A(1,17,15)            116.9432         estimate D2E/DX2                !
 ! A59   A(1,17,19)            122.2065         estimate D2E/DX2                !
 ! A60   A(15,17,19)           118.637          estimate D2E/DX2                !
 ! A61   A(3,18,16)            115.6562         estimate D2E/DX2                !
 ! A62   A(3,18,20)            120.1729         estimate D2E/DX2                !
 ! A63   A(16,18,20)           118.4707         estimate D2E/DX2                !
 ! A64   A(17,19,21)           120.551          estimate D2E/DX2                !
 ! A65   A(17,19,53)           119.3356         estimate D2E/DX2                !
 ! A66   A(21,19,53)           117.8239         estimate D2E/DX2                !
 ! A67   A(18,20,22)           119.8951         estimate D2E/DX2                !
 ! A68   A(18,20,54)           118.7976         estimate D2E/DX2                !
 ! A69   A(22,20,54)           118.5393         estimate D2E/DX2                !
 ! A70   A(19,21,23)           111.3335         estimate D2E/DX2                !
 ! A71   A(19,21,57)           109.9986         estimate D2E/DX2                !
 ! A72   A(19,21,97)           110.4877         estimate D2E/DX2                !
 ! A73   A(23,21,57)           100.733          estimate D2E/DX2                !
 ! A74   A(23,21,97)           112.0267         estimate D2E/DX2                !
 ! A75   A(57,21,97)           111.9199         estimate D2E/DX2                !
 ! A76   A(20,22,24)           113.0686         estimate D2E/DX2                !
 ! A77   A(20,22,58)           110.0968         estimate D2E/DX2                !
 ! A78   A(20,22,100)          109.9404         estimate D2E/DX2                !
 ! A79   A(24,22,58)           100.9112         estimate D2E/DX2                !
 ! A80   A(24,22,100)          111.2606         estimate D2E/DX2                !
 ! A81   A(58,22,100)          111.2978         estimate D2E/DX2                !
 ! A82   A(21,23,25)           123.3441         estimate D2E/DX2                !
 ! A83   A(21,23,61)           112.46           estimate D2E/DX2                !
 ! A84   A(25,23,61)           120.9654         estimate D2E/DX2                !
 ! A85   A(22,24,26)           122.1306         estimate D2E/DX2                !
 ! A86   A(22,24,62)           112.82           estimate D2E/DX2                !
 ! A87   A(26,24,62)           120.3108         estimate D2E/DX2                !
 ! A88   A(1,25,23)            122.896          estimate D2E/DX2                !
 ! A89   A(1,25,27)            112.3427         estimate D2E/DX2                !
 ! A90   A(23,25,27)           121.6069         estimate D2E/DX2                !
 ! A91   A(3,26,24)            121.2161         estimate D2E/DX2                !
 ! A92   A(3,26,28)            110.5121         estimate D2E/DX2                !
 ! A93   A(24,26,28)           122.3435         estimate D2E/DX2                !
 ! A94   A(25,27,29)           100.5852         estimate D2E/DX2                !
 ! A95   A(25,27,65)           111.4291         estimate D2E/DX2                !
 ! A96   A(25,27,85)           112.4296         estimate D2E/DX2                !
 ! A97   A(29,27,65)           108.6774         estimate D2E/DX2                !
 ! A98   A(29,27,85)           114.2238         estimate D2E/DX2                !
 ! A99   A(65,27,85)           109.251          estimate D2E/DX2                !
 ! A100  A(26,28,30)           101.0591         estimate D2E/DX2                !
 ! A101  A(26,28,66)           110.1565         estimate D2E/DX2                !
 ! A102  A(26,28,88)           112.9004         estimate D2E/DX2                !
 ! A103  A(30,28,66)           108.8776         estimate D2E/DX2                !
 ! A104  A(30,28,88)           114.2924         estimate D2E/DX2                !
 ! A105  A(66,28,88)           109.2712         estimate D2E/DX2                !
 ! A106  A(5,29,27)            112.9793         estimate D2E/DX2                !
 ! A107  A(5,29,31)            120.1143         estimate D2E/DX2                !
 ! A108  A(27,29,31)           121.3801         estimate D2E/DX2                !
 ! A109  A(7,30,28)            111.1827         estimate D2E/DX2                !
 ! A110  A(7,30,32)            119.499          estimate D2E/DX2                !
 ! A111  A(28,30,32)           121.9955         estimate D2E/DX2                !
 ! A112  A(29,31,33)           119.9145         estimate D2E/DX2                !
 ! A113  A(29,31,69)           121.3155         estimate D2E/DX2                !
 ! A114  A(33,31,69)           112.1509         estimate D2E/DX2                !
 ! A115  A(30,32,34)           120.4938         estimate D2E/DX2                !
 ! A116  A(30,32,70)           121.2372         estimate D2E/DX2                !
 ! A117  A(34,32,70)           111.2809         estimate D2E/DX2                !
 ! A118  A(31,33,35)           121.9582         estimate D2E/DX2                !
 ! A119  A(31,33,73)           107.4719         estimate D2E/DX2                !
 ! A120  A(35,33,73)           122.346          estimate D2E/DX2                !
 ! A121  A(32,34,36)           122.1586         estimate D2E/DX2                !
 ! A122  A(32,34,74)           107.5731         estimate D2E/DX2                !
 ! A123  A(36,34,74)           121.7571         estimate D2E/DX2                !
 ! A124  A(9,35,33)            116.27           estimate D2E/DX2                !
 ! A125  A(9,35,37)            119.998          estimate D2E/DX2                !
 ! A126  A(33,35,37)           118.5034         estimate D2E/DX2                !
 ! A127  A(12,36,34)           116.4559         estimate D2E/DX2                !
 ! A128  A(12,36,38)           119.4506         estimate D2E/DX2                !
 ! A129  A(34,36,38)           119.103          estimate D2E/DX2                !
 ! A130  A(35,37,39)           119.2346         estimate D2E/DX2                !
 ! A131  A(35,37,77)           118.2043         estimate D2E/DX2                !
 ! A132  A(39,37,77)           116.918          estimate D2E/DX2                !
 ! A133  A(36,38,42)           119.1082         estimate D2E/DX2                !
 ! A134  A(36,38,78)           118.0694         estimate D2E/DX2                !
 ! A135  A(42,38,78)           118.5544         estimate D2E/DX2                !
 ! A136  A(37,39,43)           119.1498         estimate D2E/DX2                !
 ! A137  A(37,39,79)           119.1278         estimate D2E/DX2                !
 ! A138  A(43,39,79)           115.6955         estimate D2E/DX2                !
 ! A139  A(41,40,44)           121.0394         estimate D2E/DX2                !
 ! A140  A(41,40,79)           109.0278         estimate D2E/DX2                !
 ! A141  A(44,40,79)           124.0758         estimate D2E/DX2                !
 ! A142  A(40,41,45)           120.4255         estimate D2E/DX2                !
 ! A143  A(40,41,80)           110.1969         estimate D2E/DX2                !
 ! A144  A(45,41,80)           125.6879         estimate D2E/DX2                !
 ! A145  A(38,42,46)           120.1378         estimate D2E/DX2                !
 ! A146  A(38,42,80)           121.666          estimate D2E/DX2                !
 ! A147  A(46,42,80)           116.1137         estimate D2E/DX2                !
 ! A148  A(2,43,13)            110.2427         estimate D2E/DX2                !
 ! A149  A(2,43,39)            123.9109         estimate D2E/DX2                !
 ! A150  A(13,43,39)           120.9674         estimate D2E/DX2                !
 ! A151  A(2,44,40)            115.5061         estimate D2E/DX2                !
 ! A152  A(2,44,47)            124.0204         estimate D2E/DX2                !
 ! A153  A(40,44,47)           119.0426         estimate D2E/DX2                !
 ! A154  A(4,45,41)            115.6673         estimate D2E/DX2                !
 ! A155  A(4,45,48)            123.4779         estimate D2E/DX2                !
 ! A156  A(41,45,48)           119.239          estimate D2E/DX2                !
 ! A157  A(4,46,14)            109.244          estimate D2E/DX2                !
 ! A158  A(4,46,42)            125.5617         estimate D2E/DX2                !
 ! A159  A(14,46,42)           120.6571         estimate D2E/DX2                !
 ! A160  A(44,47,48)           119.9527         estimate D2E/DX2                !
 ! A161  A(44,47,49)           119.0682         estimate D2E/DX2                !
 ! A162  A(48,47,49)           120.1549         estimate D2E/DX2                !
 ! A163  A(45,48,47)           120.2013         estimate D2E/DX2                !
 ! A164  A(45,48,50)           119.2503         estimate D2E/DX2                !
 ! A165  A(47,48,50)           119.7679         estimate D2E/DX2                !
 ! A166  A(10,49,47)           109.5006         estimate D2E/DX2                !
 ! A167  A(10,49,51)           100.554          estimate D2E/DX2                !
 ! A168  A(10,49,91)           113.4059         estimate D2E/DX2                !
 ! A169  A(47,49,51)           111.6511         estimate D2E/DX2                !
 ! A170  A(47,49,91)           109.0562         estimate D2E/DX2                !
 ! A171  A(51,49,91)           112.478          estimate D2E/DX2                !
 ! A172  A(11,50,48)           109.6117         estimate D2E/DX2                !
 ! A173  A(11,50,52)           100.8587         estimate D2E/DX2                !
 ! A174  A(11,50,92)           113.1383         estimate D2E/DX2                !
 ! A175  A(48,50,52)           111.8244         estimate D2E/DX2                !
 ! A176  A(48,50,92)           109.0613         estimate D2E/DX2                !
 ! A177  A(52,50,92)           112.1765         estimate D2E/DX2                !
 ! A178  A(49,51,52)           121.8888         estimate D2E/DX2                !
 ! A179  A(49,51,55)           111.9702         estimate D2E/DX2                !
 ! A180  A(52,51,55)           123.1332         estimate D2E/DX2                !
 ! A181  A(50,52,51)           122.1035         estimate D2E/DX2                !
 ! A182  A(50,52,56)           112.0507         estimate D2E/DX2                !
 ! A183  A(51,52,56)           123.0314         estimate D2E/DX2                !
 ! A184  A(10,53,19)           121.3132         estimate D2E/DX2                !
 ! A185  A(10,53,55)           109.9176         estimate D2E/DX2                !
 ! A186  A(19,53,55)           125.28           estimate D2E/DX2                !
 ! A187  A(11,54,20)           121.9054         estimate D2E/DX2                !
 ! A188  A(11,54,56)           109.7212         estimate D2E/DX2                !
 ! A189  A(20,54,56)           124.9303         estimate D2E/DX2                !
 ! A190  A(51,55,53)           101.07           estimate D2E/DX2                !
 ! A191  A(51,55,83)           111.1573         estimate D2E/DX2                !
 ! A192  A(51,55,98)           112.0268         estimate D2E/DX2                !
 ! A193  A(53,55,83)           110.2968         estimate D2E/DX2                !
 ! A194  A(53,55,98)           111.793          estimate D2E/DX2                !
 ! A195  A(83,55,98)           110.2115         estimate D2E/DX2                !
 ! A196  A(52,56,54)           101.2655         estimate D2E/DX2                !
 ! A197  A(52,56,84)           111.1245         estimate D2E/DX2                !
 ! A198  A(52,56,99)           111.964          estimate D2E/DX2                !
 ! A199  A(54,56,84)           110.4512         estimate D2E/DX2                !
 ! A200  A(54,56,99)           111.6204         estimate D2E/DX2                !
 ! A201  A(84,56,99)           110.1503         estimate D2E/DX2                !
 ! A202  A(21,57,59)           109.9272         estimate D2E/DX2                !
 ! A203  A(21,57,83)           125.7315         estimate D2E/DX2                !
 ! A204  A(59,57,83)           120.8243         estimate D2E/DX2                !
 ! A205  A(22,58,60)           109.9413         estimate D2E/DX2                !
 ! A206  A(22,58,84)           125.5076         estimate D2E/DX2                !
 ! A207  A(60,58,84)           120.9644         estimate D2E/DX2                !
 ! A208  A(57,59,60)           119.9893         estimate D2E/DX2                !
 ! A209  A(57,59,61)           113.2823         estimate D2E/DX2                !
 ! A210  A(60,59,61)           121.7588         estimate D2E/DX2                !
 ! A211  A(58,60,59)           119.8074         estimate D2E/DX2                !
 ! A212  A(58,60,62)           113.4509         estimate D2E/DX2                !
 ! A213  A(59,60,62)           121.8181         estimate D2E/DX2                !
 ! A214  A(23,61,59)           100.141          estimate D2E/DX2                !
 ! A215  A(23,61,63)           111.7045         estimate D2E/DX2                !
 ! A216  A(23,61,89)           112.9598         estimate D2E/DX2                !
 ! A217  A(59,61,63)           108.7223         estimate D2E/DX2                !
 ! A218  A(59,61,89)           113.9911         estimate D2E/DX2                !
 ! A219  A(63,61,89)           109.0702         estimate D2E/DX2                !
 ! A220  A(24,62,60)           100.0313         estimate D2E/DX2                !
 ! A221  A(24,62,64)           111.5619         estimate D2E/DX2                !
 ! A222  A(24,62,90)           113.9225         estimate D2E/DX2                !
 ! A223  A(60,62,64)           108.4509         estimate D2E/DX2                !
 ! A224  A(60,62,90)           113.8153         estimate D2E/DX2                !
 ! A225  A(64,62,90)           108.7812         estimate D2E/DX2                !
 ! A226  A(61,63,64)           120.3349         estimate D2E/DX2                !
 ! A227  A(61,63,65)           119.3543         estimate D2E/DX2                !
 ! A228  A(64,63,65)           119.9772         estimate D2E/DX2                !
 ! A229  A(62,64,63)           120.1203         estimate D2E/DX2                !
 ! A230  A(62,64,66)           119.9432         estimate D2E/DX2                !
 ! A231  A(63,64,66)           119.6065         estimate D2E/DX2                !
 ! A232  A(27,65,63)           119.0513         estimate D2E/DX2                !
 ! A233  A(27,65,67)           120.23           estimate D2E/DX2                !
 ! A234  A(63,65,67)           120.3764         estimate D2E/DX2                !
 ! A235  A(28,66,64)           119.008          estimate D2E/DX2                !
 ! A236  A(28,66,68)           120.0702         estimate D2E/DX2                !
 ! A237  A(64,66,68)           120.5778         estimate D2E/DX2                !
 ! A238  A(65,67,68)           119.7347         estimate D2E/DX2                !
 ! A239  A(65,67,69)           119.6408         estimate D2E/DX2                !
 ! A240  A(68,67,69)           120.3663         estimate D2E/DX2                !
 ! A241  A(66,68,67)           119.7144         estimate D2E/DX2                !
 ! A242  A(66,68,70)           119.5953         estimate D2E/DX2                !
 ! A243  A(67,68,70)           120.4415         estimate D2E/DX2                !
 ! A244  A(31,69,67)           108.2981         estimate D2E/DX2                !
 ! A245  A(31,69,71)           101.0695         estimate D2E/DX2                !
 ! A246  A(31,69,86)           114.1246         estimate D2E/DX2                !
 ! A247  A(67,69,71)           110.6968         estimate D2E/DX2                !
 ! A248  A(67,69,86)           108.7362         estimate D2E/DX2                !
 ! A249  A(71,69,86)           113.6609         estimate D2E/DX2                !
 ! A250  A(32,70,68)           108.4496         estimate D2E/DX2                !
 ! A251  A(32,70,72)           101.1819         estimate D2E/DX2                !
 ! A252  A(32,70,87)           114.1975         estimate D2E/DX2                !
 ! A253  A(68,70,72)           110.5331         estimate D2E/DX2                !
 ! A254  A(68,70,87)           108.573          estimate D2E/DX2                !
 ! A255  A(72,70,87)           113.6708         estimate D2E/DX2                !
 ! A256  A(69,71,72)           121.9741         estimate D2E/DX2                !
 ! A257  A(69,71,73)           110.0139         estimate D2E/DX2                !
 ! A258  A(72,71,73)           119.4209         estimate D2E/DX2                !
 ! A259  A(70,72,71)           121.864          estimate D2E/DX2                !
 ! A260  A(70,72,74)           110.2522         estimate D2E/DX2                !
 ! A261  A(71,72,74)           119.5611         estimate D2E/DX2                !
 ! A262  A(33,73,71)           108.942          estimate D2E/DX2                !
 ! A263  A(33,73,75)           118.9635         estimate D2E/DX2                !
 ! A264  A(71,73,75)           121.7886         estimate D2E/DX2                !
 ! A265  A(34,74,72)           109.2775         estimate D2E/DX2                !
 ! A266  A(34,74,76)           118.8771         estimate D2E/DX2                !
 ! A267  A(72,74,76)           121.504          estimate D2E/DX2                !
 ! A268  A(73,75,76)           119.1341         estimate D2E/DX2                !
 ! A269  A(73,75,77)           120.0034         estimate D2E/DX2                !
 ! A270  A(76,75,77)           108.5967         estimate D2E/DX2                !
 ! A271  A(74,76,75)           118.5193         estimate D2E/DX2                !
 ! A272  A(74,76,78)           120.5055         estimate D2E/DX2                !
 ! A273  A(75,76,78)           108.709          estimate D2E/DX2                !
 ! A274  A(37,77,75)           121.9118         estimate D2E/DX2                !
 ! A275  A(37,77,81)           121.7914         estimate D2E/DX2                !
 ! A276  A(75,77,81)           106.4825         estimate D2E/DX2                !
 ! A277  A(38,78,76)           121.4251         estimate D2E/DX2                !
 ! A278  A(38,78,81)           120.436          estimate D2E/DX2                !
 ! A279  A(76,78,81)           106.3254         estimate D2E/DX2                !
 ! A280  A(39,79,40)           119.8431         estimate D2E/DX2                !
 ! A281  A(39,79,82)           122.3696         estimate D2E/DX2                !
 ! A282  A(40,79,82)           107.002          estimate D2E/DX2                !
 ! A283  A(41,80,42)           110.0726         estimate D2E/DX2                !
 ! A284  A(41,80,82)           100.5733         estimate D2E/DX2                !
 ! A285  A(41,80,96)           111.5657         estimate D2E/DX2                !
 ! A286  A(42,80,82)           112.3264         estimate D2E/DX2                !
 ! A287  A(42,80,96)           109.8923         estimate D2E/DX2                !
 ! A288  A(82,80,96)           112.1284         estimate D2E/DX2                !
 ! A289  A(77,81,78)           109.1053         estimate D2E/DX2                !
 ! A290  A(77,81,82)           119.8844         estimate D2E/DX2                !
 ! A291  A(78,81,82)           120.6459         estimate D2E/DX2                !
 ! A292  A(79,82,80)           111.9354         estimate D2E/DX2                !
 ! A293  A(79,82,81)           119.2641         estimate D2E/DX2                !
 ! A294  A(80,82,81)           121.619          estimate D2E/DX2                !
 ! A295  A(55,83,57)           117.5504         estimate D2E/DX2                !
 ! A296  A(55,83,84)           121.3368         estimate D2E/DX2                !
 ! A297  A(57,83,84)           119.1914         estimate D2E/DX2                !
 ! A298  A(56,84,58)           117.5989         estimate D2E/DX2                !
 ! A299  A(56,84,83)           121.3845         estimate D2E/DX2                !
 ! A300  A(58,84,83)           119.1208         estimate D2E/DX2                !
 ! D1    D(17,1,5,9)            20.8357         estimate D2E/DX2                !
 ! D2    D(17,1,5,29)         -135.489          estimate D2E/DX2                !
 ! D3    D(25,1,5,9)           139.3514         estimate D2E/DX2                !
 ! D4    D(25,1,5,29)          -16.9733         estimate D2E/DX2                !
 ! D5    D(95,1,5,9)          -102.047          estimate D2E/DX2                !
 ! D6    D(95,1,5,29)          101.6283         estimate D2E/DX2                !
 ! D7    D(5,1,17,15)          -27.2427         estimate D2E/DX2                !
 ! D8    D(5,1,17,19)          135.6074         estimate D2E/DX2                !
 ! D9    D(25,1,17,15)        -139.6948         estimate D2E/DX2                !
 ! D10   D(25,1,17,19)          23.1553         estimate D2E/DX2                !
 ! D11   D(95,1,17,15)          96.364          estimate D2E/DX2                !
 ! D12   D(95,1,17,19)        -100.7858         estimate D2E/DX2                !
 ! D13   D(5,1,25,23)         -141.6072         estimate D2E/DX2                !
 ! D14   D(5,1,25,27)           18.5588         estimate D2E/DX2                !
 ! D15   D(17,1,25,23)         -22.0759         estimate D2E/DX2                !
 ! D16   D(17,1,25,27)         138.0901         estimate D2E/DX2                !
 ! D17   D(95,1,25,23)         100.5343         estimate D2E/DX2                !
 ! D18   D(95,1,25,27)         -99.2997         estimate D2E/DX2                !
 ! D19   D(43,2,6,10)         -142.1758         estimate D2E/DX2                !
 ! D20   D(43,2,6,15)            8.4237         estimate D2E/DX2                !
 ! D21   D(44,2,6,10)          -24.4203         estimate D2E/DX2                !
 ! D22   D(44,2,6,15)          126.1792         estimate D2E/DX2                !
 ! D23   D(93,2,6,10)           98.2324         estimate D2E/DX2                !
 ! D24   D(93,2,6,15)         -111.1681         estimate D2E/DX2                !
 ! D25   D(6,2,43,13)          -10.2638         estimate D2E/DX2                !
 ! D26   D(6,2,43,39)          145.0669         estimate D2E/DX2                !
 ! D27   D(44,2,43,13)        -126.4535         estimate D2E/DX2                !
 ! D28   D(44,2,43,39)          28.8772         estimate D2E/DX2                !
 ! D29   D(93,2,43,13)         110.4776         estimate D2E/DX2                !
 ! D30   D(93,2,43,39)         -94.1917         estimate D2E/DX2                !
 ! D31   D(6,2,44,40)         -143.8586         estimate D2E/DX2                !
 ! D32   D(6,2,44,47)           22.3136         estimate D2E/DX2                !
 ! D33   D(43,2,44,40)         -32.7566         estimate D2E/DX2                !
 ! D34   D(43,2,44,47)         133.4156         estimate D2E/DX2                !
 ! D35   D(93,2,44,40)          91.4013         estimate D2E/DX2                !
 ! D36   D(93,2,44,47)        -102.4265         estimate D2E/DX2                !
 ! D37   D(18,3,7,12)            0.6191         estimate D2E/DX2                !
 ! D38   D(18,3,7,30)          149.182          estimate D2E/DX2                !
 ! D39   D(26,3,7,12)         -145.0428         estimate D2E/DX2                !
 ! D40   D(26,3,7,30)            3.5201         estimate D2E/DX2                !
 ! D41   D(7,3,18,16)            7.6459         estimate D2E/DX2                !
 ! D42   D(7,3,18,20)         -145.3511         estimate D2E/DX2                !
 ! D43   D(26,3,18,16)         149.421          estimate D2E/DX2                !
 ! D44   D(26,3,18,20)          -3.5759         estimate D2E/DX2                !
 ! D45   D(7,3,26,24)          149.8162         estimate D2E/DX2                !
 ! D46   D(7,3,26,28)           -3.6451         estimate D2E/DX2                !
 ! D47   D(18,3,26,24)           3.4576         estimate D2E/DX2                !
 ! D48   D(18,3,26,28)        -150.0037         estimate D2E/DX2                !
 ! D49   D(45,4,8,11)           24.4341         estimate D2E/DX2                !
 ! D50   D(45,4,8,16)         -126.0692         estimate D2E/DX2                !
 ! D51   D(46,4,8,11)          140.5669         estimate D2E/DX2                !
 ! D52   D(46,4,8,16)           -9.9364         estimate D2E/DX2                !
 ! D53   D(94,4,8,11)          -99.4314         estimate D2E/DX2                !
 ! D54   D(94,4,8,16)          110.0652         estimate D2E/DX2                !
 ! D55   D(8,4,45,41)          143.8686         estimate D2E/DX2                !
 ! D56   D(8,4,45,48)          -21.491          estimate D2E/DX2                !
 ! D57   D(46,4,45,41)          33.5022         estimate D2E/DX2                !
 ! D58   D(46,4,45,48)        -131.8574         estimate D2E/DX2                !
 ! D59   D(94,4,45,41)         -90.6168         estimate D2E/DX2                !
 ! D60   D(94,4,45,48)         104.0237         estimate D2E/DX2                !
 ! D61   D(8,4,46,14)           11.206          estimate D2E/DX2                !
 ! D62   D(8,4,46,42)         -144.7845         estimate D2E/DX2                !
 ! D63   D(45,4,46,14)         126.8468         estimate D2E/DX2                !
 ! D64   D(45,4,46,42)         -29.1437         estimate D2E/DX2                !
 ! D65   D(94,4,46,14)        -109.8305         estimate D2E/DX2                !
 ! D66   D(94,4,46,42)          94.179          estimate D2E/DX2                !
 ! D67   D(1,5,9,13)            -4.0397         estimate D2E/DX2                !
 ! D68   D(1,5,9,35)          -157.971          estimate D2E/DX2                !
 ! D69   D(29,5,9,13)          149.8537         estimate D2E/DX2                !
 ! D70   D(29,5,9,35)           -4.0777         estimate D2E/DX2                !
 ! D71   D(1,5,29,27)           10.2416         estimate D2E/DX2                !
 ! D72   D(1,5,29,31)          164.3735         estimate D2E/DX2                !
 ! D73   D(9,5,29,27)         -147.3283         estimate D2E/DX2                !
 ! D74   D(9,5,29,31)            6.8036         estimate D2E/DX2                !
 ! D75   D(2,6,10,49)           -2.0036         estimate D2E/DX2                !
 ! D76   D(2,6,10,53)          150.6392         estimate D2E/DX2                !
 ! D77   D(15,6,10,49)        -150.1532         estimate D2E/DX2                !
 ! D78   D(15,6,10,53)           2.4896         estimate D2E/DX2                !
 ! D79   D(2,6,15,13)           -3.9422         estimate D2E/DX2                !
 ! D80   D(2,6,15,17)         -154.5701         estimate D2E/DX2                !
 ! D81   D(10,6,15,13)         147.6971         estimate D2E/DX2                !
 ! D82   D(10,6,15,17)          -2.9308         estimate D2E/DX2                !
 ! D83   D(3,7,12,14)           -7.2636         estimate D2E/DX2                !
 ! D84   D(3,7,12,36)          146.3505         estimate D2E/DX2                !
 ! D85   D(30,7,12,14)        -152.2187         estimate D2E/DX2                !
 ! D86   D(30,7,12,36)           1.3954         estimate D2E/DX2                !
 ! D87   D(3,7,30,28)           -2.1544         estimate D2E/DX2                !
 ! D88   D(3,7,30,32)         -152.8611         estimate D2E/DX2                !
 ! D89   D(12,7,30,28)         146.9896         estimate D2E/DX2                !
 ! D90   D(12,7,30,32)          -3.7171         estimate D2E/DX2                !
 ! D91   D(4,8,11,50)            1.6645         estimate D2E/DX2                !
 ! D92   D(4,8,11,54)         -151.0518         estimate D2E/DX2                !
 ! D93   D(16,8,11,50)         149.8579         estimate D2E/DX2                !
 ! D94   D(16,8,11,54)          -2.8585         estimate D2E/DX2                !
 ! D95   D(4,8,16,14)            5.2747         estimate D2E/DX2                !
 ! D96   D(4,8,16,18)          154.6684         estimate D2E/DX2                !
 ! D97   D(11,8,16,14)        -146.5599         estimate D2E/DX2                !
 ! D98   D(11,8,16,18)           2.8338         estimate D2E/DX2                !
 ! D99   D(5,9,13,15)           -6.6399         estimate D2E/DX2                !
 ! D100  D(5,9,13,43)         -151.0742         estimate D2E/DX2                !
 ! D101  D(35,9,13,15)         147.8519         estimate D2E/DX2                !
 ! D102  D(35,9,13,43)           3.4175         estimate D2E/DX2                !
 ! D103  D(5,9,35,33)           -3.3678         estimate D2E/DX2                !
 ! D104  D(5,9,35,37)          150.7163         estimate D2E/DX2                !
 ! D105  D(13,9,35,33)        -156.7667         estimate D2E/DX2                !
 ! D106  D(13,9,35,37)          -2.6827         estimate D2E/DX2                !
 ! D107  D(6,10,49,47)          30.2641         estimate D2E/DX2                !
 ! D108  D(6,10,49,51)         147.9174         estimate D2E/DX2                !
 ! D109  D(6,10,49,91)         -91.7892         estimate D2E/DX2                !
 ! D110  D(53,10,49,47)       -124.0742         estimate D2E/DX2                !
 ! D111  D(53,10,49,51)         -6.4209         estimate D2E/DX2                !
 ! D112  D(53,10,49,91)        113.8725         estimate D2E/DX2                !
 ! D113  D(6,10,53,19)          -1.4275         estimate D2E/DX2                !
 ! D114  D(6,10,53,55)        -161.3919         estimate D2E/DX2                !
 ! D115  D(49,10,53,19)        153.8252         estimate D2E/DX2                !
 ! D116  D(49,10,53,55)         -6.1392         estimate D2E/DX2                !
 ! D117  D(8,11,50,48)         -30.1609         estimate D2E/DX2                !
 ! D118  D(8,11,50,52)        -148.2083         estimate D2E/DX2                !
 ! D119  D(8,11,50,92)          91.796          estimate D2E/DX2                !
 ! D120  D(54,11,50,48)        124.4859         estimate D2E/DX2                !
 ! D121  D(54,11,50,52)          6.4385         estimate D2E/DX2                !
 ! D122  D(54,11,50,92)       -113.5572         estimate D2E/DX2                !
 ! D123  D(8,11,54,20)           1.3429         estimate D2E/DX2                !
 ! D124  D(8,11,54,56)         161.3405         estimate D2E/DX2                !
 ! D125  D(50,11,54,20)       -153.9726         estimate D2E/DX2                !
 ! D126  D(50,11,54,56)          6.0251         estimate D2E/DX2                !
 ! D127  D(7,12,14,16)           5.5482         estimate D2E/DX2                !
 ! D128  D(7,12,14,46)         151.4919         estimate D2E/DX2                !
 ! D129  D(36,12,14,16)       -148.4048         estimate D2E/DX2                !
 ! D130  D(36,12,14,46)         -2.4611         estimate D2E/DX2                !
 ! D131  D(7,12,36,34)           4.8221         estimate D2E/DX2                !
 ! D132  D(7,12,36,38)        -149.9833         estimate D2E/DX2                !
 ! D133  D(14,12,36,34)        157.5761         estimate D2E/DX2                !
 ! D134  D(14,12,36,38)          2.7707         estimate D2E/DX2                !
 ! D135  D(9,13,15,6)         -151.5422         estimate D2E/DX2                !
 ! D136  D(9,13,15,17)          -1.5123         estimate D2E/DX2                !
 ! D137  D(43,13,15,6)          -2.9326         estimate D2E/DX2                !
 ! D138  D(43,13,15,17)        147.0973         estimate D2E/DX2                !
 ! D139  D(9,13,43,2)          156.5157         estimate D2E/DX2                !
 ! D140  D(9,13,43,39)           0.3422         estimate D2E/DX2                !
 ! D141  D(15,13,43,2)           8.5518         estimate D2E/DX2                !
 ! D142  D(15,13,43,39)       -147.6218         estimate D2E/DX2                !
 ! D143  D(12,14,16,8)         152.0279         estimate D2E/DX2                !
 ! D144  D(12,14,16,18)          2.8191         estimate D2E/DX2                !
 ! D145  D(46,14,16,8)           2.3084         estimate D2E/DX2                !
 ! D146  D(46,14,16,18)       -146.9004         estimate D2E/DX2                !
 ! D147  D(12,14,46,4)        -158.6525         estimate D2E/DX2                !
 ! D148  D(12,14,46,42)         -1.2825         estimate D2E/DX2                !
 ! D149  D(16,14,46,4)          -8.8426         estimate D2E/DX2                !
 ! D150  D(16,14,46,42)        148.5274         estimate D2E/DX2                !
 ! D151  D(6,15,17,1)          165.6599         estimate D2E/DX2                !
 ! D152  D(6,15,17,19)           2.1754         estimate D2E/DX2                !
 ! D153  D(13,15,17,1)          19.6015         estimate D2E/DX2                !
 ! D154  D(13,15,17,19)       -143.883          estimate D2E/DX2                !
 ! D155  D(8,16,18,3)         -154.6764         estimate D2E/DX2                !
 ! D156  D(8,16,18,20)          -1.1973         estimate D2E/DX2                !
 ! D157  D(14,16,18,3)          -9.3454         estimate D2E/DX2                !
 ! D158  D(14,16,18,20)        144.1337         estimate D2E/DX2                !
 ! D159  D(1,17,19,21)          -1.1724         estimate D2E/DX2                !
 ! D160  D(1,17,19,53)        -163.619          estimate D2E/DX2                !
 ! D161  D(15,17,19,21)        161.3999         estimate D2E/DX2                !
 ! D162  D(15,17,19,53)         -1.0467         estimate D2E/DX2                !
 ! D163  D(3,18,20,22)          -8.9997         estimate D2E/DX2                !
 ! D164  D(3,18,20,54)         151.8906         estimate D2E/DX2                !
 ! D165  D(16,18,20,22)       -161.2518         estimate D2E/DX2                !
 ! D166  D(16,18,20,54)         -0.3615         estimate D2E/DX2                !
 ! D167  D(17,19,21,23)        -22.0411         estimate D2E/DX2                !
 ! D168  D(17,19,21,57)       -132.8285         estimate D2E/DX2                !
 ! D169  D(17,19,21,97)        103.1106         estimate D2E/DX2                !
 ! D170  D(53,19,21,23)        140.664          estimate D2E/DX2                !
 ! D171  D(53,19,21,57)         29.8765         estimate D2E/DX2                !
 ! D172  D(53,19,21,97)        -94.1844         estimate D2E/DX2                !
 ! D173  D(17,19,53,10)          0.6903         estimate D2E/DX2                !
 ! D174  D(17,19,53,55)        157.4506         estimate D2E/DX2                !
 ! D175  D(21,19,53,10)       -162.2313         estimate D2E/DX2                !
 ! D176  D(21,19,53,55)         -5.471          estimate D2E/DX2                !
 ! D177  D(18,20,22,24)         19.9633         estimate D2E/DX2                !
 ! D178  D(18,20,22,58)        131.9817         estimate D2E/DX2                !
 ! D179  D(18,20,22,100)      -105.0503         estimate D2E/DX2                !
 ! D180  D(54,20,22,24)       -140.9758         estimate D2E/DX2                !
 ! D181  D(54,20,22,58)        -28.9575         estimate D2E/DX2                !
 ! D182  D(54,20,22,100)        94.0105         estimate D2E/DX2                !
 ! D183  D(18,20,54,11)          0.3116         estimate D2E/DX2                !
 ! D184  D(18,20,54,56)       -156.5627         estimate D2E/DX2                !
 ! D185  D(22,20,54,11)        161.4627         estimate D2E/DX2                !
 ! D186  D(22,20,54,56)          4.5884         estimate D2E/DX2                !
 ! D187  D(19,21,23,25)         24.0364         estimate D2E/DX2                !
 ! D188  D(19,21,23,61)       -135.7596         estimate D2E/DX2                !
 ! D189  D(57,21,23,25)        140.634          estimate D2E/DX2                !
 ! D190  D(57,21,23,61)        -19.1619         estimate D2E/DX2                !
 ! D191  D(97,21,23,25)       -100.2512         estimate D2E/DX2                !
 ! D192  D(97,21,23,61)         99.9528         estimate D2E/DX2                !
 ! D193  D(19,21,57,59)        133.1321         estimate D2E/DX2                !
 ! D194  D(19,21,57,83)        -25.6542         estimate D2E/DX2                !
 ! D195  D(23,21,57,59)         15.5501         estimate D2E/DX2                !
 ! D196  D(23,21,57,83)       -143.2363         estimate D2E/DX2                !
 ! D197  D(97,21,57,59)       -103.6419         estimate D2E/DX2                !
 ! D198  D(97,21,57,83)         97.5718         estimate D2E/DX2                !
 ! D199  D(20,22,24,26)        -20.6282         estimate D2E/DX2                !
 ! D200  D(20,22,24,62)        134.994          estimate D2E/DX2                !
 ! D201  D(58,22,24,26)       -138.1733         estimate D2E/DX2                !
 ! D202  D(58,22,24,62)         17.4489         estimate D2E/DX2                !
 ! D203  D(100,22,24,26)       103.6675         estimate D2E/DX2                !
 ! D204  D(100,22,24,62)      -100.7103         estimate D2E/DX2                !
 ! D205  D(20,22,58,60)       -133.7492         estimate D2E/DX2                !
 ! D206  D(20,22,58,84)         24.876          estimate D2E/DX2                !
 ! D207  D(24,22,58,60)        -14.0497         estimate D2E/DX2                !
 ! D208  D(24,22,58,84)        144.5756         estimate D2E/DX2                !
 ! D209  D(100,22,58,60)       104.0824         estimate D2E/DX2                !
 ! D210  D(100,22,58,84)       -97.2924         estimate D2E/DX2                !
 ! D211  D(21,23,25,1)          -1.5785         estimate D2E/DX2                !
 ! D212  D(21,23,25,27)       -159.9564         estimate D2E/DX2                !
 ! D213  D(61,23,25,1)         156.5691         estimate D2E/DX2                !
 ! D214  D(61,23,25,27)         -1.8088         estimate D2E/DX2                !
 ! D215  D(21,23,61,59)         15.1403         estimate D2E/DX2                !
 ! D216  D(21,23,61,63)        130.1109         estimate D2E/DX2                !
 ! D217  D(21,23,61,89)       -106.4849         estimate D2E/DX2                !
 ! D218  D(25,23,61,59)       -145.198          estimate D2E/DX2                !
 ! D219  D(25,23,61,63)        -30.2274         estimate D2E/DX2                !
 ! D220  D(25,23,61,89)         93.1768         estimate D2E/DX2                !
 ! D221  D(22,24,26,3)           9.5524         estimate D2E/DX2                !
 ! D222  D(22,24,26,28)        159.8616         estimate D2E/DX2                !
 ! D223  D(62,24,26,3)        -144.2999         estimate D2E/DX2                !
 ! D224  D(62,24,26,28)          6.0093         estimate D2E/DX2                !
 ! D225  D(22,24,62,60)        -13.8016         estimate D2E/DX2                !
 ! D226  D(22,24,62,64)       -128.3517         estimate D2E/DX2                !
 ! D227  D(22,24,62,90)        108.0057         estimate D2E/DX2                !
 ! D228  D(26,24,62,60)        142.3147         estimate D2E/DX2                !
 ! D229  D(26,24,62,64)         27.7646         estimate D2E/DX2                !
 ! D230  D(26,24,62,90)        -95.878          estimate D2E/DX2                !
 ! D231  D(1,25,27,29)         -12.9944         estimate D2E/DX2                !
 ! D232  D(1,25,27,65)        -128.0389         estimate D2E/DX2                !
 ! D233  D(1,25,27,85)         108.9237         estimate D2E/DX2                !
 ! D234  D(23,25,27,29)        147.4627         estimate D2E/DX2                !
 ! D235  D(23,25,27,65)         32.4182         estimate D2E/DX2                !
 ! D236  D(23,25,27,85)        -90.6193         estimate D2E/DX2                !
 ! D237  D(3,26,28,30)           2.2077         estimate D2E/DX2                !
 ! D238  D(3,26,28,66)         117.2269         estimate D2E/DX2                !
 ! D239  D(3,26,28,88)        -120.3131         estimate D2E/DX2                !
 ! D240  D(24,26,28,30)       -150.9021         estimate D2E/DX2                !
 ! D241  D(24,26,28,66)        -35.8829         estimate D2E/DX2                !
 ! D242  D(24,26,28,88)         86.5771         estimate D2E/DX2                !
 ! D243  D(25,27,29,5)           1.4979         estimate D2E/DX2                !
 ! D244  D(25,27,29,31)       -152.2659         estimate D2E/DX2                !
 ! D245  D(65,27,29,5)         118.5955         estimate D2E/DX2                !
 ! D246  D(65,27,29,31)        -35.1683         estimate D2E/DX2                !
 ! D247  D(85,27,29,5)        -119.1466         estimate D2E/DX2                !
 ! D248  D(85,27,29,31)         87.0896         estimate D2E/DX2                !
 ! D249  D(25,27,65,63)        -30.1529         estimate D2E/DX2                !
 ! D250  D(25,27,65,67)        143.1554         estimate D2E/DX2                !
 ! D251  D(29,27,65,63)       -140.0898         estimate D2E/DX2                !
 ! D252  D(29,27,65,67)         33.2185         estimate D2E/DX2                !
 ! D253  D(85,27,65,63)         94.683          estimate D2E/DX2                !
 ! D254  D(85,27,65,67)        -92.0087         estimate D2E/DX2                !
 ! D255  D(26,28,30,7)          -0.054          estimate D2E/DX2                !
 ! D256  D(26,28,30,32)        149.8049         estimate D2E/DX2                !
 ! D257  D(66,28,30,7)        -116.0238         estimate D2E/DX2                !
 ! D258  D(66,28,30,32)         33.8351         estimate D2E/DX2                !
 ! D259  D(88,28,30,7)         121.495          estimate D2E/DX2                !
 ! D260  D(88,28,30,32)        -88.6461         estimate D2E/DX2                !
 ! D261  D(26,28,66,64)         31.1044         estimate D2E/DX2                !
 ! D262  D(26,28,66,68)       -142.2021         estimate D2E/DX2                !
 ! D263  D(30,28,66,64)        141.0707         estimate D2E/DX2                !
 ! D264  D(30,28,66,68)        -32.2359         estimate D2E/DX2                !
 ! D265  D(88,28,66,64)        -93.469          estimate D2E/DX2                !
[...]
 Alpha virt. eigenvalues --    1.54071   1.54799   1.55157   1.55767   1.56072
 Alpha virt. eigenvalues --    1.56680   1.57223   1.58274   1.58569   1.58894
 Alpha virt. eigenvalues --    1.59287   1.59643   1.59873   1.60377   1.60522
 Alpha virt. eigenvalues --    1.61324   1.61420   1.62090   1.62471   1.62793
 Alpha virt. eigenvalues --    1.63057   1.63436   1.63490   1.63719   1.63744
 Alpha virt. eigenvalues --    1.63884   1.64318   1.64347   1.64510   1.65062
 Alpha virt. eigenvalues --    1.65333   1.65358   1.65959   1.66174   1.66430
 Alpha virt. eigenvalues --    1.66501   1.66919   1.66933   1.67154   1.67192
 Alpha virt. eigenvalues --    1.67427   1.67718   1.67817   1.68015   1.68436
 Alpha virt. eigenvalues --    1.68874   1.69073   1.69194   1.69277   1.69612
 Alpha virt. eigenvalues --    1.69939   1.70224   1.70375   1.70514   1.70817
 Alpha virt. eigenvalues --    1.71050   1.71331   1.71505   1.71632   1.71933
 Alpha virt. eigenvalues --    1.71964   1.72081   1.72320   1.72654   1.72855
 Alpha virt. eigenvalues --    1.73334   1.73616   1.73674   1.73949   1.74376
 Alpha virt. eigenvalues --    1.74715   1.74917   1.75276   1.75342   1.75658
 Alpha virt. eigenvalues --    1.75806   1.76034   1.76090   1.76225   1.76513
 Alpha virt. eigenvalues --    1.76683   1.76823   1.77268   1.77356   1.77471
 Alpha virt. eigenvalues --    1.77755   1.78075   1.78440   1.78830   1.79003
 Alpha virt. eigenvalues --    1.79116   1.79476   1.79791   1.79851   1.80093
 Alpha virt. eigenvalues --    1.80261   1.80313   1.80716   1.81000   1.81298
 Alpha virt. eigenvalues --    1.81426   1.81912   1.82265   1.82408   1.82626
 Alpha virt. eigenvalues --    1.82757   1.83095   1.83523   1.83529   1.83902
 Alpha virt. eigenvalues --    1.84287   1.84452   1.84822   1.84881   1.85198
 Alpha virt. eigenvalues --    1.85624   1.86022   1.86313   1.86431   1.87032
 Alpha virt. eigenvalues --    1.87217   1.87399   1.87730   1.87979   1.88380
 Alpha virt. eigenvalues --    1.88725   1.88864   1.89050   1.89327   1.89866
 Alpha virt. eigenvalues --    1.90266   1.90774   1.91309   1.91486   1.91704
 Alpha virt. eigenvalues --    1.92286   1.92566   1.92745   1.93007   1.93394
 Alpha virt. eigenvalues --    1.93691   1.94137   1.94511   1.94832   1.95296
 Alpha virt. eigenvalues --    1.95392   1.95864   1.96000   1.96733   1.97208
 Alpha virt. eigenvalues --    1.97308   1.97729   1.97862   1.98288   1.98548
 Alpha virt. eigenvalues --    1.98843   1.99003   1.99328   1.99568   1.99866
 Alpha virt. eigenvalues --    2.00307   2.00700   2.00920   2.01370   2.01728
 Alpha virt. eigenvalues --    2.01912   2.02100   2.02688   2.02823   2.03224
 Alpha virt. eigenvalues --    2.03600   2.04397   2.04548   2.04780   2.05526
 Alpha virt. eigenvalues --    2.05774   2.05901   2.06356   2.06633   2.06824
 Alpha virt. eigenvalues --    2.07046   2.07539   2.07857   2.08006   2.08525
 Alpha virt. eigenvalues --    2.09232   2.09890   2.09959   2.10330   2.10616
 Alpha virt. eigenvalues --    2.11040   2.11584   2.11761   2.12263   2.12678
 Alpha virt. eigenvalues --    2.12821   2.13643   2.13991   2.14546   2.14991
 Alpha virt. eigenvalues --    2.15217   2.15853   2.16135   2.16189   2.16812
 Alpha virt. eigenvalues --    2.17334   2.17524   2.17677   2.18347   2.18755
 Alpha virt. eigenvalues --    2.19358   2.19591   2.19933   2.20265   2.20585
 Alpha virt. eigenvalues --    2.20967   2.21156   2.21704   2.21828   2.21973
 Alpha virt. eigenvalues --    2.22123   2.23073   2.23464   2.23823   2.24281
 Alpha virt. eigenvalues --    2.24551   2.25201   2.25396   2.25790   2.26551
 Alpha virt. eigenvalues --    2.26653   2.26826   2.27313   2.27456   2.27724
 Alpha virt. eigenvalues --    2.28678   2.28928   2.29541   2.29671   2.30158
 Alpha virt. eigenvalues --    2.30954   2.30990   2.31282   2.32155   2.32704
 Alpha virt. eigenvalues --    2.33073   2.33726   2.33860   2.34403   2.34687
 Alpha virt. eigenvalues --    2.35683   2.36544   2.36934   2.37270   2.38075
 Alpha virt. eigenvalues --    2.38289   2.38535   2.39227   2.39345   2.39832
 Alpha virt. eigenvalues --    2.40341   2.40962   2.41650   2.41934   2.42443
 Alpha virt. eigenvalues --    2.42885   2.43774   2.44145   2.44802   2.45038
 Alpha virt. eigenvalues --    2.45333   2.45689   2.46158   2.46345   2.47456
 Alpha virt. eigenvalues --    2.48021   2.48132   2.48381   2.48620   2.49422
 Alpha virt. eigenvalues --    2.49817   2.50043   2.50412   2.51244   2.51648
 Alpha virt. eigenvalues --    2.51964   2.52380   2.53052   2.53180   2.53754
 Alpha virt. eigenvalues --    2.53912   2.54231   2.54557   2.55056   2.55363
 Alpha virt. eigenvalues --    2.56251   2.56382   2.56567   2.56733   2.56837
 Alpha virt. eigenvalues --    2.57145   2.57408   2.57792   2.58003   2.58107
 Alpha virt. eigenvalues --    2.58719   2.59237   2.59634   2.59880   2.60313
 Alpha virt. eigenvalues --    2.60917   2.61358   2.61488   2.62051   2.62171
 Alpha virt. eigenvalues --    2.62537   2.62994   2.63195   2.63360   2.63790
 Alpha virt. eigenvalues --    2.64162   2.64577   2.64919   2.65240   2.65670
 Alpha virt. eigenvalues --    2.65956   2.66233   2.66649   2.66743   2.67655
 Alpha virt. eigenvalues --    2.67763   2.68622   2.68956   2.69201   2.69402
 Alpha virt. eigenvalues --    2.70203   2.70255   2.70561   2.70865   2.71146
 Alpha virt. eigenvalues --    2.71230   2.71701   2.72196   2.72406   2.72552
 Alpha virt. eigenvalues --    2.73202   2.73603   2.73930   2.74746   2.75320
 Alpha virt. eigenvalues --    2.75447   2.75708   2.75851   2.76102   2.76712
 Alpha virt. eigenvalues --    2.77103   2.77497   2.77862   2.78439   2.78973
 Alpha virt. eigenvalues --    2.79619   2.79984   2.80300   2.80450   2.80628
 Alpha virt. eigenvalues --    2.81444   2.82040   2.82355   2.82410   2.83153
 Alpha virt. eigenvalues --    2.83571   2.84548   2.84987   2.85732   2.86096
 Alpha virt. eigenvalues --    2.86647   2.86759   2.87114   2.87260   2.87441
 Alpha virt. eigenvalues --    2.88143   2.88937   2.89323   2.89688   2.90100
 Alpha virt. eigenvalues --    2.90568   2.91055   2.92195   2.92819   2.93128
 Alpha virt. eigenvalues --    2.93914   2.94643   2.95272   2.96169   2.96464
 Alpha virt. eigenvalues --    2.96746   2.98379   2.99211   3.00305   3.02594
 Alpha virt. eigenvalues --    3.03970   3.05418   3.06971   3.07957   3.08667
 Alpha virt. eigenvalues --    3.09710   3.09776   3.10480   3.10945   3.12068
 Alpha virt. eigenvalues --    3.13773   3.14151   3.15740   3.17703   3.18147
 Alpha virt. eigenvalues --    3.20063   3.20715   3.21884   3.24240   3.25627
 Alpha virt. eigenvalues --    3.27861   3.28441   3.29672   3.30284   3.32875
 Alpha virt. eigenvalues --    3.33670   3.36774   3.38259   3.41919   3.42140
 Alpha virt. eigenvalues --    3.44120   3.46838   3.48082   3.49799   3.51680
 Alpha virt. eigenvalues --    3.54872   4.00149   4.00683   4.01968   4.02700
 Alpha virt. eigenvalues --    4.03566   4.04434   4.05030   4.05920   4.06405
 Alpha virt. eigenvalues --    4.06874   4.07853   4.08563   4.09315   4.09625
 Alpha virt. eigenvalues --    4.10300   4.10777   4.11308   4.11874   4.12210
 Alpha virt. eigenvalues --    4.14966   4.15467   4.15521   4.16536   4.17046
 Alpha virt. eigenvalues --    4.17755   4.18665   4.19374   4.19638   4.20139
 Alpha virt. eigenvalues --    4.20746   4.21536   4.22828   4.22999   4.23782
 Alpha virt. eigenvalues --    4.24668   4.25231   4.25627   4.26010   4.26750
 Alpha virt. eigenvalues --    4.27123   4.27673   4.27756   4.27990   4.28464
 Alpha virt. eigenvalues --    4.28992   4.29370   4.30337   4.30600   4.31343
 Alpha virt. eigenvalues --    4.33305   4.34037   4.34170   4.35138   4.36353
 Alpha virt. eigenvalues --    4.37714   4.38385   4.39412   4.39894   4.40629
 Alpha virt. eigenvalues --    4.40946   4.41337   4.42576   4.42979   4.44245
 Alpha virt. eigenvalues --    4.44848   4.45452   4.46626   4.48318   4.49794
 Alpha virt. eigenvalues --    4.50732   4.52216   4.53545   4.53925   4.54967
 Alpha virt. eigenvalues --    4.56804   4.57469   4.60074   4.60203   4.61368
 Alpha virt. eigenvalues --    4.64667   4.65653   4.67985   4.69329   4.69825
 Alpha virt. eigenvalues --    4.76239   4.76752   4.79706   4.80772   4.81603
 Alpha virt. eigenvalues --    4.84772   4.85278   4.89899   4.92735   4.96541
 Alpha virt. eigenvalues --    4.99175   5.02559   5.04997   5.12819   5.14608
 Alpha virt. eigenvalues --    5.21201
          Condensed to atoms (all electrons):
 Mulliken charges:
               1
     1  C   -0.361134
     2  C   -0.375308
     3  C   -0.015698
     4  C   -0.389914
     5  C    0.074211
     6  C    0.086430
     7  C    0.016441
     8  C    0.084386
     9  C    0.062134
    10  C    0.131350
    11  C    0.130547
    12  C    0.043251
    13  C   -0.010463
    14  C    0.004396
    15  C    0.039999
    16  C    0.012606
    17  C    0.119590
    18  C    0.070060
    19  C    0.149777
    20  C    0.120976
    21  C   -0.386097
    22  C   -0.364348
    23  C    0.183578
    24  C    0.157414
    25  C    0.184454
    26  C    0.110296
    27  C   -0.371848
    28  C   -0.380784
    29  C    0.134692
    30  C    0.090481
    31  C    0.082823
    32  C    0.090463
    33  C    0.009995
    34  C    0.005422
    35  C    0.032358
    36  C    0.033508
    37  C    0.046264
    38  C    0.077712
    39  C    0.061306
    40  C    0.037357
    41  C    0.080254
    42  C    0.118385
    43  C    0.054346
    44  C    0.127331
    45  C    0.156752
    46  C    0.082314
    47  C    0.125499
    48  C    0.116074
    49  C   -0.374173
    50  C   -0.371325
    51  C    0.181617
    52  C    0.179811
    53  C    0.104954
    54  C    0.109416
    55  C   -0.380247
    56  C   -0.381475
    57  C    0.111300
    58  C    0.112802
    59  C    0.123778
    60  C    0.120208
    61  C   -0.374590
    62  C   -0.367065
    63  C    0.126996
    64  C    0.128330
    65  C    0.126960
    66  C    0.126982
    67  C    0.127132
    68  C    0.122540
    69  C   -0.377731
    70  C   -0.373503
    71  C    0.092300
    72  C    0.093593
    73  C    0.026343
    74  C    0.025730
    75  C   -0.012546
    76  C   -0.009364
    77  C   -0.015272
    78  C   -0.042388
    79  C   -0.004927
    80  C   -0.371599
    81  C    0.007803
    82  C    0.076539
    83  C    0.143100
    84  C    0.144463
    85  Cl   0.032269
    86  Cl   0.025154
    87  Cl   0.025929
    88  Cl   0.030115
    89  Cl   0.033983
    90  Cl   0.027571
    91  Cl   0.027322
    92  Cl   0.023154
    93  Cl   0.010429
    94  Cl   0.026914
    95  Cl   0.004347
    96  Cl   0.007266
    97  Cl   0.025517
    98  Cl   0.024168
    99  Cl   0.028753
   100  Cl   0.000983
 Sum of Mulliken charges =  -0.00000
 Mulliken charges with hydrogens summed into heavy atoms:
               1
     1  C   -0.361134
     2  C   -0.375308
     3  C   -0.015698
     4  C   -0.389914
     5  C    0.074211
     6  C    0.086430
     7  C    0.016441
     8  C    0.084386
     9  C    0.062134
    10  C    0.131350
    11  C    0.130547
    12  C    0.043251
    13  C   -0.010463
    14  C    0.004396
    15  C    0.039999
    16  C    0.012606
    17  C    0.119590
    18  C    0.070060
    19  C    0.149777
    20  C    0.120976
    21  C   -0.386097
    22  C   -0.364348
    23  C    0.183578
    24  C    0.157414
    25  C    0.184454
    26  C    0.110296
    27  C   -0.371848
    28  C   -0.380784
    29  C    0.134692
    30  C    0.090481
    31  C    0.082823
    32  C    0.090463
    33  C    0.009995
    34  C    0.005422
    35  C    0.032358
    36  C    0.033508
    37  C    0.046264
    38  C    0.077712
    39  C    0.061306
    40  C    0.037357
    41  C    0.080254
    42  C    0.118385
    43  C    0.054346
    44  C    0.127331
    45  C    0.156752
    46  C    0.082314
    47  C    0.125499
    48  C    0.116074
    49  C   -0.374173
    50  C   -0.371325
    51  C    0.181617
    52  C    0.179811
    53  C    0.104954
    54  C    0.109416
    55  C   -0.380247
    56  C   -0.381475
    57  C    0.111300
    58  C    0.112802
    59  C    0.123778
    60  C    0.120208
    61  C   -0.374590
    62  C   -0.367065
    63  C    0.126996
    64  C    0.128330
    65  C    0.126960
    66  C    0.126982
    67  C    0.127132
    68  C    0.122540
    69  C   -0.377731
    70  C   -0.373503
    71  C    0.092300
    72  C    0.093593
    73  C    0.026343
    74  C    0.025730
    75  C   -0.012546
    76  C   -0.009364
    77  C   -0.015272
    78  C   -0.042388
    79  C   -0.004927
    80  C   -0.371599
    81  C    0.007803
    82  C    0.076539
    83  C    0.143100
    84  C    0.144463
    85  Cl   0.032269
    86  Cl   0.025154
    87  Cl   0.025929
    88  Cl   0.030115
    89  Cl   0.033983
    90  Cl   0.027571
    91  Cl   0.027322
    92  Cl   0.023154
    93  Cl   0.010429
    94  Cl   0.026914
    95  Cl   0.004347
    96  Cl   0.007266
    97  Cl   0.025517
    98  Cl   0.024168
    99  Cl   0.028753
   100  Cl   0.000983
 Electronic spatial extent (au):  <R**2>=          71062.3748
 Charge=              0.0000 electrons
 Dipole moment (field-independent basis, Debye):
    X=             -0.5582    Y=              6.2588    Z=             -1.5537  Tot=              6.4729
 Quadrupole moment (field-independent basis, Debye-Ang):
   XX=           -715.4530   YY=           -681.5050   ZZ=           -678.3978
   XY=             -6.9382   XZ=              4.8461   YZ=             -0.1065
 Traceless Quadrupole moment (field-independent basis, Debye-Ang):
   XX=            -23.6677   YY=             10.2802   ZZ=             13.3875
   XY=             -6.9382   XZ=              4.8461   YZ=             -0.1065
 Octapole moment (field-independent basis, Debye-Ang**2):
  XXX=            -11.9939  YYY=            -28.7575  ZZZ=            -10.0978  XYY=            -36.4070
  XXY=            -35.7624  XXZ=              6.2657  XZZ=              5.7687  YZZ=             41.8871
  YYZ=             24.7026  XYZ=             25.1646
 Hexadecapole moment (field-independent basis, Debye-Ang**3):
 XXXX=         -38816.3123 YYYY=         -32027.7137 ZZZZ=         -28855.6639 XXXY=            178.0706
 XXXZ=            -90.2827 YYYX=           -121.1155 YYYZ=             15.0596 ZZZX=             82.1095
 ZZZY=             85.3701 XXYY=         -11928.9112 XXZZ=         -11325.0940 YYZZ=         -10093.8706
 XXYZ=            -47.5960 YYXZ=            -15.1296 ZZXY=            -11.4174
 N-N= 2.810898442866D+04 E-N=-8.110745443398D+04  KE= 1.051181858134D+04
 No NMR shielding tensors so no spin-rotation constants.
 Leave Link  601 at Tue Jun 28 04:01:50 2022, MaxMem=  1342177280 cpu:              27.8 elap:               1.4
 (Enter /home/mkliu/g16/l9999.exe)
 1\1\GINC-NODE05\FOpt\RB3LYP\6-31G(d,p)\C84Cl16\MKLIU\28-Jun-2022\0\\#P
  opt b3lyp/6-31G(d, p) empiricaldispersion=GD3\\force\\0,1\C,8.2305979
 371,18.6419476279,10.5753138993\C,12.4871048556,20.0008882524,8.902225
 4419\C,8.278700795,26.8516725912,10.51512825\C,12.5123473236,25.749452
 6407,8.8809762754\C,7.9612928309,18.9677847157,9.1189285557\C,11.87649
 4973,19.578818084,10.2147968056\C,7.9622107937,26.7952383334,9.1465971
 65\C,11.8828483042,26.1622322035,10.1886923181\C,8.9562618542,19.13047
 40491,8.1282506547\C,12.1276197382,20.2398165185,11.3919236509\C,12.12
 36373918,25.5150426663,11.3675600771\C,8.9703676374,26.6261793633,8.13
 36461885\C,10.3124285672,19.0708630565,8.5756129382\C,10.2993846075,26
 .6729721419,8.5795506873\C,10.6232855899,18.9854245054,10.0091032522\C
 ,10.6224792134,26.7632487547,9.9733785736\C,9.6375271862,18.9916143783
 ,10.9987542227\C,9.6191176845,26.7567274505,10.9760717278\C,9.90365320
 13,19.6572744259,12.2147905288\C,9.8994050075,26.0976314358,12.2186954
 034\C,8.7703874003,20.0635047781,13.1301733221\C,8.7646224102,25.69035
 69753,13.1337443785\C,7.453019157,20.1629740817,12.3874242431\C,7.4301
 622647,25.6011704584,12.4231110722\C,7.2066503038,19.5168880182,11.257
 3161288\C,7.206160839,26.2190610454,11.261244828\C,6.1088574745,19.952
 4550654,10.3135344831\C,6.0850668191,25.811013064,10.3253723429\C,6.71
 18488867,19.575762433,8.9891105162\C,6.6590952743,26.2140927904,8.9876
 416542\C,6.3828790862,20.2392750299,7.8328915841\C,6.3533578128,25.560
 5427433,7.849966785\C,7.3191524746,20.3409144948,6.7880780039\C,7.3186
 656685,25.4423331517,6.7867407558\C,8.6595581164,19.8703646993,6.92965
 6759\C,8.6646343142,25.8822965707,6.93639446\C,9.7234881886,20.5872269
 326,6.2361784186\C,9.7265185354,25.150529242,6.2542985381\C,11.0598158
 967,20.5663831664,6.7928520974\C,12.7108112198,22.1762336663,7.7654678
 362\C,12.761193831,23.5764139135,7.7492480769\C,11.0733618987,25.18146
 98539,6.8136037881\C,11.322810637,19.7536082313,7.9344711192\C,12.8792
 465546,21.4631120222,8.9485065956\C,12.9185148897,24.2882800015,8.9265
 73731\C,11.3397113916,25.9589217095,7.9083645696\C,13.1015093384,22.17
 19484019,10.1515078901\C,13.1101547745,23.582949164,10.1448642269\C,13
 .0748584579,21.4111935938,11.4804151668\C,13.0708867748,24.3471176064,
 11.4687138738\C,12.424469627,22.2172185447,12.5830948897\C,12.42033098
 49,23.5451226226,12.5751937687\C,11.147587274,20.2679778945,12.3977963
 465\C,11.134991284,25.4941261088,12.3848327852\C,11.4270058058,21.3944
 902148,13.3713774317\C,11.4223588146,24.368745187,13.3612533074\C,8.94
 48277861,21.49503549,13.5894459014\C,8.9408543063,24.2614193765,13.596
 5096437\C,7.7433215807,22.1906978139,13.4632534007\C,7.7397717038,23.5
 647317403,13.4707270279\C,6.67122054,21.3984283359,12.7729571863\C,6.6
 581086627,24.3592970234,12.7936787431\C,6.1627961599,22.173942467,11.5
 450776155\C,6.1572038814,23.5893909238,11.5515649349\C,5.8795702857,21
 .4743386383,10.3577669317\C,5.8684131491,24.2890594738,10.364748137\C,
 5.5699307856,22.179650236,9.169259465\C,5.5654172141,23.5898690605,9.1
 736949195\C,5.4176165465,21.4099064063,7.8409410004\C,5.4058309073,24.
 3735591679,7.8500546827\C,5.9291025364,22.2193693353,6.6675579072\C,5.
 9304717557,23.578348525,6.6736622538\C,6.9985690794,21.5144012554,6.01
 49742944\C,6.9963174051,24.2941445828,6.0222199468\C,8.0036895932,22.1
 775691368,5.3400491365\C,8.0130881186,23.6192801,5.3362879007\C,9.3664
 015229,21.7106239767,5.4334907343\C,9.3631549945,24.0643738335,5.41959
 43739\C,11.8809109043,21.7118430673,6.644179799\C,12.0958378825,24.107
 1638295,6.4786827151\C,10.2044833576,22.8646909442,5.3597929753\C,11.4
 546245738,22.8446756426,5.9442389201\C,10.1655547405,22.1758692308,13.
 6659483985\C,10.1634084217,23.5841401826,13.6664420807\Cl,4.5359996626
 ,19.0622675899,10.6627776032\Cl,3.665972789,20.9024948941,7.6075050995
 \Cl,3.6480013977,24.8548754624,7.6202931619\Cl,4.5261610683,26.6942341
 666,10.724859395\Cl,5.2628076577,20.9935410451,13.887302118\Cl,5.23836
 51366,24.7108962107,13.9159342176\Cl,14.7862358028,20.8904464913,11.92
 50134491\Cl,14.7776108579,24.8831217131,11.9309983128\Cl,13.9517995947
 ,18.9690098041,8.4487419634\Cl,13.9423555282,26.8210520784,8.444893065
 7\Cl,7.9132632184,16.8378802295,10.9053821671\Cl,13.3411957082,24.7658
 238352,5.2781144376\Cl,8.653280307,18.9041451351,14.5627519014\Cl,12.1
 647273497,20.7650721011,14.945459389\Cl,12.1668665062,25.0162186591,14
 .9228102312\Cl,8.6734202137,26.8559905756,14.5842524395\\Version=ES64L
 -G16RevA.03\State=1-A\HF=-10564.2360124\RMSD=5.316e-09\RMSF=2.064e-05\
 Dipole=-0.0539617,0.508276,-2.4948003\Quadrupole=-18.2967643,9.2366481
 ,9.0601162,-2.6670223,3.5601093,1.5101672\PG=C01 [X(C84Cl16)]\\@


 A politician is a person who can make waves and then
 make you think he's the only one who can save the ship.
 -- Ivern Ball
 Job cpu time:       1 days 13 hours 45 minutes 36.6 seconds.
 Elapsed time:       0 days  1 hours 34 minutes 32.2 seconds.
 File lengths (MBytes):  RWF=   1500 Int=      0 D2E=      0 Chk=    187 Scr=      1
 Normal termination of Gaussian 16 at Tue Jun 28 04:01:53 2022.
