 Entering Gaussian System, Link 0=g16
 Input=16_addons_C84_14_Cl22_rank_7.gjf
 Output=16_addons_C84_14_Cl22_rank_7.log
 Initial command:
 /home/mkliu/g16/l1.exe "/data/scratch/Gau-95817.inp" -scrdir="/data/scratch/"
 Entering Link 1 = /home/mkliu/g16/l1.exe PID=     95818.
  
 Copyright (c) 1988,1990,1992,1993,1995,1998,2003,2009,2016,
            Gaussian, Inc.  All Rights Reserved.
  
 This is part of the Gaussian(R) 16 program.  It is based on
 the Gaussian(R) 09 system (copyright 2009, Gaussian, Inc.),
 the Gaussian(R) 03 system (copyright 2003, Gaussian, Inc.),
 the Gaussian(R) 98 system (copyright 1998, Gaussian, Inc.),
 the Gaussian(R) 94 system (copyright 1995, Gaussian, Inc.),
 the Gaussian 92(TM) system (copyright 1992, Gaussian, Inc.),
 the Gaussian 90(TM) system (copyright 1990, Gaussian, Inc.),
 the Gaussian 88(TM) system (copyright 1988, Gaussian, Inc.),
 the Gaussian 86(TM) system (copyright 1986, Carnegie Mellon
 University), and the Gaussian 82(TM) system (copyright 1983,
 Carnegie Mellon University). Gaussian is a federally registered
 trademark of Gaussian, Inc.
  
 This software contains proprietary and confidential information,
 including trade secrets, belonging to Gaussian, Inc.
  
 This software is provided under written license and may be
 used, copied, transmitted, or stored only in accord with that
 written license.
  
 The following legend is applicable only to US Government
 contracts under FAR:
  
                    RESTRICTED RIGHTS LEGEND
  
 Use, reproduction and disclosure by the US Government is
 subject to restrictions as set forth in subparagraphs (a)
 and (c) of the Commercial Computer Software - Restricted
 Rights clause in FAR 52.227-19.
  
 Gaussian, Inc.
 340 Quinnipiac St., Bldg. 40, Wallingford CT 06492
  
  
 ---------------------------------------------------------------
 Warning -- This program may not be used in any manner that
 competes with the business of Gaussian, Inc. or will provide
 assistance to any competitor of Gaussian, Inc.  The licensee
 of this program is prohibited from giving any competitor of
 Gaussian, Inc. access to this program.  By using this program,
 the user acknowledges that Gaussian, Inc. is engaged in the
 business of creating and licensing software in the field of
 computational chemistry and represents and warrants to the
 licensee that it is not a competitor of Gaussian, Inc. and that
 it will not use this program in any manner prohibited above.
 ---------------------------------------------------------------
  

 Cite this work as:
 Gaussian 16, Revision A.03,
 M. J. Frisch, G. W. Trucks, H. B. Schlegel, G. E. Scuseria, 
 M. A. Robb, J. R. Cheeseman, G. Scalmani, V. Barone, 
 G. A. Petersson, H. Nakatsuji, X. Li, M. Caricato, A. V. Marenich, 
 J. Bloino, B. G. Janesko, R. Gomperts, B. Mennucci, H. P. Hratchian, 
 J. V. Ortiz, A. F. Izmaylov, J. L. Sonnenberg, D. Williams-Young, 
 F. Ding, F. Lipparini, F. Egidi, J. Goings, B. Peng, A. Petrone, 
 T. Henderson, D. Ranasinghe, V. G. Zakrzewski, J. Gao, N. Rega, 
 G. Zheng, W. Liang, M. Hada, M. Ehara, K. Toyota, R. Fukuda, 
 J. Hasegawa, M. Ishida, T. Nakajima, Y. Honda, O. Kitao, H. Nakai, 
 T. Vreven, K. Throssell, J. A. Montgomery, Jr., J. E. Peralta, 
 F. Ogliaro, M. J. Bearpark, J. J. Heyd, E. N. Brothers, K. N. Kudin, 
 V. N. Staroverov, T. A. Keith, R. Kobayashi, J. Normand, 
 K. Raghavachari, A. P. Rendell, J. C. Burant, S. S. Iyengar, 
 J. Tomasi, M. Cossi, J. M. Millam, M. Klene, C. Adamo, R. Cammi, 
 J. W. Ochterski, R. L. Martin, K. Morokuma, O. Farkas, 
 J. B. Foresman, and D. J. Fox, Gaussian, Inc., Wallingford CT, 2016.
 
 ******************************************
 Gaussian 16:  ES64L-G16RevA.03 25-Dec-2016
                29-Jun-2022 
 ******************************************
 %mem=10GB
 %chk=16_addons_C84_14_Cl22_rank_7.chk
 %nprocshared=24
 Will use up to   24 processors via shared memory.
 ------------------------------------------------
 #P opt b3lyp/6-31G(d, p) empiricaldispersion=GD3
 ------------------------------------------------
 1/18=20,19=15,26=3,38=1/1,3;
 2/9=110,12=2,17=6,18=5,40=1/2;
 3/5=1,6=6,7=101,11=2,25=1,30=1,71=1,74=-5,124=31/1,2,3;
 4//1;
 5/5=2,38=5/2;
 6/7=2,8=2,9=2,10=2,28=1/1;
 7//1,2,3,16;
 1/18=20,19=15,26=3/3(2);
 2/9=110/2;
 99//99;
 2/9=110/2;
 3/5=1,6=6,7=101,11=2,25=1,30=1,71=1,74=-5,124=31/1,2,3;
 4/5=5,16=3,69=1/1;
 5/5=2,38=5/2;
 7//1,2,3,16;
 1/18=20,19=15,26=3/3(-5);
 2/9=110/2;
 6/7=2,8=2,9=2,10=2,19=2,28=1/1;
 99/9=1/99;
 Leave Link    1 at Wed Jun 29 01:41:16 2022, MaxMem=  1342177280 cpu:               0.7 elap:               0.0
 (Enter /home/mkliu/g16/l101.exe)
 -----
 force
 -----
 Symbolic Z-matrix:
 Charge =  0 Multiplicity = 1
 C                     8.22608   18.65984   10.5993 
 C                     12.46616   20.02076   8.91182 
 C                     8.27082   26.83926   10.53464 
 C                     12.47367   25.75257   8.91239 
 C                     7.95364   18.96622   9.15305 
 C                     11.85275   19.61224   10.21436 
 C                     7.95592   26.78227   9.1414 
 C                     11.8783   26.18713   10.22156 
 C                     8.94891   19.15086   8.17326 
 C                     12.10809   20.26093   11.38893 
 C                     12.14079   25.54138   11.39015 
 C                     8.95757   26.59775   8.16274 
 C                     10.28842   19.08723   8.60988 
 C                     10.28559   26.64819   8.62502 
 C                     10.5972   19.01594   10.01568 
 C                     10.61175   26.78748   10.01043 
 C                     9.62079   19.02055   11.01159 
 C                     9.60444   26.7787   10.99877 
 C                     9.89233   19.68346   12.21488 
 C                     9.86918   26.09873   12.22829 
 C                     8.77576   20.08316   13.13892 
 C                     8.78635   25.50353   12.90047 
 C                     7.47095   20.19166   12.39779 
 C                     7.45867   25.57363   12.40508 
 C                     7.21693   19.54111   11.2749 
 C                     7.20457   26.24028   11.24695 
 C                     6.12585   19.98093   10.34046 
 C                     6.10253   25.81194   10.31905 
 C                     6.7128    19.58345   9.02635 
 C                     6.67934   26.20859   8.99362 
 C                     6.38526   20.24498   7.87428 
 C                     6.38239   25.53606   7.84353 
 C                     7.33278   20.35201   6.83939 
 C                     7.32531   25.43848   6.80515 
 C                     8.66258   19.90289   6.99301 
 C                     8.67349   25.85614   6.97536 
 C                     9.71727   20.62737   6.32816 
 C                     9.72846   25.15088   6.32265 
 C                     11.0422   20.57991   6.8502 
 C                     12.63926   22.19396   7.79437 
 C                     12.64185   23.58172   7.78909 
 C                     11.02665   25.17249   6.85191 
 C                     11.3064   19.79844   7.95819 
 C                     12.80914   21.48485   8.96908 
 C                     12.81198   24.28787   8.96573 
 C                     11.30953   25.95626   7.96366 
 C                     13.03032   22.18333   10.16681 
 C                     13.02837   23.58481   10.16031 
 C                     13.05968   21.41504   11.48072 
 C                     13.05043   24.34627   11.47047 
 C                     12.42615   22.20071   12.58959 
 C                     12.38585   23.53718   12.55189 
 C                     11.13335   20.28347   12.39522 
 C                     11.13583   25.4744   12.40025 
 C                     11.42097   21.39289   13.36545 
 C                     11.28663   24.27187   13.11824 
 C                     8.9604    21.49896   13.61075 
 C                     8.93897   24.26098   13.58621 
 C                     7.74136   22.19877   13.49538 
 C                     7.72048   23.55847   13.50874 
 C                     6.69343   21.41971   12.77264 
 C                     6.67103   24.35243   12.78811 
 C                     6.2473    22.19206   11.53595 
 C                     6.24299   23.59431   11.53501 
 C                     5.95955   21.49468   10.3595 
 C                     5.95804   24.29211   10.35359 
 C                     5.65346   22.19103   9.17902 
 C                     5.65623   23.5928   9.1732 
 C                     5.4409    21.41425   7.88161 
 C                     5.44528   24.36015   7.865 
 C                     5.95095   22.20391   6.70876 
 C                     5.95958   23.56564   6.7003 
 C                     7.0085    21.50913   6.07222 
 C                     7.01652   24.26174   6.04194 
 C                     8.03039   22.19101   5.41442 
 C                     8.00704   23.60357   5.3547 
 C                     9.36917   21.7276   5.51091 
 C                     9.40323   24.1425   5.24578 
 C                     12.05217   21.64468   6.52255 
 C                     12.0658   24.1321   6.50787 
 C                     10.22131   22.88472   5.42529 
 C                     11.45674   22.88897   5.9384 
 C                     10.16869   22.15793   13.68207 
 C                     10.17269   23.58182   13.65257 
 Cl                    4.54485   19.20713   10.71191 
 Cl                    3.70547   20.96701   7.75553 
 Cl                    3.70558   24.78967   7.73009 
 Cl                    4.51414   26.56138   10.69196 
 Cl                    5.24276   21.05191   13.77572 
 Cl                    5.21261   24.7046   13.77585 
 Cl                    14.75901   20.92163   11.82728 
 Cl                    14.75193   24.77699   11.87118 
 Cl                    13.91626   19.05649   8.46359 
 Cl                    13.92198   26.71276   8.44121 
 Cl                    7.9276    16.89954   10.95418 
 Cl                    13.34272   24.84842   5.45133 
 Cl                    8.66698   18.92746   14.52349 
 Cl                    13.34991   20.95136   5.44985 
 Cl                    9.71621   24.90929   3.62857 
 Cl                    12.14822   20.74761   14.90691 
 
 ITRead=  0  0  0  0  0  0  0  0  0  0  0  0  0  0  0  0  0  0  0  0
 ITRead=  0  0  0  0  0  0  0  0  0  0  0  0  0  0  0  0  0  0  0  0
 ITRead=  0  0  0  0  0  0  0  0  0  0  0  0  0  0  0  0  0  0  0  0
 ITRead=  0  0  0  0  0  0  0  0  0  0  0  0  0  0  0  0  0  0  0  0
 ITRead=  0  0  0  0  0  0  0  0  0  0  0  0  0  0  0  0  0  0  0  0
 MicOpt= -1 -1 -1 -1 -1 -1 -1 -1 -1 -1 -1 -1 -1 -1 -1 -1 -1 -1 -1 -1
 MicOpt= -1 -1 -1 -1 -1 -1 -1 -1 -1 -1 -1 -1 -1 -1 -1 -1 -1 -1 -1 -1
 MicOpt= -1 -1 -1 -1 -1 -1 -1 -1 -1 -1 -1 -1 -1 -1 -1 -1 -1 -1 -1 -1
 MicOpt= -1 -1 -1 -1 -1 -1 -1 -1 -1 -1 -1 -1 -1 -1 -1 -1 -1 -1 -1 -1
 MicOpt= -1 -1 -1 -1 -1 -1 -1 -1 -1 -1 -1 -1 -1 -1 -1 -1 -1 -1 -1 -1
 NAtoms=    100 NQM=      100 NQMF=       0 NMMI=      0 NMMIF=      0
                NMic=       0 NMicF=      0.
                    Isotopes and Nuclear Properties:
 (Nuclear quadrupole moments (NQMom) in fm**2, nuclear magnetic moments (NMagM)
  in nuclear magnetons)

  Atom         1           2           3           4           5           6           7           8           9          10
 IAtWgt=          12          12          12          12          12          12          12          12          12          12
 AtmWgt=  12.0000000  12.0000000  12.0000000  12.0000000  12.0000000  12.0000000  12.0000000  12.0000000  12.0000000  12.0000000
 NucSpn=           0           0           0           0           0           0           0           0           0           0
 AtZEff=  -0.0000000  -0.0000000  -0.0000000  -0.0000000  -0.0000000  -0.0000000  -0.0000000  -0.0000000  -0.0000000  -0.0000000
 NQMom=    0.0000000   0.0000000   0.0000000   0.0000000   0.0000000   0.0000000   0.0000000   0.0000000   0.0000000   0.0000000
 NMagM=    0.0000000   0.0000000   0.0000000   0.0000000   0.0000000   0.0000000   0.0000000   0.0000000   0.0000000   0.0000000
 AtZNuc=   6.0000000   6.0000000   6.0000000   6.0000000   6.0000000   6.0000000   6.0000000   6.0000000   6.0000000   6.0000000

  Atom        11          12          13          14          15          16          17          18          19          20
 IAtWgt=          12          12          12          12          12          12          12          12          12          12
 AtmWgt=  12.0000000  12.0000000  12.0000000  12.0000000  12.0000000  12.0000000  12.0000000  12.0000000  12.0000000  12.0000000
 NucSpn=           0           0           0           0           0           0           0           0           0           0
 AtZEff=  -0.0000000  -0.0000000  -0.0000000  -0.0000000  -0.0000000  -0.0000000  -0.0000000  -0.0000000  -0.0000000  -0.0000000
 NQMom=    0.0000000   0.0000000   0.0000000   0.0000000   0.0000000   0.0000000   0.0000000   0.0000000   0.0000000   0.0000000
 NMagM=    0.0000000   0.0000000   0.0000000   0.0000000   0.0000000   0.0000000   0.0000000   0.0000000   0.0000000   0.0000000
 AtZNuc=   6.0000000   6.0000000   6.0000000   6.0000000   6.0000000   6.0000000   6.0000000   6.0000000   6.0000000   6.0000000

  Atom        21          22          23          24          25          26          27          28          29          30
 IAtWgt=          12          12          12          12          12          12          12          12          12          12
 AtmWgt=  12.0000000  12.0000000  12.0000000  12.0000000  12.0000000  12.0000000  12.0000000  12.0000000  12.0000000  12.0000000
 NucSpn=           0           0           0           0           0           0           0           0           0           0
 AtZEff=  -0.0000000  -0.0000000  -0.0000000  -0.0000000  -0.0000000  -0.0000000  -0.0000000  -0.0000000  -0.0000000  -0.0000000
 NQMom=    0.0000000   0.0000000   0.0000000   0.0000000   0.0000000   0.0000000   0.0000000   0.0000000   0.0000000   0.0000000
 NMagM=    0.0000000   0.0000000   0.0000000   0.0000000   0.0000000   0.0000000   0.0000000   0.0000000   0.0000000   0.0000000
 AtZNuc=   6.0000000   6.0000000   6.0000000   6.0000000   6.0000000   6.0000000   6.0000000   6.0000000   6.0000000   6.0000000

  Atom        31          32          33          34          35          36          37          38          39          40
 IAtWgt=          12          12          12          12          12          12          12          12          12          12
 AtmWgt=  12.0000000  12.0000000  12.0000000  12.0000000  12.0000000  12.0000000  12.0000000  12.0000000  12.0000000  12.0000000
 NucSpn=           0           0           0           0           0           0           0           0           0           0
 AtZEff=  -0.0000000  -0.0000000  -0.0000000  -0.0000000  -0.0000000  -0.0000000  -0.0000000  -0.0000000  -0.0000000  -0.0000000
 NQMom=    0.0000000   0.0000000   0.0000000   0.0000000   0.0000000   0.0000000   0.0000000   0.0000000   0.0000000   0.0000000
 NMagM=    0.0000000   0.0000000   0.0000000   0.0000000   0.0000000   0.0000000   0.0000000   0.0000000   0.0000000   0.0000000
 AtZNuc=   6.0000000   6.0000000   6.0000000   6.0000000   6.0000000   6.0000000   6.0000000   6.0000000   6.0000000   6.0000000

  Atom        41          42          43          44          45          46          47          48          49          50
 IAtWgt=          12          12          12          12          12          12          12          12          12          12
 AtmWgt=  12.0000000  12.0000000  12.0000000  12.0000000  12.0000000  12.0000000  12.0000000  12.0000000  12.0000000  12.0000000
 NucSpn=           0           0           0           0           0           0           0           0           0           0
 AtZEff=  -0.0000000  -0.0000000  -0.0000000  -0.0000000  -0.0000000  -0.0000000  -0.0000000  -0.0000000  -0.0000000  -0.0000000
 NQMom=    0.0000000   0.0000000   0.0000000   0.0000000   0.0000000   0.0000000   0.0000000   0.0000000   0.0000000   0.0000000
 NMagM=    0.0000000   0.0000000   0.0000000   0.0000000   0.0000000   0.0000000   0.0000000   0.0000000   0.0000000   0.0000000
 AtZNuc=   6.0000000   6.0000000   6.0000000   6.0000000   6.0000000   6.0000000   6.0000000   6.0000000   6.0000000   6.0000000

  Atom        51          52          53          54          55          56          57          58          59          60
 IAtWgt=          12          12          12          12          12          12          12          12          12          12
 AtmWgt=  12.0000000  12.0000000  12.0000000  12.0000000  12.0000000  12.0000000  12.0000000  12.0000000  12.0000000  12.0000000
 NucSpn=           0           0           0           0           0           0           0           0           0           0
 AtZEff=  -0.0000000  -0.0000000  -0.0000000  -0.0000000  -0.0000000  -0.0000000  -0.0000000  -0.0000000  -0.0000000  -0.0000000
 NQMom=    0.0000000   0.0000000   0.0000000   0.0000000   0.0000000   0.0000000   0.0000000   0.0000000   0.0000000   0.0000000
 NMagM=    0.0000000   0.0000000   0.0000000   0.0000000   0.0000000   0.0000000   0.0000000   0.0000000   0.0000000   0.0000000
 AtZNuc=   6.0000000   6.0000000   6.0000000   6.0000000   6.0000000   6.0000000   6.0000000   6.0000000   6.0000000   6.0000000

  Atom        61          62          63          64          65          66          67          68          69          70
 IAtWgt=          12          12          12          12          12          12          12          12          12          12
 AtmWgt=  12.0000000  12.0000000  12.0000000  12.0000000  12.0000000  12.0000000  12.0000000  12.0000000  12.0000000  12.0000000
 NucSpn=           0           0           0           0           0           0           0           0           0           0
 AtZEff=  -0.0000000  -0.0000000  -0.0000000  -0.0000000  -0.0000000  -0.0000000  -0.0000000  -0.0000000  -0.0000000  -0.0000000
 NQMom=    0.0000000   0.0000000   0.0000000   0.0000000   0.0000000   0.0000000   0.0000000   0.0000000   0.0000000   0.0000000
 NMagM=    0.0000000   0.0000000   0.0000000   0.0000000   0.0000000   0.0000000   0.0000000   0.0000000   0.0000000   0.0000000
 AtZNuc=   6.0000000   6.0000000   6.0000000   6.0000000   6.0000000   6.0000000   6.0000000   6.0000000   6.0000000   6.0000000

  Atom        71          72          73          74          75          76          77          78          79          80
 IAtWgt=          12          12          12          12          12          12          12          12          12          12
 AtmWgt=  12.0000000  12.0000000  12.0000000  12.0000000  12.0000000  12.0000000  12.0000000  12.0000000  12.0000000  12.0000000
 NucSpn=           0           0           0           0           0           0           0           0           0           0
 AtZEff=  -0.0000000  -0.0000000  -0.0000000  -0.0000000  -0.0000000  -0.0000000  -0.0000000  -0.0000000  -0.0000000  -0.0000000
 NQMom=    0.0000000   0.0000000   0.0000000   0.0000000   0.0000000   0.0000000   0.0000000   0.0000000   0.0000000   0.0000000
 NMagM=    0.0000000   0.0000000   0.0000000   0.0000000   0.0000000   0.0000000   0.0000000   0.0000000   0.0000000   0.0000000
 AtZNuc=   6.0000000   6.0000000   6.0000000   6.0000000   6.0000000   6.0000000   6.0000000   6.0000000   6.0000000   6.0000000

  Atom        81          82          83          84          85          86          87          88          89          90
 IAtWgt=          12          12          12          12          35          35          35          35          35          35
 AtmWgt=  12.0000000  12.0000000  12.0000000  12.0000000  34.9688527  34.9688527  34.9688527  34.9688527  34.9688527  34.9688527
 NucSpn=           0           0           0           0           3           3           3           3           3           3
 AtZEff=  -0.0000000  -0.0000000  -0.0000000  -0.0000000  -0.0000000  -0.0000000  -0.0000000  -0.0000000  -0.0000000  -0.0000000
 NQMom=    0.0000000   0.0000000   0.0000000   0.0000000  -8.1650000  -8.1650000  -8.1650000  -8.1650000  -8.1650000  -8.1650000
 NMagM=    0.0000000   0.0000000   0.0000000   0.0000000   0.8218740   0.8218740   0.8218740   0.8218740   0.8218740   0.8218740
 AtZNuc=   6.0000000   6.0000000   6.0000000   6.0000000  17.0000000  17.0000000  17.0000000  17.0000000  17.0000000  17.0000000

  Atom        91          92          93          94          95          96          97          98          99         100
 IAtWgt=          35          35          35          35          35          35          35          35          35          35
 AtmWgt=  34.9688527  34.9688527  34.9688527  34.9688527  34.9688527  34.9688527  34.9688527  34.9688527  34.9688527  34.9688527
 NucSpn=           3           3           3           3           3           3           3           3           3           3
 AtZEff=  -0.0000000  -0.0000000  -0.0000000  -0.0000000  -0.0000000  -0.0000000  -0.0000000  -0.0000000  -0.0000000  -0.0000000
 NQMom=   -8.1650000  -8.1650000  -8.1650000  -8.1650000  -8.1650000  -8.1650000  -8.1650000  -8.1650000  -8.1650000  -8.1650000
 NMagM=    0.8218740   0.8218740   0.8218740   0.8218740   0.8218740   0.8218740   0.8218740   0.8218740   0.8218740   0.8218740
 AtZNuc=  17.0000000  17.0000000  17.0000000  17.0000000  17.0000000  17.0000000  17.0000000  17.0000000  17.0000000  17.0000000
 Leave Link  101 at Wed Jun 29 01:41:16 2022, MaxMem=  1342177280 cpu:               6.7 elap:               0.3
 (Enter /home/mkliu/g16/l103.exe)

 GradGradGradGradGradGradGradGradGradGradGradGradGradGradGradGradGradGrad
 Berny optimization.
 Initialization pass.
                           ----------------------------
                           !    Initial Parameters    !
                           ! (Angstroms and Degrees)  !
 --------------------------                            --------------------------
 ! Name  Definition              Value          Derivative Info.                !
 --------------------------------------------------------------------------------
 ! R1    R(1,5)                  1.5032         estimate D2E/DX2                !
 ! R2    R(1,17)                 1.4984         estimate D2E/DX2                !
 ! R3    R(1,25)                 1.5005         estimate D2E/DX2                !
 ! R4    R(1,95)                 1.8204         estimate D2E/DX2                !
 ! R5    R(2,6)                  1.4966         estimate D2E/DX2                !
 ! R6    R(2,43)                 1.5179         estimate D2E/DX2                !
 ! R7    R(2,44)                 1.5048         estimate D2E/DX2                !
 ! R8    R(2,93)                 1.7982         estimate D2E/DX2                !
 ! R9    R(3,7)                  1.4295         estimate D2E/DX2                !
 ! R10   R(3,18)                 1.4134         estimate D2E/DX2                !
 ! R11   R(3,26)                 1.4153         estimate D2E/DX2                !
 ! R12   R(4,8)                  1.5024         estimate D2E/DX2                !
 ! R13   R(4,45)                 1.5042         estimate D2E/DX2                !
 ! R14   R(4,46)                 1.5155         estimate D2E/DX2                !
 ! R15   R(4,94)                 1.8004         estimate D2E/DX2                !
 ! R16   R(5,9)                  1.4088         estimate D2E/DX2                !
 ! R17   R(5,29)                 1.3917         estimate D2E/DX2                !
 ! R18   R(6,10)                 1.3659         estimate D2E/DX2                !
 ! R19   R(6,15)                 1.4041         estimate D2E/DX2                !
 ! R20   R(7,12)                 1.4125         estimate D2E/DX2                !
 ! R21   R(7,30)                 1.4073         estimate D2E/DX2                !
 ! R22   R(8,11)                 1.3607         estimate D2E/DX2                !
 ! R23   R(8,16)                 1.4174         estimate D2E/DX2                !
 ! R24   R(9,13)                 1.4103         estimate D2E/DX2                !
 ! R25   R(9,35)                 1.4285         estimate D2E/DX2                !
 ! R26   R(10,49)                1.4986         estimate D2E/DX2                !
 ! R27   R(10,53)                1.4012         estimate D2E/DX2                !
 ! R28   R(11,50)                1.5041         estimate D2E/DX2                !
 ! R29   R(11,54)                1.4264         estimate D2E/DX2                !
 ! R30   R(12,14)                1.4071         estimate D2E/DX2                !
 ! R31   R(12,36)                1.4285         estimate D2E/DX2                !
 ! R32   R(13,15)                1.4411         estimate D2E/DX2                !
 ! R33   R(13,43)                1.4024         estimate D2E/DX2                !
 ! R34   R(14,16)                1.4301         estimate D2E/DX2                !
 ! R35   R(14,46)                1.4016         estimate D2E/DX2                !
 ! R36   R(15,17)                1.3947         estimate D2E/DX2                !
 ! R37   R(16,18)                1.4112         estimate D2E/DX2                !
 ! R38   R(17,19)                1.4004         estimate D2E/DX2                !
 ! R39   R(18,20)                1.4297         estimate D2E/DX2                !
 ! R40   R(19,21)                1.5034         estimate D2E/DX2                !
 ! R41   R(19,53)                1.3902         estimate D2E/DX2                !
 ! R42   R(20,22)                1.4066         estimate D2E/DX2                !
 ! R43   R(20,54)                1.4226         estimate D2E/DX2                !
 ! R44   R(21,23)                1.5045         estimate D2E/DX2                !
 ! R45   R(21,57)                1.5037         estimate D2E/DX2                !
 ! R46   R(21,97)                1.8068         estimate D2E/DX2                !
 ! R47   R(22,24)                1.4188         estimate D2E/DX2                !
 ! R48   R(22,58)                1.4274         estimate D2E/DX2                !
 ! R49   R(23,25)                1.3224         estimate D2E/DX2                !
 ! R50   R(23,61)                1.501          estimate D2E/DX2                !
 ! R51   R(24,26)                1.3602         estimate D2E/DX2                !
 ! R52   R(24,62)                1.5028         estimate D2E/DX2                !
 ! R53   R(25,27)                1.5024         estimate D2E/DX2                !
 ! R54   R(26,28)                1.503          estimate D2E/DX2                !
 ! R55   R(27,29)                1.4931         estimate D2E/DX2                !
 ! R56   R(27,65)                1.523          estimate D2E/DX2                !
 ! R57   R(27,85)                1.799          estimate D2E/DX2                !
 ! R58   R(28,30)                1.4989         estimate D2E/DX2                !
 ! R59   R(28,66)                1.5271         estimate D2E/DX2                !
 ! R60   R(28,88)                1.7955         estimate D2E/DX2                !
 ! R61   R(29,31)                1.3683         estimate D2E/DX2                !
 ! R62   R(30,32)                1.365          estimate D2E/DX2                !
 ! R63   R(31,33)                1.4072         estimate D2E/DX2                !
 ! R64   R(31,69)                1.503          estimate D2E/DX2                !
 ! R65   R(32,34)                1.406          estimate D2E/DX2                !
 ! R66   R(32,70)                1.5038         estimate D2E/DX2                !
 ! R67   R(33,35)                1.412          estimate D2E/DX2                !
 ! R68   R(33,73)                1.4257         estimate D2E/DX2                !
 ! R69   R(34,36)                1.4216         estimate D2E/DX2                !
 ! R70   R(34,74)                1.4362         estimate D2E/DX2                !
 ! R71   R(35,37)                1.442          estimate D2E/DX2                !
 ! R72   R(36,38)                1.427          estimate D2E/DX2                !
 ! R73   R(37,39)                1.4249         estimate D2E/DX2                !
 ! R74   R(37,77)                1.4141         estimate D2E/DX2                !
 ! R75   R(38,42)                1.4021         estimate D2E/DX2                !
 ! R76   R(38,78)                1.5107         estimate D2E/DX2                !
 ! R77   R(39,43)                1.3814         estimate D2E/DX2                !
 ! R78   R(39,79)                1.5037         estimate D2E/DX2                !
 ! R79   R(40,41)                1.3878         estimate D2E/DX2                !
 ! R80   R(40,44)                1.3826         estimate D2E/DX2                !
 ! R81   R(40,79)                1.5046         estimate D2E/DX2                !
 ! R82   R(41,45)                1.3828         estimate D2E/DX2                !
 ! R83   R(41,80)                1.5087         estimate D2E/DX2                !
 ! R84   R(42,46)                1.3894         estimate D2E/DX2                !
 ! R85   R(42,80)                1.5102         estimate D2E/DX2                !
 ! R86   R(44,47)                1.404          estimate D2E/DX2                !
 ! R87   R(45,48)                1.4029         estimate D2E/DX2                !
 ! R88   R(47,48)                1.4015         estimate D2E/DX2                !
 ! R89   R(47,49)                1.5223         estimate D2E/DX2                !
 ! R90   R(48,50)                1.5155         estimate D2E/DX2                !
 ! R91   R(49,51)                1.4994         estimate D2E/DX2                !
 ! R92   R(49,91)                1.8031         estimate D2E/DX2                !
 ! R93   R(50,52)                1.5052         estimate D2E/DX2                !
 ! R94   R(50,92)                1.8003         estimate D2E/DX2                !
 ! R95   R(51,52)                1.3376         estimate D2E/DX2                !
 ! R96   R(51,55)                1.505          estimate D2E/DX2                !
 ! R97   R(52,56)                1.4383         estimate D2E/DX2                !
 ! R98   R(53,55)                1.5016         estimate D2E/DX2                !
 ! R99   R(54,56)                1.4087         estimate D2E/DX2                !
 ! R100  R(55,83)                1.5012         estimate D2E/DX2                !
 ! R101  R(55,100)               1.8225         estimate D2E/DX2                !
 ! R102  R(56,84)                1.4151         estimate D2E/DX2                !
 ! R103  R(57,59)                1.4104         estimate D2E/DX2                !
 ! R104  R(57,83)                1.3782         estimate D2E/DX2                !
 ! R105  R(58,60)                1.4086         estimate D2E/DX2                !
 ! R106  R(58,84)                1.4099         estimate D2E/DX2                !
 ! R107  R(59,60)                1.3599         estimate D2E/DX2                !
 ! R108  R(59,61)                1.4925         estimate D2E/DX2                !
 ! R109  R(60,62)                1.5003         estimate D2E/DX2                !
 ! R110  R(61,63)                1.5248         estimate D2E/DX2                !
 ! R111  R(61,89)                1.8016         estimate D2E/DX2                !
 ! R112  R(62,64)                1.5259         estimate D2E/DX2                !
 ! R113  R(62,90)                1.7963         estimate D2E/DX2                !
 ! R114  R(63,64)                1.4023         estimate D2E/DX2                !
 ! R115  R(63,65)                1.3976         estimate D2E/DX2                !
 ! R116  R(64,66)                1.4014         estimate D2E/DX2                !
 ! R117  R(65,67)                1.4043         estimate D2E/DX2                !
 ! R118  R(66,68)                1.4048         estimate D2E/DX2                !
 ! R119  R(67,68)                1.4018         estimate D2E/DX2                !
 ! R120  R(67,69)                1.527          estimate D2E/DX2                !
 ! R121  R(68,70)                1.5312         estimate D2E/DX2                !
 ! R122  R(69,71)                1.5031         estimate D2E/DX2                !
 ! R123  R(69,86)                1.7966         estimate D2E/DX2                !
 ! R124  R(70,72)                1.5008         estimate D2E/DX2                !
 ! R125  R(70,87)                1.797          estimate D2E/DX2                !
 ! R126  R(71,72)                1.3618         estimate D2E/DX2                !
 ! R127  R(71,73)                1.4164         estimate D2E/DX2                !
 ! R128  R(72,74)                1.4266         estimate D2E/DX2                !
 ! R129  R(73,75)                1.3935         estimate D2E/DX2                !
 ! R130  R(74,76)                1.3735         estimate D2E/DX2                !
 ! R131  R(75,76)                1.414          estimate D2E/DX2                !
 ! R132  R(75,77)                1.42           estimate D2E/DX2                !
 ! R133  R(76,78)                1.5006         estimate D2E/DX2                !
 ! R134  R(77,81)                1.4396         estimate D2E/DX2                !
 ! R135  R(78,81)                1.5111         estimate D2E/DX2                !
 ! R136  R(78,99)                1.8169         estimate D2E/DX2                !
 ! R137  R(79,82)                1.498          estimate D2E/DX2                !
 ! R138  R(79,98)                1.8208         estimate D2E/DX2                !
 ! R139  R(80,82)                1.4969         estimate D2E/DX2                !
 ! R140  R(80,96)                1.8055         estimate D2E/DX2                !
 ! R141  R(81,82)                1.3378         estimate D2E/DX2                !
 ! R142  R(83,84)                1.4242         estimate D2E/DX2                !
 ! A1    A(5,1,17)             112.603          estimate D2E/DX2                !
 ! A2    A(5,1,25)             101.0456         estimate D2E/DX2                !
 ! A3    A(5,1,95)             110.7894         estimate D2E/DX2                !
 ! A4    A(17,1,25)            111.1443         estimate D2E/DX2                !
 ! A5    A(17,1,95)            109.3759         estimate D2E/DX2                !
 ! A6    A(25,1,95)            111.7091         estimate D2E/DX2                !
 ! A7    A(6,2,43)             101.1661         estimate D2E/DX2                !
 ! A8    A(6,2,44)             109.0188         estimate D2E/DX2                !
 ! A9    A(6,2,93)             113.6471         estimate D2E/DX2                !
 ! A10   A(43,2,44)            109.9107         estimate D2E/DX2                !
 ! A11   A(43,2,93)            112.397          estimate D2E/DX2                !
 ! A12   A(44,2,93)            110.3294         estimate D2E/DX2                !
 ! A13   A(7,3,18)             121.7487         estimate D2E/DX2                !
 ! A14   A(7,3,26)             107.92           estimate D2E/DX2                !
 ! A15   A(18,3,26)            121.8341         estimate D2E/DX2                !
 ! A16   A(8,4,45)             109.8685         estimate D2E/DX2                !
 ! A17   A(8,4,46)             101.6663         estimate D2E/DX2                !
 ! A18   A(8,4,94)             113.1142         estimate D2E/DX2                !
 ! A19   A(45,4,46)            109.0162         estimate D2E/DX2                !
 ! A20   A(45,4,94)            110.3443         estimate D2E/DX2                !
 ! A21   A(46,4,94)            112.4832         estimate D2E/DX2                !
 ! A22   A(1,5,9)              124.5969         estimate D2E/DX2                !
 ! A23   A(1,5,29)             109.8513         estimate D2E/DX2                !
 ! A24   A(9,5,29)             120.5617         estimate D2E/DX2                !
 ! A25   A(2,6,10)             122.8322         estimate D2E/DX2                !
 ! A26   A(2,6,15)             111.0562         estimate D2E/DX2                !
 ! A27   A(10,6,15)            119.3766         estimate D2E/DX2                !
 ! A28   A(3,7,12)             121.6191         estimate D2E/DX2                !
 ! A29   A(3,7,30)             108.5671         estimate D2E/DX2                !
 ! A30   A(12,7,30)            121.1475         estimate D2E/DX2                !
 ! A31   A(4,8,11)             122.32           estimate D2E/DX2                !
 ! A32   A(4,8,16)             110.2919         estimate D2E/DX2                !
 ! A33   A(11,8,16)            120.0861         estimate D2E/DX2                !
 ! A34   A(5,9,13)             116.7297         estimate D2E/DX2                !
 ! A35   A(5,9,35)             120.1346         estimate D2E/DX2                !
 ! A36   A(13,9,35)            118.0297         estimate D2E/DX2                !
 ! A37   A(6,10,49)            122.4875         estimate D2E/DX2                !
 ! A38   A(6,10,53)            119.6822         estimate D2E/DX2                !
 ! A39   A(49,10,53)           112.6653         estimate D2E/DX2                !
 ! A40   A(8,11,50)            122.6581         estimate D2E/DX2                !
 ! A41   A(8,11,54)            119.6384         estimate D2E/DX2                !
 ! A42   A(50,11,54)           110.5459         estimate D2E/DX2                !
 ! A43   A(7,12,14)            115.9115         estimate D2E/DX2                !
 ! A44   A(7,12,36)            120.1799         estimate D2E/DX2                !
 ! A45   A(14,12,36)           118.6454         estimate D2E/DX2                !
 ! A46   A(9,13,15)            120.5144         estimate D2E/DX2                !
 ! A47   A(9,13,43)            121.5127         estimate D2E/DX2                !
 ! A48   A(15,13,43)           108.8366         estimate D2E/DX2                !
 ! A49   A(12,14,16)           122.4811         estimate D2E/DX2                !
 ! A50   A(12,14,46)           121.1159         estimate D2E/DX2                !
 ! A51   A(16,14,46)           109.7897         estimate D2E/DX2                !
 ! A52   A(6,15,13)            107.9767         estimate D2E/DX2                !
 ! A53   A(6,15,17)            121.572          estimate D2E/DX2                !
 ! A54   A(13,15,17)           123.1213         estimate D2E/DX2                !
 ! A55   A(8,16,14)            107.8688         estimate D2E/DX2                !
 ! A56   A(8,16,18)            122.0625         estimate D2E/DX2                !
 ! A57   A(14,16,18)           121.0014         estimate D2E/DX2                !
 ! A58   A(1,17,15)            117.0228         estimate D2E/DX2                !
 ! A59   A(1,17,19)            122.0636         estimate D2E/DX2                !
 ! A60   A(15,17,19)           118.6447         estimate D2E/DX2                !
 ! A61   A(3,18,16)            116.3122         estimate D2E/DX2                !
 ! A62   A(3,18,20)            118.5217         estimate D2E/DX2                !
 ! A63   A(16,18,20)           118.2327         estimate D2E/DX2                !
 ! A64   A(17,19,21)           120.6605         estimate D2E/DX2                !
 ! A65   A(17,19,53)           119.2661         estimate D2E/DX2                !
 ! A66   A(21,19,53)           117.9377         estimate D2E/DX2                !
 ! A67   A(18,20,22)           118.0112         estimate D2E/DX2                !
 ! A68   A(18,20,54)           118.5251         estimate D2E/DX2                !
 ! A69   A(22,20,54)           116.2285         estimate D2E/DX2                !
 ! A70   A(19,21,23)           111.1313         estimate D2E/DX2                !
 ! A71   A(19,21,57)           110.6079         estimate D2E/DX2                !
 ! A72   A(19,21,97)           110.2214         estimate D2E/DX2                !
 ! A73   A(23,21,57)           101.1368         estimate D2E/DX2                !
 ! A74   A(23,21,97)           111.8023         estimate D2E/DX2                !
 ! A75   A(57,21,97)           111.665          estimate D2E/DX2                !
 ! A76   A(20,22,24)           122.1811         estimate D2E/DX2                !
 ! A77   A(20,22,58)           121.0379         estimate D2E/DX2                !
 ! A78   A(24,22,58)           108.1078         estimate D2E/DX2                !
 ! A79   A(21,23,25)           123.3268         estimate D2E/DX2                !
 ! A80   A(21,23,61)           112.6571         estimate D2E/DX2                !
 ! A81   A(25,23,61)           121.0004         estimate D2E/DX2                !
 ! A82   A(22,24,26)           119.7548         estimate D2E/DX2                !
 ! A83   A(22,24,62)           111.1801         estimate D2E/DX2                !
 ! A84   A(26,24,62)           121.1557         estimate D2E/DX2                !
 ! A85   A(1,25,23)            122.826          estimate D2E/DX2                !
 ! A86   A(1,25,27)            112.3539         estimate D2E/DX2                !
 ! A87   A(23,25,27)           121.577          estimate D2E/DX2                !
 ! A88   A(3,26,24)            119.683          estimate D2E/DX2                !
 ! A89   A(3,26,28)            111.2419         estimate D2E/DX2                !
 ! A90   A(24,26,28)           121.5289         estimate D2E/DX2                !
 ! A91   A(25,27,29)           100.6023         estimate D2E/DX2                !
 ! A92   A(25,27,65)           111.2542         estimate D2E/DX2                !
 ! A93   A(25,27,85)           112.5756         estimate D2E/DX2                !
 ! A94   A(29,27,65)           108.5736         estimate D2E/DX2                !
 ! A95   A(29,27,85)           114.3742         estimate D2E/DX2                !
 ! A96   A(65,27,85)           109.207          estimate D2E/DX2                !
 ! A97   A(26,28,30)           100.8553         estimate D2E/DX2                !
 ! A98   A(26,28,66)           109.8194         estimate D2E/DX2                !
 ! A99   A(26,28,88)           113.6712         estimate D2E/DX2                !
 ! A100  A(30,28,66)           108.6492         estimate D2E/DX2                !
 ! A101  A(30,28,88)           114.4327         estimate D2E/DX2                !
 ! A102  A(66,28,88)           109.0887         estimate D2E/DX2                !
 ! A103  A(5,29,27)            112.8577         estimate D2E/DX2                !
 ! A104  A(5,29,31)            120.3003         estimate D2E/DX2                !
 ! A105  A(27,29,31)           121.2142         estimate D2E/DX2                !
 ! A106  A(7,30,28)            111.3505         estimate D2E/DX2                !
 ! A107  A(7,30,32)            119.1207         estimate D2E/DX2                !
 ! A108  A(28,30,32)           122.0694         estimate D2E/DX2                !
 ! A109  A(29,31,33)           119.6563         estimate D2E/DX2                !
 ! A110  A(29,31,69)           121.4946         estimate D2E/DX2                !
 ! A111  A(33,31,69)           111.5604         estimate D2E/DX2                !
 ! A112  A(30,32,34)           120.7016         estimate D2E/DX2                !
 ! A113  A(30,32,70)           120.5846         estimate D2E/DX2                !
 ! A114  A(34,32,70)           111.974          estimate D2E/DX2                !
 ! A115  A(31,33,35)           122.0018         estimate D2E/DX2                !
 ! A116  A(31,33,73)           107.7161         estimate D2E/DX2                !
 ! A117  A(35,33,73)           122.0675         estimate D2E/DX2                !
 ! A118  A(32,34,36)           121.815          estimate D2E/DX2                !
 ! A119  A(32,34,74)           107.7672         estimate D2E/DX2                !
 ! A120  A(36,34,74)           120.5476         estimate D2E/DX2                !
 ! A121  A(9,35,33)            116.4952         estimate D2E/DX2                !
 ! A122  A(9,35,37)            119.9237         estimate D2E/DX2                !
 ! A123  A(33,35,37)           118.6127         estimate D2E/DX2                !
 ! A124  A(12,36,34)           116.1447         estimate D2E/DX2                !
 ! A125  A(12,36,38)           119.3246         estimate D2E/DX2                !
 ! A126  A(34,36,38)           120.0745         estimate D2E/DX2                !
 ! A127  A(35,37,39)           119.6347         estimate D2E/DX2                !
 ! A128  A(35,37,77)           118.5116         estimate D2E/DX2                !
 ! A129  A(39,37,77)           117.8117         estimate D2E/DX2                !
 ! A130  A(36,38,42)           120.2794         estimate D2E/DX2                !
 ! A131  A(36,38,78)           119.7865         estimate D2E/DX2                !
 ! A132  A(42,38,78)           118.6002         estimate D2E/DX2                !
 ! A133  A(37,39,43)           119.3778         estimate D2E/DX2                !
 ! A134  A(37,39,79)           121.408          estimate D2E/DX2                !
 ! A135  A(43,39,79)           116.5455         estimate D2E/DX2                !
 ! A136  A(41,40,44)           121.0554         estimate D2E/DX2                !
 ! A137  A(41,40,79)           111.2581         estimate D2E/DX2                !
 ! A138  A(44,40,79)           125.3721         estimate D2E/DX2                !
 ! A139  A(40,41,45)           120.5082         estimate D2E/DX2                !
 ! A140  A(40,41,80)           111.5495         estimate D2E/DX2                !
 ! A141  A(45,41,80)           125.6827         estimate D2E/DX2                !
 ! A142  A(38,42,46)           119.9515         estimate D2E/DX2                !
 ! A143  A(38,42,80)           122.7172         estimate D2E/DX2                !
 ! A144  A(46,42,80)           115.5204         estimate D2E/DX2                !
 ! A145  A(2,43,13)            109.6911         estimate D2E/DX2                !
 ! A146  A(2,43,39)            124.5567         estimate D2E/DX2                !
 ! A147  A(13,43,39)           121.3856         estimate D2E/DX2                !
 ! A148  A(2,44,40)            116.0182         estimate D2E/DX2                !
 ! A149  A(2,44,47)            123.5298         estimate D2E/DX2                !
 ! A150  A(40,44,47)           119.2749         estimate D2E/DX2                !
 ! A151  A(4,45,41)            116.0663         estimate D2E/DX2                !
 ! A152  A(4,45,48)            123.5645         estimate D2E/DX2                !
 ! A153  A(41,45,48)           119.1843         estimate D2E/DX2                !
 ! A154  A(4,46,14)            109.3981         estimate D2E/DX2                !
 ! A155  A(4,46,42)            125.5564         estimate D2E/DX2                !
 ! A156  A(14,46,42)           120.4846         estimate D2E/DX2                !
 ! A157  A(44,47,48)           119.5569         estimate D2E/DX2                !
 ! A158  A(44,47,49)           119.2251         estimate D2E/DX2                !
 ! A159  A(48,47,49)           120.5776         estimate D2E/DX2                !
 ! A160  A(45,48,47)           120.3519         estimate D2E/DX2                !
 ! A161  A(45,48,50)           119.1154         estimate D2E/DX2                !
 ! A162  A(47,48,50)           119.8939         estimate D2E/DX2                !
 ! A163  A(10,49,47)           108.8776         estimate D2E/DX2                !
 ! A164  A(10,49,51)           100.4008         estimate D2E/DX2                !
 ! A165  A(10,49,91)           113.5442         estimate D2E/DX2                !
 ! A166  A(47,49,51)           111.4506         estimate D2E/DX2                !
 ! A167  A(47,49,91)           108.7936         estimate D2E/DX2                !
 ! A168  A(51,49,91)           113.5432         estimate D2E/DX2                !
 ! A169  A(11,50,48)           110.1368         estimate D2E/DX2                !
 ! A170  A(11,50,52)           101.4465         estimate D2E/DX2                !
 ! A171  A(11,50,92)           113.1642         estimate D2E/DX2                !
 ! A172  A(48,50,52)           110.1568         estimate D2E/DX2                !
 ! A173  A(48,50,92)           109.0492         estimate D2E/DX2                !
 ! A174  A(52,50,92)           112.7035         estimate D2E/DX2                !
 ! A175  A(49,51,52)           121.0256         estimate D2E/DX2                !
 ! A176  A(49,51,55)           112.4703         estimate D2E/DX2                !
 ! A177  A(52,51,55)           122.0542         estimate D2E/DX2                !
 ! A178  A(50,52,51)           122.9567         estimate D2E/DX2                !
 ! A179  A(50,52,56)           110.2275         estimate D2E/DX2                !
 ! A180  A(51,52,56)           121.4851         estimate D2E/DX2                !
 ! A181  A(10,53,19)           121.3932         estimate D2E/DX2                !
 ! A182  A(10,53,55)           110.0401         estimate D2E/DX2                !
 ! A183  A(19,53,55)           125.0063         estimate D2E/DX2                !
 ! A184  A(11,54,20)           121.4053         estimate D2E/DX2                !
 ! A185  A(11,54,56)           109.0017         estimate D2E/DX2                !
 ! A186  A(20,54,56)           122.1121         estimate D2E/DX2                !
 ! A187  A(51,55,53)           101.0345         estimate D2E/DX2                !
 ! A188  A(51,55,83)           113.0997         estimate D2E/DX2                !
 ! A189  A(51,55,100)          111.0738         estimate D2E/DX2                !
 ! A190  A(53,55,83)           110.671          estimate D2E/DX2                !
 ! A191  A(53,55,100)          111.1824         estimate D2E/DX2                !
 ! A192  A(83,55,100)          109.5676         estimate D2E/DX2                !
 ! A193  A(52,56,54)           108.4913         estimate D2E/DX2                !
 ! A194  A(52,56,84)           120.0788         estimate D2E/DX2                !
 ! A195  A(54,56,84)           121.6319         estimate D2E/DX2                !
 ! A196  A(21,57,59)           109.5958         estimate D2E/DX2                !
 ! A197  A(21,57,83)           125.0358         estimate D2E/DX2                !
 ! A198  A(59,57,83)           121.654          estimate D2E/DX2                !
 ! A199  A(22,58,60)           108.3741         estimate D2E/DX2                !
 ! A200  A(22,58,84)           122.3788         estimate D2E/DX2                !
 ! A201  A(60,58,84)           121.2847         estimate D2E/DX2                !
 ! A202  A(57,59,60)           120.5694         estimate D2E/DX2                !
 ! A203  A(57,59,61)           112.7992         estimate D2E/DX2                !
 ! A204  A(60,59,61)           121.0566         estimate D2E/DX2                !
 ! A205  A(58,60,59)           119.0711         estimate D2E/DX2                !
 ! A206  A(58,60,62)           111.5654         estimate D2E/DX2                !
 ! A207  A(59,60,62)           122.3518         estimate D2E/DX2                !
 ! A208  A(23,61,59)           100.6195         estimate D2E/DX2                !
 ! A209  A(23,61,63)           111.3105         estimate D2E/DX2                !
 ! A210  A(23,61,89)           112.8987         estimate D2E/DX2                !
 ! A211  A(59,61,63)           109.4993         estimate D2E/DX2                !
 ! A212  A(59,61,89)           113.7228         estimate D2E/DX2                !
 ! A213  A(63,61,89)           108.6256         estimate D2E/DX2                !
 ! A214  A(24,62,60)           100.71           estimate D2E/DX2                !
 ! A215  A(24,62,64)           109.9654         estimate D2E/DX2                !
 ! A216  A(24,62,90)           113.9766         estimate D2E/DX2                !
 ! A217  A(60,62,64)           109.1321         estimate D2E/DX2                !
 ! A218  A(60,62,90)           114.0512         estimate D2E/DX2                !
 ! A219  A(64,62,90)           108.7379         estimate D2E/DX2                !
 ! A220  A(61,63,64)           120.529          estimate D2E/DX2                !
 ! A221  A(61,63,65)           119.3552         estimate D2E/DX2                !
 ! A222  A(64,63,65)           119.8544         estimate D2E/DX2                !
 ! A223  A(62,64,63)           119.6984         estimate D2E/DX2                !
 ! A224  A(62,64,66)           120.1313         estimate D2E/DX2                !
 ! A225  A(63,64,66)           119.9422         estimate D2E/DX2                !
 ! A226  A(27,65,63)           118.948          estimate D2E/DX2                !
 ! A227  A(27,65,67)           120.4076         estimate D2E/DX2                !
 ! A228  A(63,65,67)           120.335          estimate D2E/DX2                !
 ! A229  A(28,66,64)           119.6963         estimate D2E/DX2                !
 ! A230  A(28,66,68)           119.7864         estimate D2E/DX2                !
 ! A231  A(64,66,68)           120.2769         estimate D2E/DX2                !
 ! A232  A(65,67,68)           119.9279         estimate D2E/DX2                !
 ! A233  A(65,67,69)           119.4917         estimate D2E/DX2                !
 ! A234  A(68,67,69)           120.3602         estimate D2E/DX2                !
 ! A235  A(66,68,67)           119.6525         estimate D2E/DX2                !
 ! A236  A(66,68,70)           119.868          estimate D2E/DX2                !
 ! A237  A(67,68,70)           120.2907         estimate D2E/DX2                !
 ! A238  A(31,69,67)           108.2053         estimate D2E/DX2                !
 ! A239  A(31,69,71)           101.0514         estimate D2E/DX2                !
 ! A240  A(31,69,86)           114.3886         estimate D2E/DX2                !
 ! A241  A(67,69,71)           110.3943         estimate D2E/DX2                !
 ! A242  A(67,69,86)           108.7063         estimate D2E/DX2                !
 ! A243  A(71,69,86)           113.8163         estimate D2E/DX2                !
 ! A244  A(32,70,68)           108.5545         estimate D2E/DX2                !
 ! A245  A(32,70,72)           100.9145         estimate D2E/DX2                !
 ! A246  A(32,70,87)           114.5387         estimate D2E/DX2                !
 ! A247  A(68,70,72)           110.5192         estimate D2E/DX2                !
 ! A248  A(68,70,87)           108.4991         estimate D2E/DX2                !
 ! A249  A(72,70,87)           113.5808         estimate D2E/DX2                !
 ! A250  A(69,71,72)           122.1632         estimate D2E/DX2                !
 ! A251  A(69,71,73)           110.2623         estimate D2E/DX2                !
 ! A252  A(72,71,73)           118.8792         estimate D2E/DX2                !
 ! A253  A(70,72,71)           121.4929         estimate D2E/DX2                !
 ! A254  A(70,72,74)           110.7153         estimate D2E/DX2                !
 ! A255  A(71,72,74)           119.7026         estimate D2E/DX2                !
 ! A256  A(33,73,71)           109.0326         estimate D2E/DX2                !
 ! A257  A(33,73,75)           118.9691         estimate D2E/DX2                !
 ! A258  A(71,73,75)           121.3072         estimate D2E/DX2                !
 ! A259  A(34,74,72)           108.2922         estimate D2E/DX2                !
 ! A260  A(34,74,76)           120.2296         estimate D2E/DX2                !
 ! A261  A(72,74,76)           122.0984         estimate D2E/DX2                !
 ! A262  A(73,75,76)           119.7778         estimate D2E/DX2                !
 ! A263  A(73,75,77)           119.9748         estimate D2E/DX2                !
 ! A264  A(76,75,77)           110.148          estimate D2E/DX2                !
 ! A265  A(74,76,75)           117.9996         estimate D2E/DX2                !
 ! A266  A(74,76,78)           122.3576         estimate D2E/DX2                !
 ! A267  A(75,76,78)           110.2726         estimate D2E/DX2                !
 ! A268  A(37,77,75)           121.6866         estimate D2E/DX2                !
 ! A269  A(37,77,81)           120.9341         estimate D2E/DX2                !
 ! A270  A(75,77,81)           106.9619         estimate D2E/DX2                !
 ! A271  A(38,78,76)           112.8489         estimate D2E/DX2                !
 ! A272  A(38,78,81)           110.7538         estimate D2E/DX2                !
 ! A273  A(38,78,99)           108.4024         estimate D2E/DX2                !
 ! A274  A(76,78,81)           101.3122         estimate D2E/DX2                !
 ! A275  A(76,78,99)           112.1143         estimate D2E/DX2                !
 ! A276  A(81,78,99)           111.3302         estimate D2E/DX2                !
 ! A277  A(39,79,40)           109.6566         estimate D2E/DX2                !
 ! A278  A(39,79,82)           113.9646         estimate D2E/DX2                !
 ! A279  A(39,79,98)           109.7213         estimate D2E/DX2                !
 ! A280  A(40,79,82)           100.4557         estimate D2E/DX2                !
 ! A281  A(40,79,98)           111.031          estimate D2E/DX2                !
 ! A282  A(82,79,98)           111.7057         estimate D2E/DX2                !
 ! A283  A(41,80,42)           108.6981         estimate D2E/DX2                !
 ! A284  A(41,80,82)           100.1063         estimate D2E/DX2                !
 ! A285  A(41,80,96)           111.8161         estimate D2E/DX2                !
 ! A286  A(42,80,82)           112.2612         estimate D2E/DX2                !
 ! A287  A(42,80,96)           110.2814         estimate D2E/DX2                !
 ! A288  A(82,80,96)           113.2425         estimate D2E/DX2                !
 ! A289  A(77,81,78)           110.8323         estimate D2E/DX2                !
 ! A290  A(77,81,82)           121.763          estimate D2E/DX2                !
 ! A291  A(78,81,82)           122.8798         estimate D2E/DX2                !
 ! A292  A(79,82,80)           112.3179         estimate D2E/DX2                !
 ! A293  A(79,82,81)           120.9307         estimate D2E/DX2                !
 ! A294  A(80,82,81)           121.6234         estimate D2E/DX2                !
 ! A295  A(55,83,57)           118.474          estimate D2E/DX2                !
 ! A296  A(55,83,84)           120.1842         estimate D2E/DX2                !
 ! A297  A(57,83,84)           118.6492         estimate D2E/DX2                !
 ! A298  A(56,84,58)           115.8588         estimate D2E/DX2                !
 ! A299  A(56,84,83)           119.8383         estimate D2E/DX2                !
 ! A300  A(58,84,83)           118.6938         estimate D2E/DX2                !
 ! D1    D(17,1,5,9)            19.5813         estimate D2E/DX2                !
 ! D2    D(17,1,5,29)         -135.3433         estimate D2E/DX2                !
 ! D3    D(25,1,5,9)           138.2257         estimate D2E/DX2                !
 ! D4    D(25,1,5,29)          -16.6988         estimate D2E/DX2                !
 ! D5    D(95,1,5,9)          -103.2694         estimate D2E/DX2                !
 ! D6    D(95,1,5,29)          101.806          estimate D2E/DX2                !
 ! D7    D(5,1,17,15)          -26.8007         estimate D2E/DX2                !
 ! D8    D(5,1,17,19)          135.8444         estimate D2E/DX2                !
 ! D9    D(25,1,17,15)        -139.353          estimate D2E/DX2                !
 ! D10   D(25,1,17,19)          23.2921         estimate D2E/DX2                !
 ! D11   D(95,1,17,15)          96.8384         estimate D2E/DX2                !
 ! D12   D(95,1,17,19)        -100.5166         estimate D2E/DX2                !
 ! D13   D(5,1,25,23)         -141.7453         estimate D2E/DX2                !
 ! D14   D(5,1,25,27)           18.1497         estimate D2E/DX2                !
 ! D15   D(17,1,25,23)         -22.0517         estimate D2E/DX2                !
 ! D16   D(17,1,25,27)         137.8434         estimate D2E/DX2                !
 ! D17   D(95,1,25,23)         100.4177         estimate D2E/DX2                !
 ! D18   D(95,1,25,27)         -99.6873         estimate D2E/DX2                !
 ! D19   D(43,2,6,10)         -141.7838         estimate D2E/DX2                !
 ! D20   D(43,2,6,15)            9.1418         estimate D2E/DX2                !
 ! D21   D(44,2,6,10)          -25.9852         estimate D2E/DX2                !
 ! D22   D(44,2,6,15)          124.9404         estimate D2E/DX2                !
 ! D23   D(93,2,6,10)           97.5254         estimate D2E/DX2                !
 ! D24   D(93,2,6,15)         -111.549          estimate D2E/DX2                !
 ! D25   D(6,2,43,13)          -11.3511         estimate D2E/DX2                !
 ! D26   D(6,2,43,39)          145.3024         estimate D2E/DX2                !
 ! D27   D(44,2,43,13)        -126.4879         estimate D2E/DX2                !
 ! D28   D(44,2,43,39)          30.1656         estimate D2E/DX2                !
 ! D29   D(93,2,43,13)         110.2192         estimate D2E/DX2                !
 ! D30   D(93,2,43,39)         -93.1272         estimate D2E/DX2                !
 ! D31   D(6,2,44,40)         -143.8637         estimate D2E/DX2                !
 ! D32   D(6,2,44,47)           23.615          estimate D2E/DX2                !
 ! D33   D(43,2,44,40)         -33.8217         estimate D2E/DX2                !
 ! D34   D(43,2,44,47)         133.657          estimate D2E/DX2                !
 ! D35   D(93,2,44,40)          90.6751         estimate D2E/DX2                !
 ! D36   D(93,2,44,47)        -101.8462         estimate D2E/DX2                !
 ! D37   D(18,3,7,12)            3.1019         estimate D2E/DX2                !
 ! D38   D(18,3,7,30)          151.0494         estimate D2E/DX2                !
 ! D39   D(26,3,7,12)         -145.3284         estimate D2E/DX2                !
 ! D40   D(26,3,7,30)            2.6191         estimate D2E/DX2                !
 ! D41   D(7,3,18,16)            5.8265         estimate D2E/DX2                !
 ! D42   D(7,3,18,20)         -144.5573         estimate D2E/DX2                !
 ! D43   D(26,3,18,16)         149.9292         estimate D2E/DX2                !
 ! D44   D(26,3,18,20)          -0.4546         estimate D2E/DX2                !
 ! D45   D(7,3,26,24)          147.743          estimate D2E/DX2                !
 ! D46   D(7,3,26,28)           -2.4096         estimate D2E/DX2                !
 ! D47   D(18,3,26,24)          -0.6548         estimate D2E/DX2                !
 ! D48   D(18,3,26,28)        -150.8074         estimate D2E/DX2                !
 ! D49   D(45,4,8,11)           25.4485         estimate D2E/DX2                !
 ! D50   D(45,4,8,16)         -124.5925         estimate D2E/DX2                !
 ! D51   D(46,4,8,11)          140.8135         estimate D2E/DX2                !
 ! D52   D(46,4,8,16)           -9.2275         estimate D2E/DX2                !
 ! D53   D(94,4,8,11)          -98.3432         estimate D2E/DX2                !
 ! D54   D(94,4,8,16)          111.6158         estimate D2E/DX2                !
 ! D55   D(8,4,45,41)          144.8889         estimate D2E/DX2                !
 ! D56   D(8,4,45,48)          -22.5381         estimate D2E/DX2                !
 ! D57   D(46,4,45,41)          34.2813         estimate D2E/DX2                !
 ! D58   D(46,4,45,48)        -133.1457         estimate D2E/DX2                !
 ! D59   D(94,4,45,41)         -89.7184         estimate D2E/DX2                !
 ! D60   D(94,4,45,48)         102.8546         estimate D2E/DX2                !
 ! D61   D(8,4,46,14)            9.6822         estimate D2E/DX2                !
 ! D62   D(8,4,46,42)         -146.2118         estimate D2E/DX2                !
 ! D63   D(45,4,46,14)         125.6728         estimate D2E/DX2                !
 ! D64   D(45,4,46,42)         -30.2212         estimate D2E/DX2                !
 ! D65   D(94,4,46,14)        -111.6015         estimate D2E/DX2                !
 ! D66   D(94,4,46,42)          92.5045         estimate D2E/DX2                !
 ! D67   D(1,5,9,13)            -2.3734         estimate D2E/DX2                !
 ! D68   D(1,5,9,35)          -156.6247         estimate D2E/DX2                !
 ! D69   D(29,5,9,13)          150.0498         estimate D2E/DX2                !
 ! D70   D(29,5,9,35)           -4.2015         estimate D2E/DX2                !
 ! D71   D(1,5,29,27)           10.1484         estimate D2E/DX2                !
 ! D72   D(1,5,29,31)          164.0087         estimate D2E/DX2                !
 ! D73   D(9,5,29,27)         -145.9511         estimate D2E/DX2                !
 ! D74   D(9,5,29,31)            7.9093         estimate D2E/DX2                !
 ! D75   D(2,6,10,49)           -1.9057         estimate D2E/DX2                !
 ! D76   D(2,6,10,53)          150.8142         estimate D2E/DX2                !
 ! D77   D(15,6,10,49)        -150.5456         estimate D2E/DX2                !
 ! D78   D(15,6,10,53)           2.1743         estimate D2E/DX2                !
 ! D79   D(2,6,15,13)           -3.911          estimate D2E/DX2                !
 ! D80   D(2,6,15,17)         -154.7971         estimate D2E/DX2                !
 ! D81   D(10,6,15,13)         148.1474         estimate D2E/DX2                !
 ! D82   D(10,6,15,17)          -2.7388         estimate D2E/DX2                !
 ! D83   D(3,7,12,14)           -7.9245         estimate D2E/DX2                !
 ! D84   D(3,7,12,36)          146.1107         estimate D2E/DX2                !
 ! D85   D(30,7,12,14)        -151.9225         estimate D2E/DX2                !
 ! D86   D(30,7,12,36)           2.1127         estimate D2E/DX2                !
 ! D87   D(3,7,30,28)           -1.8905         estimate D2E/DX2                !
 ! D88   D(3,7,30,32)         -152.3853         estimate D2E/DX2                !
 ! D89   D(12,7,30,28)         146.2365         estimate D2E/DX2                !
 ! D90   D(12,7,30,32)          -4.2582         estimate D2E/DX2                !
 ! D91   D(4,8,11,50)            0.2733         estimate D2E/DX2                !
 ! D92   D(4,8,11,54)         -147.323          estimate D2E/DX2                !
 ! D93   D(16,8,11,50)         147.5            estimate D2E/DX2                !
 ! D94   D(16,8,11,54)          -0.0963         estimate D2E/DX2                !
 ! D95   D(4,8,16,14)            5.6455         estimate D2E/DX2                !
 ! D96   D(4,8,16,18)          152.839          estimate D2E/DX2                !
 ! D97   D(11,8,16,14)        -145.1635         estimate D2E/DX2                !
 ! D98   D(11,8,16,18)           2.03           estimate D2E/DX2                !
 ! D99   D(5,9,13,15)           -7.9982         estimate D2E/DX2                !
 ! D100  D(5,9,13,43)         -151.2204         estimate D2E/DX2                !
 ! D101  D(35,9,13,15)         146.8108         estimate D2E/DX2                !
 ! D102  D(35,9,13,43)           3.5887         estimate D2E/DX2                !
 ! D103  D(5,9,35,33)           -4.1607         estimate D2E/DX2                !
 ! D104  D(5,9,35,37)          150.5686         estimate D2E/DX2                !
 ! D105  D(13,9,35,33)        -158.0849         estimate D2E/DX2                !
 ! D106  D(13,9,35,37)          -3.3556         estimate D2E/DX2                !
 ! D107  D(6,10,49,47)          31.5842         estimate D2E/DX2                !
 ! D108  D(6,10,49,51)         148.6945         estimate D2E/DX2                !
 ! D109  D(6,10,49,91)         -89.7739         estimate D2E/DX2                !
 ! D110  D(53,10,49,47)       -122.8514         estimate D2E/DX2                !
 ! D111  D(53,10,49,51)         -5.741          estimate D2E/DX2                !
 ! D112  D(53,10,49,91)        115.7906         estimate D2E/DX2                !
 ! D113  D(6,10,53,19)          -1.4862         estimate D2E/DX2                !
 ! D114  D(6,10,53,55)        -161.1964         estimate D2E/DX2                !
 ! D115  D(49,10,53,19)        153.7441         estimate D2E/DX2                !
 ! D116  D(49,10,53,55)         -5.9661         estimate D2E/DX2                !
 ! D117  D(8,11,50,48)         -28.8133         estimate D2E/DX2                !
 ! D118  D(8,11,50,52)        -145.4747         estimate D2E/DX2                !
 ! D119  D(8,11,50,92)          93.5305         estimate D2E/DX2                !
 ! D120  D(54,11,50,48)        121.3581         estimate D2E/DX2                !
 ! D121  D(54,11,50,52)          4.6966         estimate D2E/DX2                !
 ! D122  D(54,11,50,92)       -116.2982         estimate D2E/DX2                !
 ! D123  D(8,11,54,20)          -1.5969         estimate D2E/DX2                !
 ! D124  D(8,11,54,56)         148.7405         estimate D2E/DX2                !
 ! D125  D(50,11,54,20)       -152.7933         estimate D2E/DX2                !
 ! D126  D(50,11,54,56)         -2.4559         estimate D2E/DX2                !
 ! D127  D(7,12,14,16)           4.0476         estimate D2E/DX2                !
 ! D128  D(7,12,14,46)         152.5946         estimate D2E/DX2                !
 ! D129  D(36,12,14,16)       -150.405          estimate D2E/DX2                !
 ! D130  D(36,12,14,46)         -1.8579         estimate D2E/DX2                !
 ! D131  D(7,12,36,34)           5.2995         estimate D2E/DX2                !
 ! D132  D(7,12,36,38)        -151.0523         estimate D2E/DX2                !
 ! D133  D(14,12,36,34)        158.6374         estimate D2E/DX2                !
 ! D134  D(14,12,36,38)          2.2856         estimate D2E/DX2                !
 ! D135  D(9,13,15,6)         -151.0806         estimate D2E/DX2                !
 ! D136  D(9,13,15,17)          -0.7471         estimate D2E/DX2                !
 ! D137  D(43,13,15,6)          -3.7166         estimate D2E/DX2                !
 ! D138  D(43,13,15,17)        146.6168         estimate D2E/DX2                !
 ! D139  D(9,13,43,2)          156.753          estimate D2E/DX2                !
 ! D140  D(9,13,43,39)          -0.7702         estimate D2E/DX2                !
 ! D141  D(15,13,43,2)           9.7763         estimate D2E/DX2                !
 ! D142  D(15,13,43,39)       -147.7469         estimate D2E/DX2                !
 ! D143  D(12,14,16,8)         152.5236         estimate D2E/DX2                !
 ! D144  D(12,14,16,18)          4.9137         estimate D2E/DX2                !
 ! D145  D(46,14,16,8)           0.8675         estimate D2E/DX2                !
 ! D146  D(46,14,16,18)       -146.7424         estimate D2E/DX2                !
 ! D147  D(12,14,46,4)        -159.0617         estimate D2E/DX2                !
 ! D148  D(12,14,46,42)         -1.7409         estimate D2E/DX2                !
 ! D149  D(16,14,46,4)          -6.9533         estimate D2E/DX2                !
 ! D150  D(16,14,46,42)        150.3675         estimate D2E/DX2                !
 ! D151  D(6,15,17,1)          165.7448         estimate D2E/DX2                !
 ! D152  D(6,15,17,19)           2.4857         estimate D2E/DX2                !
 ! D153  D(13,15,17,1)          19.2891         estimate D2E/DX2                !
 ! D154  D(13,15,17,19)       -143.9701         estimate D2E/DX2                !
 ! D155  D(8,16,18,3)         -152.6723         estimate D2E/DX2                !
 ! D156  D(8,16,18,20)          -2.2            estimate D2E/DX2                !
 ! D157  D(14,16,18,3)          -9.6572         estimate D2E/DX2                !
 ! D158  D(14,16,18,20)        140.8152         estimate D2E/DX2                !
 ! D159  D(1,17,19,21)          -1.0387         estimate D2E/DX2                !
 ! D160  D(1,17,19,53)        -164.0886         estimate D2E/DX2                !
 ! D161  D(15,17,19,21)        161.3365         estimate D2E/DX2                !
 ! D162  D(15,17,19,53)         -1.7134         estimate D2E/DX2                !
 ! D163  D(3,18,20,22)           1.1161         estimate D2E/DX2                !
 ! D164  D(3,18,20,54)         150.3083         estimate D2E/DX2                !
 ! D165  D(16,18,20,22)       -148.6983         estimate D2E/DX2                !
 ! D166  D(16,18,20,54)          0.4939         estimate D2E/DX2                !
 ! D167  D(17,19,21,23)        -22.5272         estimate D2E/DX2                !
 ! D168  D(17,19,21,57)       -134.0312         estimate D2E/DX2                !
 ! D169  D(17,19,21,97)        101.9934         estimate D2E/DX2                !
 ! D170  D(53,19,21,23)        140.742          estimate D2E/DX2                !
 ! D171  D(53,19,21,57)         29.2379         estimate D2E/DX2                !
 ! D172  D(53,19,21,97)        -94.7375         estimate D2E/DX2                !
 ! D173  D(17,19,53,10)          1.2444         estimate D2E/DX2                !
 ! D174  D(17,19,53,55)        157.8083         estimate D2E/DX2                !
 ! D175  D(21,19,53,10)       -162.2646         estimate D2E/DX2                !
 ! D176  D(21,19,53,55)         -5.7007         estimate D2E/DX2                !
 ! D177  D(18,20,22,24)         -0.7464         estimate D2E/DX2                !
 ! D178  D(18,20,22,58)        143.0824         estimate D2E/DX2                !
 ! D179  D(54,20,22,24)       -150.638          estimate D2E/DX2                !
 ! D180  D(54,20,22,58)         -6.8092         estimate D2E/DX2                !
 ! D181  D(18,20,54,11)          1.3739         estimate D2E/DX2                !
 ! D182  D(18,20,54,56)       -145.0913         estimate D2E/DX2                !
 ! D183  D(22,20,54,11)        151.1047         estimate D2E/DX2                !
 ! D184  D(22,20,54,56)          4.6395         estimate D2E/DX2                !
 ! D185  D(19,21,23,25)         24.6928         estimate D2E/DX2                !
 ! D186  D(19,21,23,61)       -135.7727         estimate D2E/DX2                !
 ! D187  D(57,21,23,25)        142.1233         estimate D2E/DX2                !
 ! D188  D(57,21,23,61)        -18.3423         estimate D2E/DX2                !
 ! D189  D(97,21,23,25)        -98.9298         estimate D2E/DX2                !
 ! D190  D(97,21,23,61)        100.6046         estimate D2E/DX2                !
 ! D191  D(19,21,57,59)        133.3689         estimate D2E/DX2                !
 ! D192  D(19,21,57,83)        -25.0566         estimate D2E/DX2                !
 ! D193  D(23,21,57,59)         15.5571         estimate D2E/DX2                !
 ! D194  D(23,21,57,83)       -142.8684         estimate D2E/DX2                !
 ! D195  D(97,21,57,59)       -103.4886         estimate D2E/DX2                !
 ! D196  D(97,21,57,83)         98.0859         estimate D2E/DX2                !
 ! D197  D(20,22,24,26)         -0.3559         estimate D2E/DX2                !
 ! D198  D(20,22,24,62)        149.0296         estimate D2E/DX2                !
 ! D199  D(58,22,24,26)       -148.2118         estimate D2E/DX2                !
 ! D200  D(58,22,24,62)          1.1736         estimate D2E/DX2                !
 ! D201  D(20,22,58,60)       -147.8044         estimate D2E/DX2                !
 ! D202  D(20,22,58,84)          1.3487         estimate D2E/DX2                !
 ! D203  D(24,22,58,60)          0.4899         estimate D2E/DX2                !
 ! D204  D(24,22,58,84)        149.643          estimate D2E/DX2                !
 ! D205  D(21,23,25,1)          -2.0866         estimate D2E/DX2                !
 ! D206  D(21,23,25,27)       -160.1759         estimate D2E/DX2                !
 ! D207  D(61,23,25,1)         156.814          estimate D2E/DX2                !
 ! D208  D(61,23,25,27)         -1.2754         estimate D2E/DX2                !
 ! D209  D(21,23,61,59)         13.8003         estimate D2E/DX2                !
 ! D210  D(21,23,61,63)        129.7562         estimate D2E/DX2                !
 ! D211  D(21,23,61,89)       -107.7694         estimate D2E/DX2                !
 ! D212  D(25,23,61,59)       -147.177          estimate D2E/DX2                !
 ! D213  D(25,23,61,63)        -31.2211         estimate D2E/DX2                !
 ! D214  D(25,23,61,89)         91.2533         estimate D2E/DX2                !
 ! D215  D(22,24,26,3)           1.0492         estimate D2E/DX2                !
 ! D216  D(22,24,26,28)        148.078          estimate D2E/DX2                !
 ! D217  D(62,24,26,3)        -145.2473         estimate D2E/DX2                !
 ! D218  D(62,24,26,28)          1.7815         estimate D2E/DX2                !
 ! D219  D(22,24,62,60)         -2.1914         estimate D2E/DX2                !
 ! D220  D(22,24,62,64)       -117.2531         estimate D2E/DX2                !
 ! D221  D(22,24,62,90)        120.3605         estimate D2E/DX2                !
 ! D222  D(26,24,62,60)        146.7018         estimate D2E/DX2                !
 ! D223  D(26,24,62,64)         31.6401         estimate D2E/DX2                !
 ! D224  D(26,24,62,90)        -90.7463         estimate D2E/DX2                !
 ! D225  D(1,25,27,29)         -12.6535         estimate D2E/DX2                !
 ! D226  D(1,25,27,65)        -127.5206         estimate D2E/DX2                !
 ! D227  D(1,25,27,85)         109.523          estimate D2E/DX2                !
 ! D228  D(23,25,27,29)        147.5272         estimate D2E/DX2                !
 ! D229  D(23,25,27,65)         32.6602         estimate D2E/DX2                !
 ! D230  D(23,25,27,85)        -90.2963         estimate D2E/DX2                !
 ! D231  D(3,26,28,30)           1.2239         estimate D2E/DX2                !
 ! D232  D(3,26,28,66)         115.7565         estimate D2E/DX2                !
 ! D233  D(3,26,28,88)        -121.7265         estimate D2E/DX2                !
 ! D234  D(24,26,28,30)       -148.2941         estimate D2E/DX2                !
 ! D235  D(24,26,28,66)        -33.7614         estimate D2E/DX2                !
 ! D236  D(24,26,28,88)         88.7555         estimate D2E/DX2                !
 ! D237  D(25,27,29,5)           1.3725         estimate D2E/DX2                !
 ! D238  D(25,27,29,31)       -152.2194         estimate D2E/DX2                !
 ! D239  D(65,27,29,5)         118.2423         estimate D2E/DX2                !
 ! D240  D(65,27,29,31)        -35.3495         estimate D2E/DX2                !
 ! D241  D(85,27,29,5)        -119.5314         estimate D2E/DX2                !
 ! D242  D(85,27,29,31)         86.8768         estimate D2E/DX2                !
 ! D243  D(25,27,65,63)        -30.5291         estimate D2E/DX2                !
 ! D244  D(25,27,65,67)        143.1052         estimate D2E/DX2                !
 ! D245  D(29,27,65,63)       -140.343          estimate D2E/DX2                !
 ! D246  D(29,27,65,67)         33.2912         estimate D2E/DX2                !
 ! D247  D(85,27,65,63)         94.3402         estimate D2E/DX2                !
 ! D248  D(85,27,65,67)        -92.0255         estimate D2E/DX2                !
 ! D249  D(26,28,30,7)           0.4251         estimate D2E/DX2                !
 ! D250  D(26,28,30,32)        149.9127         estimate D2E/DX2                !
 ! D251  D(66,28,30,7)        -114.9843         estimate D2E/DX2                !
 ! D252  D(66,28,30,32)         34.5033         estimate D2E/DX2                !
 ! D253  D(88,28,30,7)         122.8458         estimate D2E/DX2                !
 ! D254  D(88,28,30,32)        -87.6666         estimate D2E/DX2                !
 ! D255  D(26,28,66,64)         31.6568         estimate D2E/DX2                !
 ! D256  D(26,28,66,68)       -142.727          estimate D2E/DX2                !
 ! D257  D(30,28,66,64)        141.1026         estimate D2E/DX2                !
 ! D258  D(30,28,66,68)        -33.2811         estimate D2E/DX2                !
 ! D259  D(88,28,66,64)        -93.5354         estimate D2E/DX2                !
 ! D260  D(88,28,66,68)         92.0808         estimate D2E/DX2                !
 ! D261  D(5,29,31,33)          -2.9271         estimate D2E/DX2                !
 ! D262  D(5,29,31,69)        -150.5748         estimate D2E/DX2                !
 ! D263  D(27,29,31,33)        148.7343         estimate D2E/DX2                !
 ! D264  D(27,29,31,69)          1.0866         estimate D2E/DX2                !
 ! D265  D(7,30,32,34)          -1.3331         estimate D2E/DX2                !
[...]
 Alpha virt. eigenvalues --    1.54003   1.55013   1.55601   1.56022   1.56749
 Alpha virt. eigenvalues --    1.56900   1.57462   1.58002   1.58192   1.58677
 Alpha virt. eigenvalues --    1.59288   1.59593   1.60138   1.60868   1.60919
 Alpha virt. eigenvalues --    1.61532   1.61728   1.61869   1.62275   1.62522
 Alpha virt. eigenvalues --    1.62735   1.63276   1.63398   1.63758   1.63950
 Alpha virt. eigenvalues --    1.63984   1.64363   1.64505   1.64935   1.64993
 Alpha virt. eigenvalues --    1.65305   1.65438   1.65688   1.65957   1.66439
 Alpha virt. eigenvalues --    1.66600   1.66889   1.67017   1.67158   1.67363
 Alpha virt. eigenvalues --    1.67655   1.67739   1.68055   1.68167   1.68353
 Alpha virt. eigenvalues --    1.68577   1.68695   1.68861   1.69214   1.69515
 Alpha virt. eigenvalues --    1.69745   1.70041   1.70189   1.70405   1.70753
 Alpha virt. eigenvalues --    1.70944   1.71287   1.71551   1.71656   1.71846
 Alpha virt. eigenvalues --    1.72329   1.72542   1.72747   1.73065   1.73310
 Alpha virt. eigenvalues --    1.73536   1.73666   1.74159   1.74268   1.74446
 Alpha virt. eigenvalues --    1.74788   1.74881   1.75223   1.75353   1.75602
 Alpha virt. eigenvalues --    1.75906   1.76040   1.76239   1.76458   1.76708
 Alpha virt. eigenvalues --    1.76828   1.77031   1.77264   1.77484   1.77598
 Alpha virt. eigenvalues --    1.77700   1.78033   1.78258   1.78434   1.78707
 Alpha virt. eigenvalues --    1.78863   1.79206   1.79372   1.79539   1.79799
 Alpha virt. eigenvalues --    1.80051   1.80594   1.80694   1.80892   1.81216
 Alpha virt. eigenvalues --    1.81313   1.81583   1.81758   1.82115   1.82238
 Alpha virt. eigenvalues --    1.82475   1.82639   1.82846   1.83255   1.83812
 Alpha virt. eigenvalues --    1.83973   1.84441   1.84632   1.84907   1.85237
 Alpha virt. eigenvalues --    1.85313   1.85656   1.85958   1.86215   1.86558
 Alpha virt. eigenvalues --    1.86648   1.87245   1.87552   1.87810   1.88015
 Alpha virt. eigenvalues --    1.88288   1.88750   1.89089   1.89322   1.89874
 Alpha virt. eigenvalues --    1.89995   1.90441   1.90697   1.90974   1.91369
 Alpha virt. eigenvalues --    1.91714   1.92176   1.92243   1.93050   1.93203
 Alpha virt. eigenvalues --    1.93407   1.93600   1.94269   1.94511   1.94982
 Alpha virt. eigenvalues --    1.95408   1.95853   1.95929   1.96440   1.96706
 Alpha virt. eigenvalues --    1.97029   1.97350   1.97550   1.97737   1.98088
 Alpha virt. eigenvalues --    1.98438   1.99199   1.99571   1.99885   2.00091
 Alpha virt. eigenvalues --    2.00381   2.00972   2.01008   2.01364   2.01409
 Alpha virt. eigenvalues --    2.01692   2.01751   2.02883   2.02968   2.03032
 Alpha virt. eigenvalues --    2.03584   2.03862   2.04616   2.04828   2.05270
 Alpha virt. eigenvalues --    2.05479   2.05971   2.06457   2.06747   2.07219
 Alpha virt. eigenvalues --    2.07464   2.07999   2.08264   2.08556   2.08872
 Alpha virt. eigenvalues --    2.09138   2.09658   2.09835   2.10235   2.10664
 Alpha virt. eigenvalues --    2.11058   2.11281   2.11626   2.12294   2.12367
 Alpha virt. eigenvalues --    2.12751   2.13229   2.13843   2.14081   2.14261
 Alpha virt. eigenvalues --    2.14662   2.15160   2.15825   2.16092   2.16327
 Alpha virt. eigenvalues --    2.16896   2.17247   2.17902   2.18370   2.18617
 Alpha virt. eigenvalues --    2.18875   2.19174   2.19448   2.19633   2.20123
 Alpha virt. eigenvalues --    2.20898   2.21070   2.21238   2.21600   2.22229
 Alpha virt. eigenvalues --    2.22904   2.23097   2.23370   2.23783   2.24334
 Alpha virt. eigenvalues --    2.24749   2.25119   2.25416   2.25571   2.26115
 Alpha virt. eigenvalues --    2.26588   2.26961   2.27209   2.27772   2.27880
 Alpha virt. eigenvalues --    2.28676   2.28898   2.28958   2.29426   2.30412
 Alpha virt. eigenvalues --    2.30831   2.31019   2.31135   2.31957   2.32321
 Alpha virt. eigenvalues --    2.33477   2.33924   2.34260   2.34533   2.34806
 Alpha virt. eigenvalues --    2.35557   2.36300   2.36660   2.37235   2.37627
 Alpha virt. eigenvalues --    2.38263   2.38471   2.39042   2.39454   2.40060
 Alpha virt. eigenvalues --    2.40180   2.40452   2.40928   2.41731   2.42352
 Alpha virt. eigenvalues --    2.42846   2.43002   2.43762   2.43992   2.44206
 Alpha virt. eigenvalues --    2.44722   2.44999   2.45571   2.45941   2.47011
 Alpha virt. eigenvalues --    2.47443   2.47667   2.48225   2.48712   2.49551
 Alpha virt. eigenvalues --    2.49928   2.50451   2.50769   2.51042   2.51511
 Alpha virt. eigenvalues --    2.51639   2.52121   2.52889   2.53158   2.53554
 Alpha virt. eigenvalues --    2.53591   2.54710   2.54713   2.54975   2.55600
 Alpha virt. eigenvalues --    2.55668   2.55942   2.56344   2.56533   2.57097
 Alpha virt. eigenvalues --    2.57473   2.57612   2.57737   2.58365   2.58573
 Alpha virt. eigenvalues --    2.58699   2.59003   2.59900   2.60080   2.60228
 Alpha virt. eigenvalues --    2.60656   2.61102   2.61574   2.62009   2.62284
 Alpha virt. eigenvalues --    2.62579   2.63094   2.63425   2.63954   2.64301
 Alpha virt. eigenvalues --    2.64653   2.64952   2.65470   2.65551   2.65872
 Alpha virt. eigenvalues --    2.66265   2.66729   2.66861   2.67229   2.67420
 Alpha virt. eigenvalues --    2.68251   2.68288   2.68774   2.68982   2.69393
 Alpha virt. eigenvalues --    2.69583   2.69794   2.70359   2.70551   2.71001
 Alpha virt. eigenvalues --    2.71297   2.71637   2.71928   2.72192   2.72928
 Alpha virt. eigenvalues --    2.73292   2.73662   2.74164   2.74536   2.74814
 Alpha virt. eigenvalues --    2.74985   2.75142   2.75194   2.75995   2.76382
 Alpha virt. eigenvalues --    2.76970   2.77501   2.77797   2.78017   2.78664
 Alpha virt. eigenvalues --    2.78935   2.79020   2.79723   2.80047   2.80451
 Alpha virt. eigenvalues --    2.81244   2.81361   2.82088   2.82897   2.83113
 Alpha virt. eigenvalues --    2.83297   2.83809   2.84377   2.85235   2.85783
 Alpha virt. eigenvalues --    2.86053   2.86656   2.87354   2.87768   2.88167
 Alpha virt. eigenvalues --    2.88482   2.89017   2.89371   2.90194   2.90485
 Alpha virt. eigenvalues --    2.90940   2.91489   2.92525   2.92744   2.93632
 Alpha virt. eigenvalues --    2.93853   2.94774   2.95438   2.96107   2.96446
 Alpha virt. eigenvalues --    2.96933   2.97975   3.00076   3.00815   3.01534
 Alpha virt. eigenvalues --    3.02565   3.04316   3.06865   3.07249   3.08564
 Alpha virt. eigenvalues --    3.08820   3.09935   3.10603   3.10710   3.12418
 Alpha virt. eigenvalues --    3.14372   3.15709   3.16885   3.18350   3.18571
 Alpha virt. eigenvalues --    3.19185   3.21019   3.21538   3.24458   3.25106
 Alpha virt. eigenvalues --    3.26357   3.27049   3.29706   3.30850   3.32630
 Alpha virt. eigenvalues --    3.34278   3.37824   3.38133   3.41811   3.42678
 Alpha virt. eigenvalues --    3.43979   3.47492   3.49056   3.50180   3.52980
 Alpha virt. eigenvalues --    3.58525   4.00495   4.01316   4.01615   4.01999
 Alpha virt. eigenvalues --    4.03236   4.03953   4.04915   4.06417   4.06654
 Alpha virt. eigenvalues --    4.07229   4.07694   4.08389   4.08519   4.09167
 Alpha virt. eigenvalues --    4.10185   4.10781   4.11302   4.11766   4.12578
 Alpha virt. eigenvalues --    4.14354   4.14924   4.15801   4.16014   4.16743
 Alpha virt. eigenvalues --    4.18199   4.18477   4.18974   4.19545   4.19964
 Alpha virt. eigenvalues --    4.20826   4.21271   4.22201   4.22973   4.24671
 Alpha virt. eigenvalues --    4.24713   4.25091   4.25523   4.25845   4.26508
 Alpha virt. eigenvalues --    4.27104   4.27355   4.27937   4.28097   4.28253
 Alpha virt. eigenvalues --    4.28732   4.29335   4.29905   4.30329   4.31335
 Alpha virt. eigenvalues --    4.32891   4.33314   4.34095   4.35349   4.36611
 Alpha virt. eigenvalues --    4.36992   4.38400   4.38660   4.39663   4.40309
 Alpha virt. eigenvalues --    4.41695   4.41937   4.42262   4.43435   4.43865
 Alpha virt. eigenvalues --    4.44354   4.44914   4.46719   4.47901   4.49758
 Alpha virt. eigenvalues --    4.50149   4.51613   4.53730   4.54592   4.55894
 Alpha virt. eigenvalues --    4.57149   4.58055   4.58291   4.59925   4.61454
 Alpha virt. eigenvalues --    4.64277   4.65935   4.66786   4.68063   4.71176
 Alpha virt. eigenvalues --    4.75974   4.77889   4.79676   4.80745   4.82494
 Alpha virt. eigenvalues --    4.84265   4.85840   4.90319   4.92749   4.97295
 Alpha virt. eigenvalues --    5.00255   5.01807   5.03580   5.12169   5.14350
 Alpha virt. eigenvalues --    5.21870
          Condensed to atoms (all electrons):
 Mulliken charges:
               1
     1  C   -0.364516
     2  C   -0.392150
     3  C    0.011044
     4  C   -0.389153
     5  C    0.079346
     6  C    0.084440
     7  C    0.009806
     8  C    0.088716
     9  C    0.057304
    10  C    0.128141
    11  C    0.096465
    12  C    0.044760
    13  C   -0.020725
    14  C    0.006014
    15  C    0.042626
    16  C    0.013848
    17  C    0.121382
    18  C    0.043722
    19  C    0.149074
    20  C    0.045674
    21  C   -0.383010
    22  C    0.008481
    23  C    0.180715
    24  C    0.093240
    25  C    0.187896
    26  C    0.089761
    27  C   -0.371218
    28  C   -0.377924
    29  C    0.133299
    30  C    0.087275
    31  C    0.084132
    32  C    0.097959
    33  C    0.005624
    34  C   -0.016011
    35  C    0.039867
    36  C    0.065519
    37  C    0.060856
    38  C    0.099610
    39  C    0.117837
    40  C    0.121188
    41  C    0.110752
    42  C    0.155712
    43  C    0.085392
    44  C    0.147192
    45  C    0.148314
    46  C    0.081065
    47  C    0.123339
    48  C    0.119432
    49  C   -0.368071
    50  C   -0.387907
    51  C    0.155683
    52  C    0.112280
    53  C    0.107157
    54  C    0.015012
    55  C   -0.353899
    56  C   -0.010469
    57  C    0.109118
    58  C    0.011781
    59  C    0.130457
    60  C    0.081004
    61  C   -0.370770
    62  C   -0.381724
    63  C    0.124562
    64  C    0.128265
    65  C    0.127713
    66  C    0.127141
    67  C    0.127749
    68  C    0.119737
    69  C   -0.381450
    70  C   -0.373935
    71  C    0.097388
    72  C    0.090524
    73  C    0.025003
    74  C    0.045745
    75  C    0.019500
    76  C    0.061421
    77  C   -0.026227
    78  C   -0.357891
    79  C   -0.361457
    80  C   -0.372530
    81  C    0.108122
    82  C    0.162596
    83  C    0.121481
    84  C    0.069874
    85  Cl   0.033373
    86  Cl   0.031813
    87  Cl   0.028503
    88  Cl   0.031048
    89  Cl   0.032255
    90  Cl   0.033213
    91  Cl   0.023032
    92  Cl   0.028314
    93  Cl   0.030879
    94  Cl   0.027978
    95  Cl   0.002172
    96  Cl   0.021783
    97  Cl   0.026974
    98  Cl  -0.007732
    99  Cl  -0.010875
   100  Cl  -0.017823
 Sum of Mulliken charges =  -0.00000
 Mulliken charges with hydrogens summed into heavy atoms:
               1
     1  C   -0.364516
     2  C   -0.392150
     3  C    0.011044
     4  C   -0.389153
     5  C    0.079346
     6  C    0.084440
     7  C    0.009806
     8  C    0.088716
     9  C    0.057304
    10  C    0.128141
    11  C    0.096465
    12  C    0.044760
    13  C   -0.020725
    14  C    0.006014
    15  C    0.042626
    16  C    0.013848
    17  C    0.121382
    18  C    0.043722
    19  C    0.149074
    20  C    0.045674
    21  C   -0.383010
    22  C    0.008481
    23  C    0.180715
    24  C    0.093240
    25  C    0.187896
    26  C    0.089761
    27  C   -0.371218
    28  C   -0.377924
    29  C    0.133299
    30  C    0.087275
    31  C    0.084132
    32  C    0.097959
    33  C    0.005624
    34  C   -0.016011
    35  C    0.039867
    36  C    0.065519
    37  C    0.060856
    38  C    0.099610
    39  C    0.117837
    40  C    0.121188
    41  C    0.110752
    42  C    0.155712
    43  C    0.085392
    44  C    0.147192
    45  C    0.148314
    46  C    0.081065
    47  C    0.123339
    48  C    0.119432
    49  C   -0.368071
    50  C   -0.387907
    51  C    0.155683
    52  C    0.112280
    53  C    0.107157
    54  C    0.015012
    55  C   -0.353899
    56  C   -0.010469
    57  C    0.109118
    58  C    0.011781
    59  C    0.130457
    60  C    0.081004
    61  C   -0.370770
    62  C   -0.381724
    63  C    0.124562
    64  C    0.128265
    65  C    0.127713
    66  C    0.127141
    67  C    0.127749
    68  C    0.119737
    69  C   -0.381450
    70  C   -0.373935
    71  C    0.097388
    72  C    0.090524
    73  C    0.025003
    74  C    0.045745
    75  C    0.019500
    76  C    0.061421
    77  C   -0.026227
    78  C   -0.357891
    79  C   -0.361457
    80  C   -0.372530
    81  C    0.108122
    82  C    0.162596
    83  C    0.121481
    84  C    0.069874
    85  Cl   0.033373
    86  Cl   0.031813
    87  Cl   0.028503
    88  Cl   0.031048
    89  Cl   0.032255
    90  Cl   0.033213
    91  Cl   0.023032
    92  Cl   0.028314
    93  Cl   0.030879
    94  Cl   0.027978
    95  Cl   0.002172
    96  Cl   0.021783
    97  Cl   0.026974
    98  Cl  -0.007732
    99  Cl  -0.010875
   100  Cl  -0.017823
 Electronic spatial extent (au):  <R**2>=          71686.5442
 Charge=             -0.0000 electrons
 Dipole moment (field-independent basis, Debye):
    X=              1.1095    Y=             -3.1012    Z=              3.0350  Tot=              4.4788
 Quadrupole moment (field-independent basis, Debye-Ang):
   XX=           -723.5095   YY=           -699.5319   ZZ=           -661.0143
   XY=             -4.0174   XZ=             -4.7300   YZ=              0.7430
 Traceless Quadrupole moment (field-independent basis, Debye-Ang):
   XX=            -28.8242   YY=             -4.8467   ZZ=             33.6709
   XY=             -4.0174   XZ=             -4.7300   YZ=              0.7430
 Octapole moment (field-independent basis, Debye-Ang**2):
  XXX=             52.9909  YYY=            -35.6738  ZZZ=             30.3080  XYY=             32.8177
  XXY=             34.8300  XXZ=             17.1732  XZZ=              7.3566  YZZ=             -7.9058
  YYZ=             14.7083  XYZ=             40.8129
 Hexadecapole moment (field-independent basis, Debye-Ang**3):
 XXXX=         -39774.8492 YYYY=         -35275.1370 ZZZZ=         -25513.2837 XXXY=           -137.5711
 XXXZ=            -34.1377 YYYX=            -73.4380 YYYZ=           -205.8907 ZZZX=            -45.9287
 ZZZY=             45.7496 XXYY=         -12640.6569 XXZZ=         -11130.2563 YYZZ=         -10016.3870
 XXYZ=            -40.9383 YYXZ=            -16.6404 ZZXY=            -19.6601
 N-N= 2.806194398435D+04 E-N=-8.101296837840D+04  KE= 1.051178717989D+04
 No NMR shielding tensors so no spin-rotation constants.
 Leave Link  601 at Wed Jun 29 03:32:45 2022, MaxMem=  1342177280 cpu:              27.9 elap:               1.4
 (Enter /home/mkliu/g16/l9999.exe)
 1\1\GINC-NODE03\FOpt\RB3LYP\6-31G(d,p)\C84Cl16\MKLIU\29-Jun-2022\0\\#P
  opt b3lyp/6-31G(d, p) empiricaldispersion=GD3\\force\\0,1\C,8.2265364
 128,18.6453610109,10.6088427399\C,12.4854435325,20.0038917973,8.909960
 3645\C,8.2604964565,26.8636337299,10.5426569953\C,12.4917993149,25.766
 859888,8.910921417\C,7.9501178992,18.960310736,9.1546943733\C,11.87322
 87782,19.584749651,10.2235940628\C,7.9422959482,26.8076518325,9.141159
 5103\C,11.8890667285,26.2039603313,10.2298595949\C,8.9553956432,19.127
 4189909,8.1653385814\C,12.1315165862,20.2342537954,11.4025328583\C,12.
 1511110691,25.5571711872,11.3982112146\C,8.954268144,26.6263537345,8.1
 579114986\C,10.3012212574,19.0588785582,8.6038435679\C,10.2912002981,2
 6.6769915162,8.6197637814\C,10.6181133025,18.987172574,10.0201973387\C
 ,10.6167202157,26.8067929221,10.0123881068\C,9.6351296568,18.994559163
 4,11.0228798066\C,9.6029293714,26.8010713794,11.0069811475\C,9.9064440
 735,19.6591663115,12.2330984423\C,9.8685214764,26.1145700841,12.248146
 3465\C,8.7754855429,20.0701217715,13.1537639932\C,8.7790033478,25.5205
 314867,12.9230039121\C,7.4567025386,20.1740171469,12.4159685431\C,7.44
 76910217,25.5974378828,12.4229434555\C,7.2041480418,19.5219777799,11.2
 909371753\C,7.1927481558,26.265438271,11.2637581271\C,6.1076346607,19.
 9584159774,10.345415205\C,6.0809996168,25.8375285857,10.3245980547\C,6
 .7036172874,19.566173271,9.0230643334\C,6.6618346198,26.2354546392,8.9
 857388109\C,6.3731437859,20.2262713871,7.862717228\C,6.3612089659,25.5
 643900315,7.8314622463\C,7.3213290262,20.3387950575,6.8302271173\C,7.3
 107892754,25.4502230986,6.7937934131\C,8.662150153,19.8825964448,6.977
 0945843\C,8.665736323,25.8807114118,6.9620468546\C,9.7226018541,20.610
 4240273,6.2950022429\C,9.7290856502,25.1671132118,6.2998525578\C,11.05
 17842628,20.5600654941,6.8274444335\C,12.6864921385,22.1884811242,7.76
 84902618\C,12.6828642117,23.5806449725,7.7663415254\C,11.0395127858,25
 .1970423155,6.8336997836\C,11.3138480315,19.7721921035,7.9442475841\C,
 12.8576962705,21.473321443,8.9499610524\C,12.854909194,24.2953417903,8
 .9490294229\C,11.3191318881,25.983664312,7.9501231836\C,13.0750579033,
 22.1754052419,10.1569537411\C,13.0733501255,23.5889272914,10.151150827
 4\C,13.0809490409,21.4039055456,11.4879699574\C,13.0679318452,24.35079
 72283,11.4748613169\C,12.4463297401,22.1948901711,12.6049627164\C,12.4
 014336593,23.5339763476,12.5665828863\C,11.1576157476,20.2623449925,12
 .4166166734\C,11.1469527372,25.4848041144,12.4206502637\C,11.437806374
 2,21.3836958341,13.3860098154\C,11.2989329765,24.2766742824,13.1363390
 052\C,8.9559122063,21.4956784968,13.6319621195\C,8.93231899,24.2685859
 892,13.6161476589\C,7.7341508374,22.1978435268,13.5213160887\C,7.71340
 87225,23.5623513372,13.5389388877\C,6.6770570093,21.4106481001,12.8000
 080314\C,6.6550613631,24.3649102455,12.8133026423\C,6.1859048514,22.18
 76786628,11.5610432358\C,6.1824143117,23.6013792718,11.5599197101\C,5.
 8978656328,21.4847388327,10.3771066661\C,5.8968751026,24.3063847578,10
 .3699878997\C,5.5939505257,22.1876173206,9.1855673088\C,5.5965370602,2
 3.6005862977,9.1785908873\C,5.4216775062,21.4072449272,7.8658412871\C,
 5.4207263268,24.3740442433,7.8478755111\C,5.9422036235,22.2055839912,6
 .6874881015\C,5.9493614937,23.5735542289,6.6791636275\C,7.00494418,21.
 5113586319,6.0609117234\C,7.0046844014,24.2720509092,6.0139181788\C,8.
 0297797064,22.1903708781,5.3862262958\C,7.9952148657,23.6106351867,5.3
 227892764\C,9.3701296394,21.7136768773,5.4584854432\C,9.4001637092,24.
 1496932828,5.2185790352\C,12.0653835912,21.6379164204,6.4978335833\C,1
 2.0725646246,24.1331018786,6.4876234064\C,10.2264336411,22.8754544622,
 5.3892698103\C,11.4572574447,22.88654018,5.921607116\C,10.1753987482,2
 2.1545554485,13.7048126372\C,10.1766792062,23.58807608,13.681298877\Cl
 ,4.5233553023,19.094474545,10.7041095273\Cl,3.6630429572,20.9320668253
 ,7.6423247694\Cl,3.6554753036,24.8299856893,7.6262023422\Cl,4.49943671
 87,26.6872567062,10.7040434035\Cl,5.242242363,21.010666273,13.88487819
 68\Cl,5.2198901829,24.7691293796,13.8831861177\Cl,14.8078054477,20.878
 0326518,11.8716948259\Cl,14.7822473061,24.8330731324,11.9337648743\Cl,
 13.9430889583,18.9726032581,8.4753789256\Cl,13.9513047914,26.799735281
 ,8.4730499895\Cl,7.9096001666,16.8383445713,10.9494926527\Cl,13.364161
 9027,24.8481797458,5.3724230239\Cl,8.6519610922,18.9022651096,14.58038
 35092\Cl,13.3801467465,20.9521360563,5.3525209207\Cl,9.7118201796,24.9
 177996318,3.5459411741\Cl,12.1870522382,20.7406955893,14.9827520709\\V
 ersion=ES64L-G16RevA.03\State=1-A\HF=-10564.1989269\RMSD=6.813e-09\RMS
 F=3.247e-05\Dipole=-0.7834253,1.5689981,-0.1715331\Quadrupole=-16.6302
 004,16.4051786,0.2250218,0.4439317,9.9123678,14.1323568\PG=C01 [X(C84C
 l16)]\\@


 A SCIENTIST IS SOMEONE WHOSE CURIOSITY SURVIVES
 EDUCATION'S ASSAULTS ON IT.
                          - SIR HERMANN BONDI
 Job cpu time:       1 days 20 hours 22 minutes 29.9 seconds.
 Elapsed time:       0 days  1 hours 51 minutes  5.0 seconds.
 File lengths (MBytes):  RWF=   1500 Int=      0 D2E=      0 Chk=    187 Scr=      1
 Normal termination of Gaussian 16 at Wed Jun 29 03:32:48 2022.
