 Entering Gaussian System, Link 0=g16
 Input=16_addons_C84_14_Cl22_rank_2.gjf
 Output=16_addons_C84_14_Cl22_rank_2.log
 Initial command:
 /home/mkliu/g16/l1.exe "/data/scratch/Gau-200320.inp" -scrdir="/data/scratch/"
 Entering Link 1 = /home/mkliu/g16/l1.exe PID=    200321.
  
 Copyright (c) 1988,1990,1992,1993,1995,1998,2003,2009,2016,
            Gaussian, Inc.  All Rights Reserved.
  
 This is part of the Gaussian(R) 16 program.  It is based on
 the Gaussian(R) 09 system (copyright 2009, Gaussian, Inc.),
 the Gaussian(R) 03 system (copyright 2003, Gaussian, Inc.),
 the Gaussian(R) 98 system (copyright 1998, Gaussian, Inc.),
 the Gaussian(R) 94 system (copyright 1995, Gaussian, Inc.),
 the Gaussian 92(TM) system (copyright 1992, Gaussian, Inc.),
 the Gaussian 90(TM) system (copyright 1990, Gaussian, Inc.),
 the Gaussian 88(TM) system (copyright 1988, Gaussian, Inc.),
 the Gaussian 86(TM) system (copyright 1986, Carnegie Mellon
 University), and the Gaussian 82(TM) system (copyright 1983,
 Carnegie Mellon University). Gaussian is a federally registered
 trademark of Gaussian, Inc.
  
 This software contains proprietary and confidential information,
 including trade secrets, belonging to Gaussian, Inc.
  
 This software is provided under written license and may be
 used, copied, transmitted, or stored only in accord with that
 written license.
  
 The following legend is applicable only to US Government
 contracts under FAR:
  
                    RESTRICTED RIGHTS LEGEND
  
 Use, reproduction and disclosure by the US Government is
 subject to restrictions as set forth in subparagraphs (a)
 and (c) of the Commercial Computer Software - Restricted
 Rights clause in FAR 52.227-19.
  
 Gaussian, Inc.
 340 Quinnipiac St., Bldg. 40, Wallingford CT 06492
  
  
 ---------------------------------------------------------------
 Warning -- This program may not be used in any manner that
 competes with the business of Gaussian, Inc. or will provide
 assistance to any competitor of Gaussian, Inc.  The licensee
 of this program is prohibited from giving any competitor of
 Gaussian, Inc. access to this program.  By using this program,
 the user acknowledges that Gaussian, Inc. is engaged in the
 business of creating and licensing software in the field of
 computational chemistry and represents and warrants to the
 licensee that it is not a competitor of Gaussian, Inc. and that
 it will not use this program in any manner prohibited above.
 ---------------------------------------------------------------
  

 Cite this work as:
 Gaussian 16, Revision A.03,
 M. J. Frisch, G. W. Trucks, H. B. Schlegel, G. E. Scuseria, 
 M. A. Robb, J. R. Cheeseman, G. Scalmani, V. Barone, 
 G. A. Petersson, H. Nakatsuji, X. Li, M. Caricato, A. V. Marenich, 
 J. Bloino, B. G. Janesko, R. Gomperts, B. Mennucci, H. P. Hratchian, 
 J. V. Ortiz, A. F. Izmaylov, J. L. Sonnenberg, D. Williams-Young, 
 F. Ding, F. Lipparini, F. Egidi, J. Goings, B. Peng, A. Petrone, 
 T. Henderson, D. Ranasinghe, V. G. Zakrzewski, J. Gao, N. Rega, 
 G. Zheng, W. Liang, M. Hada, M. Ehara, K. Toyota, R. Fukuda, 
 J. Hasegawa, M. Ishida, T. Nakajima, Y. Honda, O. Kitao, H. Nakai, 
 T. Vreven, K. Throssell, J. A. Montgomery, Jr., J. E. Peralta, 
 F. Ogliaro, M. J. Bearpark, J. J. Heyd, E. N. Brothers, K. N. Kudin, 
 V. N. Staroverov, T. A. Keith, R. Kobayashi, J. Normand, 
 K. Raghavachari, A. P. Rendell, J. C. Burant, S. S. Iyengar, 
 J. Tomasi, M. Cossi, J. M. Millam, M. Klene, C. Adamo, R. Cammi, 
 J. W. Ochterski, R. L. Martin, K. Morokuma, O. Farkas, 
 J. B. Foresman, and D. J. Fox, Gaussian, Inc., Wallingford CT, 2016.
 
 ******************************************
 Gaussian 16:  ES64L-G16RevA.03 25-Dec-2016
                27-Jun-2022 
 ******************************************
 %mem=10GB
 %chk=16_addons_C84_14_Cl22_rank_2.chk
 %nprocshared=24
 Will use up to   24 processors via shared memory.
 ------------------------------------------------
 #P opt b3lyp/6-31G(d, p) empiricaldispersion=GD3
 ------------------------------------------------
 1/18=20,19=15,26=3,38=1/1,3;
 2/9=110,12=2,17=6,18=5,40=1/2;
 3/5=1,6=6,7=101,11=2,25=1,30=1,71=1,74=-5,124=31/1,2,3;
 4//1;
 5/5=2,38=5/2;
 6/7=2,8=2,9=2,10=2,28=1/1;
 7//1,2,3,16;
 1/18=20,19=15,26=3/3(2);
 2/9=110/2;
 99//99;
 2/9=110/2;
 3/5=1,6=6,7=101,11=2,25=1,30=1,71=1,74=-5,124=31/1,2,3;
 4/5=5,16=3,69=1/1;
 5/5=2,38=5/2;
 7//1,2,3,16;
 1/18=20,19=15,26=3/3(-5);
 2/9=110/2;
 6/7=2,8=2,9=2,10=2,19=2,28=1/1;
 99/9=1/99;
 Leave Link    1 at Mon Jun 27 22:27:20 2022, MaxMem=  1342177280 cpu:               0.6 elap:               0.1
 (Enter /home/mkliu/g16/l101.exe)
 -----
 force
 -----
 Symbolic Z-matrix:
 Charge =  0 Multiplicity = 1
 C                     8.22919   18.66356   10.59648 
 C                     12.46563   20.02086   8.9126 
 C                     8.26557   26.84476   10.53403 
 C                     12.47917   25.75227   8.91022 
 C                     7.96015   18.98518   9.15082 
 C                     11.8559   19.61086   10.21779 
 C                     7.94977   26.80085   9.15027 
 C                     11.87924   26.18206   10.21671 
 C                     8.95617   19.1747   8.17065 
 C                     12.11235   20.26061   11.39334 
 C                     12.1391   25.53982   11.37921 
 C                     8.95055   26.6255   8.16804 
 C                     10.28971   19.11267   8.61026 
 C                     10.28269   26.67355   8.62865 
 C                     10.60225   19.01637   10.02324 
 C                     10.60321   26.78656   9.99893 
 C                     9.62489   19.02281   11.01251 
 C                     9.59822   26.77932   10.99413 
 C                     9.89549   19.68421   12.21846 
 C                     9.86469   26.09759   12.22225 
 C                     8.77644   20.08703   13.13816 
 C                     8.78489   25.50484   12.89842 
 C                     7.47287   20.19606   12.39413 
 C                     7.45206   25.5757   12.40441 
 C                     7.21948   19.54597   11.27097 
 C                     7.19477   26.24375   11.25409 
 C                     6.13198   19.9889   10.33226 
 C                     6.08873   25.81999   10.33068 
 C                     6.72969   19.6005   9.02073 
 C                     6.66196   26.22002   9.00419 
 C                     6.40905   20.26719   7.85841 
 C                     6.35977   25.55447   7.86703 
 C                     7.33512   20.3575   6.8229 
 C                     7.32662   25.44082   6.82756 
 C                     8.67606   19.92549   6.98677 
 C                     8.65876   25.88146   6.98459 
 C                     9.73189   20.62611   6.32651 
 C                     9.71496   25.1494   6.32762 
 C                     11.02463   20.59778   6.8423 
 C                     12.6422   22.18763   7.78987 
 C                     12.64744   23.57529   7.79069 
 C                     11.0499   25.19067   6.86551 
 C                     11.30011   19.80885   7.96501 
 C                     12.81142   21.48249   8.96797 
 C                     12.8187   24.28523   8.96395 
 C                     11.31906   25.96382   7.95683 
 C                     13.03368   22.18222   10.16515 
 C                     13.03471   23.58404   10.15854 
 C                     13.06248   21.41656   11.48121 
 C                     13.05323   24.34823   11.46698 
 C                     12.42642   22.20619   12.58633 
 C                     12.38721   23.54067   12.54808 
 C                     11.13553   20.28479   12.39609 
 C                     11.1318   25.47302   12.39586 
 C                     11.4213   21.3982   13.36394 
 C                     11.28378   24.27758   13.11206 
 C                     8.96075   21.50355   13.60788 
 C                     8.93752   24.26523   13.58295 
 C                     7.73987   22.20277   13.49321 
 C                     7.71766   23.5612   13.50803 
 C                     6.69278   21.42211   12.77075 
 C                     6.66527   24.355    12.79205 
 C                     6.24313   22.1956   11.53589 
 C                     6.2334    23.5979   11.53966 
 C                     5.95985   21.50047   10.35672 
 C                     5.94322   24.29796   10.36158 
 C                     5.65276   22.19842   9.17721 
 C                     5.64297   23.60004   9.18066 
 C                     5.45431   21.4277   7.8726 
 C                     5.42694   24.37352   7.87791 
 C                     5.96052   22.22514   6.70519 
 C                     5.94752   23.58377   6.71066 
 C                     7.01888   21.5295   6.04574 
 C                     7.00938   24.28324   6.07536 
 C                     8.00927   22.18409   5.36471 
 C                     8.03267   23.59818   5.41918 
 C                     9.40246   21.63718   5.24805 
 C                     9.37107   24.05459   5.52371 
 C                     12.06801   21.63661   6.50649 
 C                     12.05948   24.1266   6.52074 
 C                     10.22615   22.8901   5.42802 
 C                     11.4581   22.88181   5.93872 
 C                     10.16788   22.16287   13.67861 
 C                     10.17136   23.58657   13.64915 
 Cl                    4.552     19.20443   10.68802 
 Cl                    3.72248   20.9663   7.73566 
 Cl                    3.68786   24.80064   7.74692 
 Cl                    4.50192   26.56759   10.71146 
 Cl                    5.24396   21.04684   13.7737 
 Cl                    5.21104   24.70542   13.78628 
 Cl                    14.76187   20.92463   11.82898 
 Cl                    14.75294   24.78181   11.87112 
 Cl                    13.90798   19.04927   8.45585 
 Cl                    13.34849   20.92083   5.45486 
 Cl                    13.93122   26.70858   8.44368 
 Cl                    13.34434   24.81538   5.44129 
 Cl                    9.69866   20.86969   3.6335 
 Cl                    7.93147   16.90608   10.93909 
 Cl                    8.66238   18.934    14.52463 
 Cl                    12.1486   20.7545   14.90222 
 
 ITRead=  0  0  0  0  0  0  0  0  0  0  0  0  0  0  0  0  0  0  0  0
 ITRead=  0  0  0  0  0  0  0  0  0  0  0  0  0  0  0  0  0  0  0  0
 ITRead=  0  0  0  0  0  0  0  0  0  0  0  0  0  0  0  0  0  0  0  0
 ITRead=  0  0  0  0  0  0  0  0  0  0  0  0  0  0  0  0  0  0  0  0
 ITRead=  0  0  0  0  0  0  0  0  0  0  0  0  0  0  0  0  0  0  0  0
 MicOpt= -1 -1 -1 -1 -1 -1 -1 -1 -1 -1 -1 -1 -1 -1 -1 -1 -1 -1 -1 -1
 MicOpt= -1 -1 -1 -1 -1 -1 -1 -1 -1 -1 -1 -1 -1 -1 -1 -1 -1 -1 -1 -1
 MicOpt= -1 -1 -1 -1 -1 -1 -1 -1 -1 -1 -1 -1 -1 -1 -1 -1 -1 -1 -1 -1
 MicOpt= -1 -1 -1 -1 -1 -1 -1 -1 -1 -1 -1 -1 -1 -1 -1 -1 -1 -1 -1 -1
 MicOpt= -1 -1 -1 -1 -1 -1 -1 -1 -1 -1 -1 -1 -1 -1 -1 -1 -1 -1 -1 -1
 NAtoms=    100 NQM=      100 NQMF=       0 NMMI=      0 NMMIF=      0
                NMic=       0 NMicF=      0.
                    Isotopes and Nuclear Properties:
 (Nuclear quadrupole moments (NQMom) in fm**2, nuclear magnetic moments (NMagM)
  in nuclear magnetons)

  Atom         1           2           3           4           5           6           7           8           9          10
 IAtWgt=          12          12          12          12          12          12          12          12          12          12
 AtmWgt=  12.0000000  12.0000000  12.0000000  12.0000000  12.0000000  12.0000000  12.0000000  12.0000000  12.0000000  12.0000000
 NucSpn=           0           0           0           0           0           0           0           0           0           0
 AtZEff=  -0.0000000  -0.0000000  -0.0000000  -0.0000000  -0.0000000  -0.0000000  -0.0000000  -0.0000000  -0.0000000  -0.0000000
 NQMom=    0.0000000   0.0000000   0.0000000   0.0000000   0.0000000   0.0000000   0.0000000   0.0000000   0.0000000   0.0000000
 NMagM=    0.0000000   0.0000000   0.0000000   0.0000000   0.0000000   0.0000000   0.0000000   0.0000000   0.0000000   0.0000000
 AtZNuc=   6.0000000   6.0000000   6.0000000   6.0000000   6.0000000   6.0000000   6.0000000   6.0000000   6.0000000   6.0000000

  Atom        11          12          13          14          15          16          17          18          19          20
 IAtWgt=          12          12          12          12          12          12          12          12          12          12
 AtmWgt=  12.0000000  12.0000000  12.0000000  12.0000000  12.0000000  12.0000000  12.0000000  12.0000000  12.0000000  12.0000000
 NucSpn=           0           0           0           0           0           0           0           0           0           0
 AtZEff=  -0.0000000  -0.0000000  -0.0000000  -0.0000000  -0.0000000  -0.0000000  -0.0000000  -0.0000000  -0.0000000  -0.0000000
 NQMom=    0.0000000   0.0000000   0.0000000   0.0000000   0.0000000   0.0000000   0.0000000   0.0000000   0.0000000   0.0000000
 NMagM=    0.0000000   0.0000000   0.0000000   0.0000000   0.0000000   0.0000000   0.0000000   0.0000000   0.0000000   0.0000000
 AtZNuc=   6.0000000   6.0000000   6.0000000   6.0000000   6.0000000   6.0000000   6.0000000   6.0000000   6.0000000   6.0000000

  Atom        21          22          23          24          25          26          27          28          29          30
 IAtWgt=          12          12          12          12          12          12          12          12          12          12
 AtmWgt=  12.0000000  12.0000000  12.0000000  12.0000000  12.0000000  12.0000000  12.0000000  12.0000000  12.0000000  12.0000000
 NucSpn=           0           0           0           0           0           0           0           0           0           0
 AtZEff=  -0.0000000  -0.0000000  -0.0000000  -0.0000000  -0.0000000  -0.0000000  -0.0000000  -0.0000000  -0.0000000  -0.0000000
 NQMom=    0.0000000   0.0000000   0.0000000   0.0000000   0.0000000   0.0000000   0.0000000   0.0000000   0.0000000   0.0000000
 NMagM=    0.0000000   0.0000000   0.0000000   0.0000000   0.0000000   0.0000000   0.0000000   0.0000000   0.0000000   0.0000000
 AtZNuc=   6.0000000   6.0000000   6.0000000   6.0000000   6.0000000   6.0000000   6.0000000   6.0000000   6.0000000   6.0000000

  Atom        31          32          33          34          35          36          37          38          39          40
 IAtWgt=          12          12          12          12          12          12          12          12          12          12
 AtmWgt=  12.0000000  12.0000000  12.0000000  12.0000000  12.0000000  12.0000000  12.0000000  12.0000000  12.0000000  12.0000000
 NucSpn=           0           0           0           0           0           0           0           0           0           0
 AtZEff=  -0.0000000  -0.0000000  -0.0000000  -0.0000000  -0.0000000  -0.0000000  -0.0000000  -0.0000000  -0.0000000  -0.0000000
 NQMom=    0.0000000   0.0000000   0.0000000   0.0000000   0.0000000   0.0000000   0.0000000   0.0000000   0.0000000   0.0000000
 NMagM=    0.0000000   0.0000000   0.0000000   0.0000000   0.0000000   0.0000000   0.0000000   0.0000000   0.0000000   0.0000000
 AtZNuc=   6.0000000   6.0000000   6.0000000   6.0000000   6.0000000   6.0000000   6.0000000   6.0000000   6.0000000   6.0000000

  Atom        41          42          43          44          45          46          47          48          49          50
 IAtWgt=          12          12          12          12          12          12          12          12          12          12
 AtmWgt=  12.0000000  12.0000000  12.0000000  12.0000000  12.0000000  12.0000000  12.0000000  12.0000000  12.0000000  12.0000000
 NucSpn=           0           0           0           0           0           0           0           0           0           0
 AtZEff=  -0.0000000  -0.0000000  -0.0000000  -0.0000000  -0.0000000  -0.0000000  -0.0000000  -0.0000000  -0.0000000  -0.0000000
 NQMom=    0.0000000   0.0000000   0.0000000   0.0000000   0.0000000   0.0000000   0.0000000   0.0000000   0.0000000   0.0000000
 NMagM=    0.0000000   0.0000000   0.0000000   0.0000000   0.0000000   0.0000000   0.0000000   0.0000000   0.0000000   0.0000000
 AtZNuc=   6.0000000   6.0000000   6.0000000   6.0000000   6.0000000   6.0000000   6.0000000   6.0000000   6.0000000   6.0000000

  Atom        51          52          53          54          55          56          57          58          59          60
 IAtWgt=          12          12          12          12          12          12          12          12          12          12
 AtmWgt=  12.0000000  12.0000000  12.0000000  12.0000000  12.0000000  12.0000000  12.0000000  12.0000000  12.0000000  12.0000000
 NucSpn=           0           0           0           0           0           0           0           0           0           0
 AtZEff=  -0.0000000  -0.0000000  -0.0000000  -0.0000000  -0.0000000  -0.0000000  -0.0000000  -0.0000000  -0.0000000  -0.0000000
 NQMom=    0.0000000   0.0000000   0.0000000   0.0000000   0.0000000   0.0000000   0.0000000   0.0000000   0.0000000   0.0000000
 NMagM=    0.0000000   0.0000000   0.0000000   0.0000000   0.0000000   0.0000000   0.0000000   0.0000000   0.0000000   0.0000000
 AtZNuc=   6.0000000   6.0000000   6.0000000   6.0000000   6.0000000   6.0000000   6.0000000   6.0000000   6.0000000   6.0000000

  Atom        61          62          63          64          65          66          67          68          69          70
 IAtWgt=          12          12          12          12          12          12          12          12          12          12
 AtmWgt=  12.0000000  12.0000000  12.0000000  12.0000000  12.0000000  12.0000000  12.0000000  12.0000000  12.0000000  12.0000000
 NucSpn=           0           0           0           0           0           0           0           0           0           0
 AtZEff=  -0.0000000  -0.0000000  -0.0000000  -0.0000000  -0.0000000  -0.0000000  -0.0000000  -0.0000000  -0.0000000  -0.0000000
 NQMom=    0.0000000   0.0000000   0.0000000   0.0000000   0.0000000   0.0000000   0.0000000   0.0000000   0.0000000   0.0000000
 NMagM=    0.0000000   0.0000000   0.0000000   0.0000000   0.0000000   0.0000000   0.0000000   0.0000000   0.0000000   0.0000000
 AtZNuc=   6.0000000   6.0000000   6.0000000   6.0000000   6.0000000   6.0000000   6.0000000   6.0000000   6.0000000   6.0000000

  Atom        71          72          73          74          75          76          77          78          79          80
 IAtWgt=          12          12          12          12          12          12          12          12          12          12
 AtmWgt=  12.0000000  12.0000000  12.0000000  12.0000000  12.0000000  12.0000000  12.0000000  12.0000000  12.0000000  12.0000000
 NucSpn=           0           0           0           0           0           0           0           0           0           0
 AtZEff=  -0.0000000  -0.0000000  -0.0000000  -0.0000000  -0.0000000  -0.0000000  -0.0000000  -0.0000000  -0.0000000  -0.0000000
 NQMom=    0.0000000   0.0000000   0.0000000   0.0000000   0.0000000   0.0000000   0.0000000   0.0000000   0.0000000   0.0000000
 NMagM=    0.0000000   0.0000000   0.0000000   0.0000000   0.0000000   0.0000000   0.0000000   0.0000000   0.0000000   0.0000000
 AtZNuc=   6.0000000   6.0000000   6.0000000   6.0000000   6.0000000   6.0000000   6.0000000   6.0000000   6.0000000   6.0000000

  Atom        81          82          83          84          85          86          87          88          89          90
 IAtWgt=          12          12          12          12          35          35          35          35          35          35
 AtmWgt=  12.0000000  12.0000000  12.0000000  12.0000000  34.9688527  34.9688527  34.9688527  34.9688527  34.9688527  34.9688527
 NucSpn=           0           0           0           0           3           3           3           3           3           3
 AtZEff=  -0.0000000  -0.0000000  -0.0000000  -0.0000000  -0.0000000  -0.0000000  -0.0000000  -0.0000000  -0.0000000  -0.0000000
 NQMom=    0.0000000   0.0000000   0.0000000   0.0000000  -8.1650000  -8.1650000  -8.1650000  -8.1650000  -8.1650000  -8.1650000
 NMagM=    0.0000000   0.0000000   0.0000000   0.0000000   0.8218740   0.8218740   0.8218740   0.8218740   0.8218740   0.8218740
 AtZNuc=   6.0000000   6.0000000   6.0000000   6.0000000  17.0000000  17.0000000  17.0000000  17.0000000  17.0000000  17.0000000

  Atom        91          92          93          94          95          96          97          98          99         100
 IAtWgt=          35          35          35          35          35          35          35          35          35          35
 AtmWgt=  34.9688527  34.9688527  34.9688527  34.9688527  34.9688527  34.9688527  34.9688527  34.9688527  34.9688527  34.9688527
 NucSpn=           3           3           3           3           3           3           3           3           3           3
 AtZEff=  -0.0000000  -0.0000000  -0.0000000  -0.0000000  -0.0000000  -0.0000000  -0.0000000  -0.0000000  -0.0000000  -0.0000000
 NQMom=   -8.1650000  -8.1650000  -8.1650000  -8.1650000  -8.1650000  -8.1650000  -8.1650000  -8.1650000  -8.1650000  -8.1650000
 NMagM=    0.8218740   0.8218740   0.8218740   0.8218740   0.8218740   0.8218740   0.8218740   0.8218740   0.8218740   0.8218740
 AtZNuc=  17.0000000  17.0000000  17.0000000  17.0000000  17.0000000  17.0000000  17.0000000  17.0000000  17.0000000  17.0000000
 Leave Link  101 at Mon Jun 27 22:27:21 2022, MaxMem=  1342177280 cpu:               6.7 elap:               0.3
 (Enter /home/mkliu/g16/l103.exe)

 GradGradGradGradGradGradGradGradGradGradGradGradGradGradGradGradGradGrad
 Berny optimization.
 Initialization pass.
                           ----------------------------
                           !    Initial Parameters    !
                           ! (Angstroms and Degrees)  !
 --------------------------                            --------------------------
 ! Name  Definition              Value          Derivative Info.                !
 --------------------------------------------------------------------------------
 ! R1    R(1,5)                  1.5052         estimate D2E/DX2                !
 ! R2    R(1,17)                 1.5            estimate D2E/DX2                !
 ! R3    R(1,25)                 1.501          estimate D2E/DX2                !
 ! R4    R(1,98)                 1.8151         estimate D2E/DX2                !
 ! R5    R(2,6)                  1.4978         estimate D2E/DX2                !
 ! R6    R(2,43)                 1.517          estimate D2E/DX2                !
 ! R7    R(2,44)                 1.503          estimate D2E/DX2                !
 ! R8    R(2,93)                 1.7981         estimate D2E/DX2                !
 ! R9    R(3,7)                  1.42           estimate D2E/DX2                !
 ! R10   R(3,18)                 1.4114         estimate D2E/DX2                !
 ! R11   R(3,26)                 1.4235         estimate D2E/DX2                !
 ! R12   R(4,8)                  1.5005         estimate D2E/DX2                !
 ! R13   R(4,45)                 1.5068         estimate D2E/DX2                !
 ! R14   R(4,46)                 1.5164         estimate D2E/DX2                !
 ! R15   R(4,95)                 1.8002         estimate D2E/DX2                !
 ! R16   R(5,9)                  1.4102         estimate D2E/DX2                !
 ! R17   R(5,29)                 1.3819         estimate D2E/DX2                !
 ! R18   R(6,10)                 1.3674         estimate D2E/DX2                !
 ! R19   R(6,15)                 1.401          estimate D2E/DX2                !
 ! R20   R(7,12)                 1.4132         estimate D2E/DX2                !
 ! R21   R(7,30)                 1.4203         estimate D2E/DX2                !
 ! R22   R(8,11)                 1.3533         estimate D2E/DX2                !
 ! R23   R(8,16)                 1.4287         estimate D2E/DX2                !
 ! R24   R(9,13)                 1.4055         estimate D2E/DX2                !
 ! R25   R(9,35)                 1.4296         estimate D2E/DX2                !
 ! R26   R(10,49)                1.4989         estimate D2E/DX2                !
 ! R27   R(10,53)                1.4001         estimate D2E/DX2                !
 ! R28   R(11,50)                1.5044         estimate D2E/DX2                !
 ! R29   R(11,54)                1.4327         estimate D2E/DX2                !
 ! R30   R(12,14)                1.4103         estimate D2E/DX2                !
 ! R31   R(12,36)                1.428          estimate D2E/DX2                !
 ! R32   R(13,15)                1.4503         estimate D2E/DX2                !
 ! R33   R(13,43)                1.3863         estimate D2E/DX2                !
 ! R34   R(14,16)                1.4118         estimate D2E/DX2                !
 ! R35   R(14,46)                1.4245         estimate D2E/DX2                !
 ! R36   R(15,17)                1.3907         estimate D2E/DX2                !
 ! R37   R(16,18)                1.4144         estimate D2E/DX2                !
 ! R38   R(17,19)                1.4018         estimate D2E/DX2                !
 ! R39   R(18,20)                1.4297         estimate D2E/DX2                !
 ! R40   R(19,21)                1.5035         estimate D2E/DX2                !
 ! R41   R(19,53)                1.3892         estimate D2E/DX2                !
 ! R42   R(20,22)                1.4052         estimate D2E/DX2                !
 ! R43   R(20,54)                1.4233         estimate D2E/DX2                !
 ! R44   R(21,23)                1.5049         estimate D2E/DX2                !
 ! R45   R(21,57)                1.5037         estimate D2E/DX2                !
 ! R46   R(21,99)                1.8069         estimate D2E/DX2                !
 ! R47   R(22,24)                1.4232         estimate D2E/DX2                !
 ! R48   R(22,58)                1.4243         estimate D2E/DX2                !
 ! R49   R(23,25)                1.3222         estimate D2E/DX2                !
 ! R50   R(23,61)                1.5012         estimate D2E/DX2                !
 ! R51   R(24,26)                1.3549         estimate D2E/DX2                !
 ! R52   R(24,62)                1.5031         estimate D2E/DX2                !
 ! R53   R(25,27)                1.5033         estimate D2E/DX2                !
 ! R54   R(26,28)                1.5019         estimate D2E/DX2                !
 ! R55   R(27,29)                1.4927         estimate D2E/DX2                !
 ! R56   R(27,65)                1.5215         estimate D2E/DX2                !
 ! R57   R(27,85)                1.7995         estimate D2E/DX2                !
 ! R58   R(28,30)                1.4994         estimate D2E/DX2                !
 ! R59   R(28,66)                1.5293         estimate D2E/DX2                !
 ! R60   R(28,88)                1.795          estimate D2E/DX2                !
 ! R61   R(29,31)                1.3778         estimate D2E/DX2                !
 ! R62   R(30,32)                1.3518         estimate D2E/DX2                !
 ! R63   R(31,33)                1.3921         estimate D2E/DX2                !
 ! R64   R(31,69)                1.5028         estimate D2E/DX2                !
 ! R65   R(32,34)                1.4242         estimate D2E/DX2                !
 ! R66   R(32,70)                1.505          estimate D2E/DX2                !
 ! R67   R(33,35)                1.4183         estimate D2E/DX2                !
 ! R68   R(33,73)                1.4414         estimate D2E/DX2                !
 ! R69   R(34,36)                1.4119         estimate D2E/DX2                !
 ! R70   R(34,74)                1.4165         estimate D2E/DX2                !
 ! R71   R(35,37)                1.4288         estimate D2E/DX2                !
 ! R72   R(36,38)                1.4433         estimate D2E/DX2                !
 ! R73   R(37,39)                1.3921         estimate D2E/DX2                !
 ! R74   R(37,77)                1.5146         estimate D2E/DX2                !
 ! R75   R(38,42)                1.4398         estimate D2E/DX2                !
 ! R76   R(38,78)                1.4011         estimate D2E/DX2                !
 ! R77   R(39,43)                1.3996         estimate D2E/DX2                !
 ! R78   R(39,79)                1.5102         estimate D2E/DX2                !
 ! R79   R(40,41)                1.3877         estimate D2E/DX2                !
 ! R80   R(40,44)                1.3834         estimate D2E/DX2                !
 ! R81   R(40,79)                1.5101         estimate D2E/DX2                !
 ! R82   R(41,45)                1.382          estimate D2E/DX2                !
 ! R83   R(41,80)                1.5041         estimate D2E/DX2                !
 ! R84   R(42,46)                1.3642         estimate D2E/DX2                !
 ! R85   R(42,80)                1.5068         estimate D2E/DX2                !
 ! R86   R(44,47)                1.4044         estimate D2E/DX2                !
 ! R87   R(45,48)                1.4019         estimate D2E/DX2                !
 ! R88   R(47,48)                1.4018         estimate D2E/DX2                !
 ! R89   R(47,49)                1.5229         estimate D2E/DX2                !
 ! R90   R(48,50)                1.5154         estimate D2E/DX2                !
 ! R91   R(49,51)                1.4998         estimate D2E/DX2                !
 ! R92   R(49,91)                1.803          estimate D2E/DX2                !
 ! R93   R(50,52)                1.5048         estimate D2E/DX2                !
 ! R94   R(50,92)                1.8001         estimate D2E/DX2                !
 ! R95   R(51,52)                1.3356         estimate D2E/DX2                !
 ! R96   R(51,55)                1.5059         estimate D2E/DX2                !
 ! R97   R(52,56)                1.4418         estimate D2E/DX2                !
 ! R98   R(53,55)                1.5027         estimate D2E/DX2                !
 ! R99   R(54,56)                1.4018         estimate D2E/DX2                !
 ! R100  R(55,83)                1.5016         estimate D2E/DX2                !
 ! R101  R(55,100)               1.8192         estimate D2E/DX2                !
 ! R102  R(56,84)                1.4154         estimate D2E/DX2                !
 ! R103  R(57,59)                1.4116         estimate D2E/DX2                !
 ! R104  R(57,83)                1.3773         estimate D2E/DX2                !
 ! R105  R(58,60)                1.4104         estimate D2E/DX2                !
 ! R106  R(58,84)                1.4097         estimate D2E/DX2                !
 ! R107  R(59,60)                1.3587         estimate D2E/DX2                !
 ! R108  R(59,61)                1.4926         estimate D2E/DX2                !
 ! R109  R(60,62)                1.5001         estimate D2E/DX2                !
 ! R110  R(61,63)                1.5249         estimate D2E/DX2                !
 ! R111  R(61,89)                1.8016         estimate D2E/DX2                !
 ! R112  R(62,64)                1.5258         estimate D2E/DX2                !
 ! R113  R(62,90)                1.7961         estimate D2E/DX2                !
 ! R114  R(63,64)                1.4023         estimate D2E/DX2                !
 ! R115  R(63,65)                1.3978         estimate D2E/DX2                !
 ! R116  R(64,66)                1.4008         estimate D2E/DX2                !
 ! R117  R(65,67)                1.4045         estimate D2E/DX2                !
 ! R118  R(66,68)                1.4042         estimate D2E/DX2                !
 ! R119  R(67,68)                1.4017         estimate D2E/DX2                !
 ! R120  R(67,69)                1.5282         estimate D2E/DX2                !
 ! R121  R(68,70)                1.5304         estimate D2E/DX2                !
 ! R122  R(69,71)                1.5017         estimate D2E/DX2                !
 ! R123  R(69,86)                1.7975         estimate D2E/DX2                !
 ! R124  R(70,72)                1.5024         estimate D2E/DX2                !
 ! R125  R(70,87)                1.7956         estimate D2E/DX2                !
 ! R126  R(71,72)                1.3587         estimate D2E/DX2                !
 ! R127  R(71,73)                1.4279         estimate D2E/DX2                !
 ! R128  R(72,74)                1.4214         estimate D2E/DX2                !
 ! R129  R(73,75)                1.3686         estimate D2E/DX2                !
 ! R130  R(74,76)                1.3954         estimate D2E/DX2                !
 ! R131  R(75,76)                1.4153         estimate D2E/DX2                !
 ! R132  R(75,77)                1.5012         estimate D2E/DX2                !
 ! R133  R(76,78)                1.4179         estimate D2E/DX2                !
 ! R134  R(77,81)                1.5102         estimate D2E/DX2                !
 ! R135  R(77,97)                1.8121         estimate D2E/DX2                !
 ! R136  R(78,81)                1.4479         estimate D2E/DX2                !
 ! R137  R(79,82)                1.4983         estimate D2E/DX2                !
 ! R138  R(79,94)                1.805          estimate D2E/DX2                !
 ! R139  R(80,82)                1.5            estimate D2E/DX2                !
 ! R140  R(80,96)                1.814          estimate D2E/DX2                !
 ! R141  R(81,82)                1.3336         estimate D2E/DX2                !
 ! R142  R(83,84)                1.424          estimate D2E/DX2                !
 ! A1    A(5,1,17)             112.4264         estimate D2E/DX2                !
 ! A2    A(5,1,25)             100.7039         estimate D2E/DX2                !
 ! A3    A(5,1,98)             111.0292         estimate D2E/DX2                !
 ! A4    A(17,1,25)            111.1289         estimate D2E/DX2                !
 ! A5    A(17,1,98)            109.3988         estimate D2E/DX2                !
 ! A6    A(25,1,98)            111.9653         estimate D2E/DX2                !
 ! A7    A(6,2,43)             101.1454         estimate D2E/DX2                !
 ! A8    A(6,2,44)             109.1327         estimate D2E/DX2                !
 ! A9    A(6,2,93)             113.5779         estimate D2E/DX2                !
 ! A10   A(43,2,44)            109.6145         estimate D2E/DX2                !
 ! A11   A(43,2,93)            112.4648         estimate D2E/DX2                !
 ! A12   A(44,2,93)            110.5049         estimate D2E/DX2                !
 ! A13   A(7,3,18)             121.7512         estimate D2E/DX2                !
 ! A14   A(7,3,26)             108.2144         estimate D2E/DX2                !
 ! A15   A(18,3,26)            121.7229         estimate D2E/DX2                !
 ! A16   A(8,4,45)             109.7498         estimate D2E/DX2                !
 ! A17   A(8,4,46)             101.6296         estimate D2E/DX2                !
 ! A18   A(8,4,95)             113.3276         estimate D2E/DX2                !
 ! A19   A(45,4,46)            109.3076         estimate D2E/DX2                !
 ! A20   A(45,4,95)            110.1639         estimate D2E/DX2                !
 ! A21   A(46,4,95)            112.3357         estimate D2E/DX2                !
 ! A22   A(1,5,9)              124.7514         estimate D2E/DX2                !
 ! A23   A(1,5,29)             110.1637         estimate D2E/DX2                !
 ! A24   A(9,5,29)             120.2402         estimate D2E/DX2                !
 ! A25   A(2,6,10)             122.8685         estimate D2E/DX2                !
 ! A26   A(2,6,15)             111.0639         estimate D2E/DX2                !
 ! A27   A(10,6,15)            119.2626         estimate D2E/DX2                !
 ! A28   A(3,7,12)             121.577          estimate D2E/DX2                !
 ! A29   A(3,7,30)             108.3323         estimate D2E/DX2                !
 ! A30   A(12,7,30)            121.3252         estimate D2E/DX2                !
 ! A31   A(4,8,11)             122.36           estimate D2E/DX2                !
 ! A32   A(4,8,16)             110.2165         estimate D2E/DX2                !
 ! A33   A(11,8,16)            120.2154         estimate D2E/DX2                !
 ! A34   A(5,9,13)             116.5386         estimate D2E/DX2                !
 ! A35   A(5,9,35)             120.5162         estimate D2E/DX2                !
 ! A36   A(13,9,35)            117.911          estimate D2E/DX2                !
 ! A37   A(6,10,49)            122.393          estimate D2E/DX2                !
 ! A38   A(6,10,53)            119.542          estimate D2E/DX2                !
 ! A39   A(49,10,53)           112.7644         estimate D2E/DX2                !
 ! A40   A(8,11,50)            122.8667         estimate D2E/DX2                !
 ! A41   A(8,11,54)            119.7801         estimate D2E/DX2                !
 ! A42   A(50,11,54)           110.419          estimate D2E/DX2                !
 ! A43   A(7,12,14)            115.9559         estimate D2E/DX2                !
 ! A44   A(7,12,36)            119.7325         estimate D2E/DX2                !
 ! A45   A(14,12,36)           118.7772         estimate D2E/DX2                !
 ! A46   A(9,13,15)            120.8047         estimate D2E/DX2                !
 ! A47   A(9,13,43)            121.5856         estimate D2E/DX2                !
 ! A48   A(15,13,43)           109.2526         estimate D2E/DX2                !
 ! A49   A(12,14,16)           122.2869         estimate D2E/DX2                !
 ! A50   A(12,14,46)           121.0779         estimate D2E/DX2                !
 ! A51   A(16,14,46)           109.4186         estimate D2E/DX2                !
 ! A52   A(6,15,13)            107.4539         estimate D2E/DX2                !
 ! A53   A(6,15,17)            121.8788         estimate D2E/DX2                !
 ! A54   A(13,15,17)           122.7714         estimate D2E/DX2                !
 ! A55   A(8,16,14)            108.4727         estimate D2E/DX2                !
 ! A56   A(8,16,18)            121.6819         estimate D2E/DX2                !
 ! A57   A(14,16,18)           121.4137         estimate D2E/DX2                !
 ! A58   A(1,17,15)            117.098          estimate D2E/DX2                !
 ! A59   A(1,17,19)            122.0874         estimate D2E/DX2                !
 ! A60   A(15,17,19)           118.5879         estimate D2E/DX2                !
 ! A61   A(3,18,16)            116.1872         estimate D2E/DX2                !
 ! A62   A(3,18,20)            118.5632         estimate D2E/DX2                !
 ! A63   A(16,18,20)           118.3227         estimate D2E/DX2                !
 ! A64   A(17,19,21)           120.597          estimate D2E/DX2                !
 ! A65   A(17,19,53)           119.0969         estimate D2E/DX2                !
 ! A66   A(21,19,53)           118.0564         estimate D2E/DX2                !
 ! A67   A(18,20,22)           118.1172         estimate D2E/DX2                !
 ! A68   A(18,20,54)           118.6819         estimate D2E/DX2                !
 ! A69   A(22,20,54)           116.1233         estimate D2E/DX2                !
 ! A70   A(19,21,23)           111.2055         estimate D2E/DX2                !
 ! A71   A(19,21,57)           110.625          estimate D2E/DX2                !
 ! A72   A(19,21,99)           110.2063         estimate D2E/DX2                !
 ! A73   A(23,21,57)           101.0907         estimate D2E/DX2                !
 ! A74   A(23,21,99)           111.7728         estimate D2E/DX2                !
 ! A75   A(57,21,99)           111.6645         estimate D2E/DX2                !
 ! A76   A(20,22,24)           122.1142         estimate D2E/DX2                !
 ! A77   A(20,22,58)           121.0692         estimate D2E/DX2                !
 ! A78   A(24,22,58)           108.091          estimate D2E/DX2                !
 ! A79   A(21,23,25)           123.3901         estimate D2E/DX2                !
 ! A80   A(21,23,61)           112.6601         estimate D2E/DX2                !
 ! A81   A(25,23,61)           121.0022         estimate D2E/DX2                !
 ! A82   A(22,24,26)           119.8081         estimate D2E/DX2                !
 ! A83   A(22,24,62)           111.1152         estimate D2E/DX2                !
 ! A84   A(26,24,62)           121.3299         estimate D2E/DX2                !
 ! A85   A(1,25,23)            122.8078         estimate D2E/DX2                !
 ! A86   A(1,25,27)            112.286          estimate D2E/DX2                !
 ! A87   A(23,25,27)           121.6123         estimate D2E/DX2                !
 ! A88   A(3,26,24)            119.6561         estimate D2E/DX2                !
 ! A89   A(3,26,28)            111.2292         estimate D2E/DX2                !
 ! A90   A(24,26,28)           121.5164         estimate D2E/DX2                !
 ! A91   A(25,27,29)           100.5035         estimate D2E/DX2                !
 ! A92   A(25,27,65)           111.3768         estimate D2E/DX2                !
 ! A93   A(25,27,85)           112.5353         estimate D2E/DX2                !
 ! A94   A(29,27,65)           108.5371         estimate D2E/DX2                !
 ! A95   A(29,27,85)           114.3201         estimate D2E/DX2                !
 ! A96   A(65,27,85)           109.3037         estimate D2E/DX2                !
 ! A97   A(26,28,30)           100.7843         estimate D2E/DX2                !
 ! A98   A(26,28,66)           109.7834         estimate D2E/DX2                !
 ! A99   A(26,28,88)           113.7719         estimate D2E/DX2                !
 ! A100  A(30,28,66)           108.6496         estimate D2E/DX2                !
 ! A101  A(30,28,88)           114.4899         estimate D2E/DX2                !
 ! A102  A(66,28,88)           109.0339         estimate D2E/DX2                !
 ! A103  A(5,29,27)            112.9353         estimate D2E/DX2                !
 ! A104  A(5,29,31)            120.1396         estimate D2E/DX2                !
 ! A105  A(27,29,31)           121.4745         estimate D2E/DX2                !
 ! A106  A(7,30,28)            111.3935         estimate D2E/DX2                !
 ! A107  A(7,30,32)            119.3777         estimate D2E/DX2                !
 ! A108  A(28,30,32)           121.829          estimate D2E/DX2                !
 ! A109  A(29,31,33)           120.2707         estimate D2E/DX2                !
 ! A110  A(29,31,69)           120.9002         estimate D2E/DX2                !
 ! A111  A(33,31,69)           112.3052         estimate D2E/DX2                !
 ! A112  A(30,32,34)           120.1005         estimate D2E/DX2                !
 ! A113  A(30,32,70)           121.2529         estimate D2E/DX2                !
 ! A114  A(34,32,70)           111.3122         estimate D2E/DX2                !
 ! A115  A(31,33,35)           121.5489         estimate D2E/DX2                !
 ! A116  A(31,33,73)           107.93           estimate D2E/DX2                !
 ! A117  A(35,33,73)           121.158          estimate D2E/DX2                !
 ! A118  A(32,34,36)           122.3072         estimate D2E/DX2                !
 ! A119  A(32,34,74)           107.5037         estimate D2E/DX2                !
 ! A120  A(36,34,74)           121.6968         estimate D2E/DX2                !
 ! A121  A(9,35,33)            116.161          estimate D2E/DX2                !
 ! A122  A(9,35,37)            119.6965         estimate D2E/DX2                !
 ! A123  A(33,35,37)           119.7281         estimate D2E/DX2                !
 ! A124  A(12,36,34)           116.5879         estimate D2E/DX2                !
 ! A125  A(12,36,38)           119.4703         estimate D2E/DX2                !
 ! A126  A(34,36,38)           118.786          estimate D2E/DX2                !
 ! A127  A(35,37,39)           120.3315         estimate D2E/DX2                !
 ! A128  A(35,37,77)           119.7126         estimate D2E/DX2                !
 ! A129  A(39,37,77)           118.6456         estimate D2E/DX2                !
 ! A130  A(36,38,42)           119.5974         estimate D2E/DX2                !
 ! A131  A(36,38,78)           118.5478         estimate D2E/DX2                !
 ! A132  A(42,38,78)           117.6654         estimate D2E/DX2                !
 ! A133  A(37,39,43)           119.4367         estimate D2E/DX2                !
 ! A134  A(37,39,79)           123.038          estimate D2E/DX2                !
 ! A135  A(43,39,79)           115.4775         estimate D2E/DX2                !
 ! A136  A(41,40,44)           120.5803         estimate D2E/DX2                !
 ! A137  A(41,40,79)           111.5205         estimate D2E/DX2                !
 ! A138  A(44,40,79)           125.7513         estimate D2E/DX2                !
 ! A139  A(40,41,45)           120.976          estimate D2E/DX2                !
 ! A140  A(40,41,80)           111.3802         estimate D2E/DX2                !
 ! A141  A(45,41,80)           125.2354         estimate D2E/DX2                !
 ! A142  A(38,42,46)           119.8684         estimate D2E/DX2                !
 ! A143  A(38,42,80)           121.0305         estimate D2E/DX2                !
 ! A144  A(46,42,80)           116.8117         estimate D2E/DX2                !
 ! A145  A(2,43,13)            109.8408         estimate D2E/DX2                !
 ! A146  A(2,43,39)            124.9963         estimate D2E/DX2                !
 ! A147  A(13,43,39)           120.863          estimate D2E/DX2                !
 ! A148  A(2,44,40)            115.8596         estimate D2E/DX2                !
 ! A149  A(2,44,47)            123.5288         estimate D2E/DX2                !
 ! A150  A(40,44,47)           119.4296         estimate D2E/DX2                !
 ! A151  A(4,45,41)            116.229          estimate D2E/DX2                !
 ! A152  A(4,45,48)            123.5101         estimate D2E/DX2                !
 ! A153  A(41,45,48)           119.0499         estimate D2E/DX2                !
 ! A154  A(4,46,14)            109.2437         estimate D2E/DX2                !
 ! A155  A(4,46,42)            125.0857         estimate D2E/DX2                !
 ! A156  A(14,46,42)           121.0705         estimate D2E/DX2                !
 ! A157  A(44,47,48)           119.6265         estimate D2E/DX2                !
 ! A158  A(44,47,49)           119.2873         estimate D2E/DX2                !
 ! A159  A(48,47,49)           120.4533         estimate D2E/DX2                !
 ! A160  A(45,48,47)           120.2691         estimate D2E/DX2                !
 ! A161  A(45,48,50)           119.0395         estimate D2E/DX2                !
 ! A162  A(47,48,50)           120.0146         estimate D2E/DX2                !
 ! A163  A(10,49,47)           108.9715         estimate D2E/DX2                !
 ! A164  A(10,49,51)           100.3932         estimate D2E/DX2                !
 ! A165  A(10,49,91)           113.4751         estimate D2E/DX2                !
 ! A166  A(47,49,51)           111.3498         estimate D2E/DX2                !
 ! A167  A(47,49,91)           108.7652         estimate D2E/DX2                !
 ! A168  A(51,49,91)           113.6556         estimate D2E/DX2                !
 ! A169  A(11,50,48)           109.9763         estimate D2E/DX2                !
 ! A170  A(11,50,52)           101.4222         estimate D2E/DX2                !
 ! A171  A(11,50,92)           113.3325         estimate D2E/DX2                !
 ! A172  A(48,50,52)           110.1382         estimate D2E/DX2                !
 ! A173  A(48,50,92)           109.0784         estimate D2E/DX2                !
 ! A174  A(52,50,92)           112.698          estimate D2E/DX2                !
 ! A175  A(49,51,52)           121.1577         estimate D2E/DX2                !
 ! A176  A(49,51,55)           112.3996         estimate D2E/DX2                !
 ! A177  A(52,51,55)           122.0922         estimate D2E/DX2                !
 ! A178  A(50,52,51)           122.941          estimate D2E/DX2                !
 ! A179  A(50,52,56)           110.2104         estimate D2E/DX2                !
 ! A180  A(51,52,56)           121.4636         estimate D2E/DX2                !
 ! A181  A(10,53,19)           121.5818         estimate D2E/DX2                !
 ! A182  A(10,53,55)           109.9628         estimate D2E/DX2                !
 ! A183  A(19,53,55)           124.9194         estimate D2E/DX2                !
 ! A184  A(11,54,20)           121.2586         estimate D2E/DX2                !
 ! A185  A(11,54,56)           109.0306         estimate D2E/DX2                !
 ! A186  A(20,54,56)           122.2116         estimate D2E/DX2                !
 ! A187  A(51,55,53)           101.0632         estimate D2E/DX2                !
 ! A188  A(51,55,83)           113.0861         estimate D2E/DX2                !
 ! A189  A(51,55,100)          111.0777         estimate D2E/DX2                !
 ! A190  A(53,55,83)           110.7043         estimate D2E/DX2                !
 ! A191  A(53,55,100)          111.0061         estimate D2E/DX2                !
 ! A192  A(83,55,100)          109.6762         estimate D2E/DX2                !
 ! A193  A(52,56,54)           108.6017         estimate D2E/DX2                !
 ! A194  A(52,56,84)           120.0265         estimate D2E/DX2                !
 ! A195  A(54,56,84)           121.6672         estimate D2E/DX2                !
 ! A196  A(21,57,59)           109.5865         estimate D2E/DX2                !
 ! A197  A(21,57,83)           125.0598         estimate D2E/DX2                !
 ! A198  A(59,57,83)           121.6745         estimate D2E/DX2                !
 ! A199  A(22,58,60)           108.4348         estimate D2E/DX2                !
 ! A200  A(22,58,84)           122.3683         estimate D2E/DX2                !
 ! A201  A(60,58,84)           121.277          estimate D2E/DX2                !
 ! A202  A(57,59,60)           120.564          estimate D2E/DX2                !
 ! A203  A(57,59,61)           112.7677         estimate D2E/DX2                !
 ! A204  A(60,59,61)           121.1133         estimate D2E/DX2                !
 ! A205  A(58,60,59)           119.0448         estimate D2E/DX2                !
 ! A206  A(58,60,62)           111.591          estimate D2E/DX2                !
 ! A207  A(59,60,62)           122.3666         estimate D2E/DX2                !
 ! A208  A(23,61,59)           100.6056         estimate D2E/DX2                !
 ! A209  A(23,61,63)           111.3667         estimate D2E/DX2                !
 ! A210  A(23,61,89)           112.7948         estimate D2E/DX2                !
 ! A211  A(59,61,63)           109.4836         estimate D2E/DX2                !
 ! A212  A(59,61,89)           113.8059         estimate D2E/DX2                !
 ! A213  A(63,61,89)           108.6227         estimate D2E/DX2                !
 ! A214  A(24,62,60)           100.6967         estimate D2E/DX2                !
 ! A215  A(24,62,64)           109.8428         estimate D2E/DX2                !
 ! A216  A(24,62,90)           114.086          estimate D2E/DX2                !
 ! A217  A(60,62,64)           109.1323         estimate D2E/DX2                !
 ! A218  A(60,62,90)           114.0193         estimate D2E/DX2                !
 ! A219  A(64,62,90)           108.7831         estimate D2E/DX2                !
 ! A220  A(61,63,64)           120.4698         estimate D2E/DX2                !
 ! A221  A(61,63,65)           119.3823         estimate D2E/DX2                !
 ! A222  A(64,63,65)           119.8777         estimate D2E/DX2                !
 ! A223  A(62,64,63)           119.7634         estimate D2E/DX2                !
 ! A224  A(62,64,66)           120.063          estimate D2E/DX2                !
 ! A225  A(63,64,66)           119.9291         estimate D2E/DX2                !
 ! A226  A(27,65,63)           118.9915         estimate D2E/DX2                !
 ! A227  A(27,65,67)           120.325          estimate D2E/DX2                !
 ! A228  A(63,65,67)           120.3726         estimate D2E/DX2                !
 ! A229  A(28,66,64)           119.6487         estimate D2E/DX2                !
 ! A230  A(28,66,68)           119.8689         estimate D2E/DX2                !
 ! A231  A(64,66,68)           120.2109         estimate D2E/DX2                !
 ! A232  A(65,67,68)           119.7602         estimate D2E/DX2                !
 ! A233  A(65,67,69)           119.6499         estimate D2E/DX2                !
 ! A234  A(68,67,69)           120.3658         estimate D2E/DX2                !
 ! A235  A(66,68,67)           119.8405         estimate D2E/DX2                !
 ! A236  A(66,68,70)           119.6611         estimate D2E/DX2                !
 ! A237  A(67,68,70)           120.284          estimate D2E/DX2                !
 ! A238  A(31,69,67)           108.362          estimate D2E/DX2                !
 ! A239  A(31,69,71)           100.8697         estimate D2E/DX2                !
 ! A240  A(31,69,86)           114.4032         estimate D2E/DX2                !
 ! A241  A(67,69,71)           110.6139         estimate D2E/DX2                !
 ! A242  A(67,69,86)           108.6397         estimate D2E/DX2                !
 ! A243  A(71,69,86)           113.6953         estimate D2E/DX2                !
 ! A244  A(32,70,68)           108.3765         estimate D2E/DX2                !
 ! A245  A(32,70,72)           101.0754         estimate D2E/DX2                !
 ! A246  A(32,70,87)           114.4027         estimate D2E/DX2                !
 ! A247  A(68,70,72)           110.2901         estimate D2E/DX2                !
 ! A248  A(68,70,87)           108.6052         estimate D2E/DX2                !
 ! A249  A(72,70,87)           113.8265         estimate D2E/DX2                !
 ! A250  A(69,71,72)           121.6452         estimate D2E/DX2                !
 ! A251  A(69,71,73)           110.4978         estimate D2E/DX2                !
 ! A252  A(72,71,73)           119.7424         estimate D2E/DX2                !
 ! A253  A(70,72,71)           122.1458         estimate D2E/DX2                !
 ! A254  A(70,72,74)           110.3299         estimate D2E/DX2                !
 ! A255  A(71,72,74)           118.8898         estimate D2E/DX2                !
 ! A256  A(33,73,71)           108.0437         estimate D2E/DX2                !
 ! A257  A(33,73,75)           119.8957         estimate D2E/DX2                !
 ! A258  A(71,73,75)           122.2185         estimate D2E/DX2                !
 ! A259  A(34,74,72)           109.3972         estimate D2E/DX2                !
 ! A260  A(34,74,76)           119.1241         estimate D2E/DX2                !
 ! A261  A(72,74,76)           121.0935         estimate D2E/DX2                !
 ! A262  A(73,75,76)           118.0781         estimate D2E/DX2                !
 ! A263  A(73,75,77)           122.4106         estimate D2E/DX2                !
 ! A264  A(76,75,77)           110.5874         estimate D2E/DX2                !
 ! A265  A(74,76,75)           119.7688         estimate D2E/DX2                !
 ! A266  A(74,76,78)           119.9681         estimate D2E/DX2                !
 ! A267  A(75,76,78)           109.8794         estimate D2E/DX2                !
 ! A268  A(37,77,75)           112.9374         estimate D2E/DX2                !
 ! A269  A(37,77,81)           110.5092         estimate D2E/DX2                !
 ! A270  A(37,77,97)           108.4299         estimate D2E/DX2                !
 ! A271  A(75,77,81)           101.2255         estimate D2E/DX2                !
 ! A272  A(75,77,97)           112.0392         estimate D2E/DX2                !
 ! A273  A(81,77,97)           111.6178         estimate D2E/DX2                !
 ! A274  A(38,78,76)           121.7007         estimate D2E/DX2                !
 ! A275  A(38,78,81)           121.4268         estimate D2E/DX2                !
 ! A276  A(76,78,81)           107.0791         estimate D2E/DX2                !
 ! A277  A(39,79,40)           108.9491         estimate D2E/DX2                !
 ! A278  A(39,79,82)           112.0066         estimate D2E/DX2                !
 ! A279  A(39,79,94)           110.2987         estimate D2E/DX2                !
 ! A280  A(40,79,82)            99.9957         estimate D2E/DX2                !
 ! A281  A(40,79,94)           111.7231         estimate D2E/DX2                !
 ! A282  A(82,79,94)           113.4264         estimate D2E/DX2                !
 ! A283  A(41,80,42)           109.1209         estimate D2E/DX2                !
 ! A284  A(41,80,82)           100.3785         estimate D2E/DX2                !
 ! A285  A(41,80,96)           111.3909         estimate D2E/DX2                !
 ! A286  A(42,80,82)           113.9668         estimate D2E/DX2                !
 ! A287  A(42,80,96)           110.0356         estimate D2E/DX2                !
 ! A288  A(82,80,96)           111.6039         estimate D2E/DX2                !
 ! A289  A(77,81,78)           110.672          estimate D2E/DX2                !
 ! A290  A(77,81,82)           122.9781         estimate D2E/DX2                !
 ! A291  A(78,81,82)           121.6842         estimate D2E/DX2                !
 ! A292  A(79,82,80)           112.2997         estimate D2E/DX2                !
 ! A293  A(79,82,81)           121.7564         estimate D2E/DX2                !
 ! A294  A(80,82,81)           120.9164         estimate D2E/DX2                !
 ! A295  A(55,83,57)           118.494          estimate D2E/DX2                !
 ! A296  A(55,83,84)           120.1823         estimate D2E/DX2                !
 ! A297  A(57,83,84)           118.6653         estimate D2E/DX2                !
 ! A298  A(56,84,58)           115.7871         estimate D2E/DX2                !
 ! A299  A(56,84,83)           119.8587         estimate D2E/DX2                !
 ! A300  A(58,84,83)           118.6944         estimate D2E/DX2                !
 ! D1    D(17,1,5,9)            19.9234         estimate D2E/DX2                !
 ! D2    D(17,1,5,29)         -135.2704         estimate D2E/DX2                !
 ! D3    D(25,1,5,9)           138.2748         estimate D2E/DX2                !
 ! D4    D(25,1,5,29)          -16.9191         estimate D2E/DX2                !
 ! D5    D(98,1,5,9)          -103.007          estimate D2E/DX2                !
 ! D6    D(98,1,5,29)          101.7991         estimate D2E/DX2                !
 ! D7    D(5,1,17,15)          -27.4301         estimate D2E/DX2                !
 ! D8    D(5,1,17,19)          135.3637         estimate D2E/DX2                !
 ! D9    D(25,1,17,15)        -139.4484         estimate D2E/DX2                !
 ! D10   D(25,1,17,19)          23.3454         estimate D2E/DX2                !
 ! D11   D(98,1,17,15)          96.4114         estimate D2E/DX2                !
 ! D12   D(98,1,17,19)        -100.7949         estimate D2E/DX2                !
 ! D13   D(5,1,25,23)         -141.2831         estimate D2E/DX2                !
 ! D14   D(5,1,25,27)           18.4676         estimate D2E/DX2                !
 ! D15   D(17,1,25,23)         -21.9897         estimate D2E/DX2                !
 ! D16   D(17,1,25,27)         137.761          estimate D2E/DX2                !
 ! D17   D(98,1,25,23)         100.6813         estimate D2E/DX2                !
 ! D18   D(98,1,25,27)         -99.568          estimate D2E/DX2                !
 ! D19   D(43,2,6,10)         -141.2393         estimate D2E/DX2                !
 ! D20   D(43,2,6,15)            9.5122         estimate D2E/DX2                !
 ! D21   D(44,2,6,10)          -25.7402         estimate D2E/DX2                !
 ! D22   D(44,2,6,15)          125.0113         estimate D2E/DX2                !
 ! D23   D(93,2,6,10)           98.0356         estimate D2E/DX2                !
 ! D24   D(93,2,6,15)         -111.2129         estimate D2E/DX2                !
 ! D25   D(6,2,43,13)          -11.1905         estimate D2E/DX2                !
 ! D26   D(6,2,43,39)          145.4955         estimate D2E/DX2                !
 ! D27   D(44,2,43,13)        -126.3314         estimate D2E/DX2                !
 ! D28   D(44,2,43,39)          30.3546         estimate D2E/DX2                !
 ! D29   D(93,2,43,13)         110.3181         estimate D2E/DX2                !
 ! D30   D(93,2,43,39)         -92.9959         estimate D2E/DX2                !
 ! D31   D(6,2,44,40)         -144.1231         estimate D2E/DX2                !
 ! D32   D(6,2,44,47)           23.3484         estimate D2E/DX2                !
 ! D33   D(43,2,44,40)         -34.1952         estimate D2E/DX2                !
 ! D34   D(43,2,44,47)         133.2763         estimate D2E/DX2                !
 ! D35   D(93,2,44,40)          90.3023         estimate D2E/DX2                !
 ! D36   D(93,2,44,47)        -102.2262         estimate D2E/DX2                !
 ! D37   D(18,3,7,12)            3.0524         estimate D2E/DX2                !
 ! D38   D(18,3,7,30)          150.8895         estimate D2E/DX2                !
 ! D39   D(26,3,7,12)         -145.6643         estimate D2E/DX2                !
 ! D40   D(26,3,7,30)            2.1728         estimate D2E/DX2                !
 ! D41   D(7,3,18,16)            5.3699         estimate D2E/DX2                !
 ! D42   D(7,3,18,20)         -145.0528         estimate D2E/DX2                !
 ! D43   D(26,3,18,16)         149.9274         estimate D2E/DX2                !
 ! D44   D(26,3,18,20)          -0.4952         estimate D2E/DX2                !
 ! D45   D(7,3,26,24)          147.9513         estimate D2E/DX2                !
 ! D46   D(7,3,26,28)           -2.1043         estimate D2E/DX2                !
 ! D47   D(18,3,26,24)          -0.776          estimate D2E/DX2                !
 ! D48   D(18,3,26,28)        -150.8316         estimate D2E/DX2                !
 ! D49   D(45,4,8,11)           25.6239         estimate D2E/DX2                !
 ! D50   D(45,4,8,16)         -124.6295         estimate D2E/DX2                !
 ! D51   D(46,4,8,11)          141.254          estimate D2E/DX2                !
 ! D52   D(46,4,8,16)           -8.9995         estimate D2E/DX2                !
 ! D53   D(95,4,8,11)          -97.9962         estimate D2E/DX2                !
 ! D54   D(95,4,8,16)          111.7503         estimate D2E/DX2                !
 ! D55   D(8,4,45,41)          144.5126         estimate D2E/DX2                !
 ! D56   D(8,4,45,48)          -22.7632         estimate D2E/DX2                !
 ! D57   D(46,4,45,41)          33.8581         estimate D2E/DX2                !
 ! D58   D(46,4,45,48)        -133.4177         estimate D2E/DX2                !
 ! D59   D(95,4,45,41)         -90.0334         estimate D2E/DX2                !
 ! D60   D(95,4,45,48)         102.6908         estimate D2E/DX2                !
 ! D61   D(8,4,46,14)           10.0068         estimate D2E/DX2                !
 ! D62   D(8,4,46,42)         -145.9495         estimate D2E/DX2                !
 ! D63   D(45,4,46,14)         125.9615         estimate D2E/DX2                !
 ! D64   D(45,4,46,42)         -29.9948         estimate D2E/DX2                !
 ! D65   D(95,4,46,14)        -111.4354         estimate D2E/DX2                !
 ! D66   D(95,4,46,42)          92.6083         estimate D2E/DX2                !
 ! D67   D(1,5,9,13)            -2.9427         estimate D2E/DX2                !
 ! D68   D(1,5,9,35)          -157.3295         estimate D2E/DX2                !
 ! D69   D(29,5,9,13)          149.9364         estimate D2E/DX2                !
 ! D70   D(29,5,9,35)           -4.4504         estimate D2E/DX2                !
 ! D71   D(1,5,29,27)           10.1392         estimate D2E/DX2                !
 ! D72   D(1,5,29,31)          164.4614         estimate D2E/DX2                !
 ! D73   D(9,5,29,27)         -146.3444         estimate D2E/DX2                !
 ! D74   D(9,5,29,31)            7.9779         estimate D2E/DX2                !
 ! D75   D(2,6,10,49)           -1.942          estimate D2E/DX2                !
 ! D76   D(2,6,10,53)          150.4693         estimate D2E/DX2                !
 ! D77   D(15,6,10,49)        -150.4321         estimate D2E/DX2                !
 ! D78   D(15,6,10,53)           1.9792         estimate D2E/DX2                !
 ! D79   D(2,6,15,13)           -4.7067         estimate D2E/DX2                !
 ! D80   D(2,6,15,17)         -154.4463         estimate D2E/DX2                !
 ! D81   D(10,6,15,13)         147.2322         estimate D2E/DX2                !
 ! D82   D(10,6,15,17)          -2.5074         estimate D2E/DX2                !
 ! D83   D(3,7,12,14)           -7.9932         estimate D2E/DX2                !
 ! D84   D(3,7,12,36)          145.4645         estimate D2E/DX2                !
 ! D85   D(30,7,12,14)        -151.7268         estimate D2E/DX2                !
 ! D86   D(30,7,12,36)           1.7309         estimate D2E/DX2                !
 ! D87   D(3,7,30,28)           -1.4802         estimate D2E/DX2                !
 ! D88   D(3,7,30,32)         -152.0025         estimate D2E/DX2                !
 ! D89   D(12,7,30,28)         146.4536         estimate D2E/DX2                !
 ! D90   D(12,7,30,32)          -4.0687         estimate D2E/DX2                !
 ! D91   D(4,8,11,50)            0.3218         estimate D2E/DX2                !
 ! D92   D(4,8,11,54)         -147.7056         estimate D2E/DX2                !
 ! D93   D(16,8,11,50)         147.7199         estimate D2E/DX2                !
 ! D94   D(16,8,11,54)          -0.3075         estimate D2E/DX2                !
 ! D95   D(4,8,16,14)            4.936          estimate D2E/DX2                !
 ! D96   D(4,8,16,18)          153.3592         estimate D2E/DX2                !
 ! D97   D(11,8,16,14)        -146.0513         estimate D2E/DX2                !
 ! D98   D(11,8,16,18)           2.3719         estimate D2E/DX2                !
 ! D99   D(5,9,13,15)           -7.0035         estimate D2E/DX2                !
 ! D100  D(5,9,13,43)         -151.8142         estimate D2E/DX2                !
 ! D101  D(35,9,13,15)         148.071          estimate D2E/DX2                !
 ! D102  D(35,9,13,43)           3.2604         estimate D2E/DX2                !
 ! D103  D(5,9,35,33)           -4.9078         estimate D2E/DX2                !
 ! D104  D(5,9,35,37)          151.4632         estimate D2E/DX2                !
 ! D105  D(13,9,35,33)        -158.9535         estimate D2E/DX2                !
 ! D106  D(13,9,35,37)          -2.5825         estimate D2E/DX2                !
 ! D107  D(6,10,49,47)          31.3772         estimate D2E/DX2                !
 ! D108  D(6,10,49,51)         148.4065         estimate D2E/DX2                !
 ! D109  D(6,10,49,91)         -89.966          estimate D2E/DX2                !
 ! D110  D(53,10,49,47)       -122.7134         estimate D2E/DX2                !
 ! D111  D(53,10,49,51)         -5.6841         estimate D2E/DX2                !
 ! D112  D(53,10,49,91)        115.9434         estimate D2E/DX2                !
 ! D113  D(6,10,53,19)          -1.2328         estimate D2E/DX2                !
 ! D114  D(6,10,53,55)        -160.9848         estimate D2E/DX2                !
 ! D115  D(49,10,53,19)        153.6741         estimate D2E/DX2                !
 ! D116  D(49,10,53,55)         -6.078          estimate D2E/DX2                !
 ! D117  D(8,11,50,48)         -29.0422         estimate D2E/DX2                !
 ! D118  D(8,11,50,52)        -145.6044         estimate D2E/DX2                !
 ! D119  D(8,11,50,92)          93.3394         estimate D2E/DX2                !
 ! D120  D(54,11,50,48)        121.591          estimate D2E/DX2                !
 ! D121  D(54,11,50,52)          5.0288         estimate D2E/DX2                !
 ! D122  D(54,11,50,92)       -116.0274         estimate D2E/DX2                !
 ! D123  D(8,11,54,20)          -1.459          estimate D2E/DX2                !
 ! D124  D(8,11,54,56)         148.8834         estimate D2E/DX2                !
 ! D125  D(50,11,54,20)       -153.1271         estimate D2E/DX2                !
 ! D126  D(50,11,54,56)         -2.7847         estimate D2E/DX2                !
 ! D127  D(7,12,14,16)           4.6992         estimate D2E/DX2                !
 ! D128  D(7,12,14,46)         151.8401         estimate D2E/DX2                !
 ! D129  D(36,12,14,16)       -149.0243         estimate D2E/DX2                !
 ! D130  D(36,12,14,46)         -1.8834         estimate D2E/DX2                !
 ! D131  D(7,12,36,34)           4.5084         estimate D2E/DX2                !
 ! D132  D(7,12,36,38)        -149.8262         estimate D2E/DX2                !
 ! D133  D(14,12,36,34)        157.2248         estimate D2E/DX2                !
 ! D134  D(14,12,36,38)          2.8901         estimate D2E/DX2                !
 ! D135  D(9,13,15,6)         -151.5022         estimate D2E/DX2                !
 ! D136  D(9,13,15,17)          -2.0943         estimate D2E/DX2                !
 ! D137  D(43,13,15,6)          -2.8338         estimate D2E/DX2                !
 ! D138  D(43,13,15,17)        146.5741         estimate D2E/DX2                !
 ! D139  D(9,13,43,2)          157.519          estimate D2E/DX2                !
 ! D140  D(9,13,43,39)          -0.2902         estimate D2E/DX2                !
 ! D141  D(15,13,43,2)           9.1401         estimate D2E/DX2                !
 ! D142  D(15,13,43,39)       -148.6691         estimate D2E/DX2                !
 ! D143  D(12,14,16,8)         152.2725         estimate D2E/DX2                !
 ! D144  D(12,14,16,18)          3.7483         estimate D2E/DX2                !
 ! D145  D(46,14,16,8)           1.7924         estimate D2E/DX2                !
 ! D146  D(46,14,16,18)       -146.7318         estimate D2E/DX2                !
 ! D147  D(12,14,46,4)        -158.6369         estimate D2E/DX2                !
 ! D148  D(12,14,46,42)         -1.5443         estimate D2E/DX2                !
 ! D149  D(16,14,46,4)          -7.7379         estimate D2E/DX2                !
 ! D150  D(16,14,46,42)        149.3547         estimate D2E/DX2                !
 ! D151  D(6,15,17,1)          165.577          estimate D2E/DX2                !
 ! D152  D(6,15,17,19)           2.161          estimate D2E/DX2                !
 ! D153  D(13,15,17,1)          20.4477         estimate D2E/DX2                !
 ! D154  D(13,15,17,19)       -142.9683         estimate D2E/DX2                !
 ! D155  D(8,16,18,3)         -153.0806         estimate D2E/DX2                !
 ! D156  D(8,16,18,20)          -2.5841         estimate D2E/DX2                !
 ! D157  D(14,16,18,3)          -8.6691         estimate D2E/DX2                !
 ! D158  D(14,16,18,20)        141.8274         estimate D2E/DX2                !
 ! D159  D(1,17,19,21)          -1.2424         estimate D2E/DX2                !
 ! D160  D(1,17,19,53)        -163.8774         estimate D2E/DX2                !
 ! D161  D(15,17,19,21)        161.3058         estimate D2E/DX2                !
 ! D162  D(15,17,19,53)         -1.3292         estimate D2E/DX2                !
 ! D163  D(3,18,20,22)           1.1232         estimate D2E/DX2                !
 ! D164  D(3,18,20,54)         150.5933         estimate D2E/DX2                !
 ! D165  D(16,18,20,22)       -148.667          estimate D2E/DX2                !
 ! D166  D(16,18,20,54)          0.8031         estimate D2E/DX2                !
 ! D167  D(17,19,21,23)        -22.2991         estimate D2E/DX2                !
 ! D168  D(17,19,21,57)       -133.7985         estimate D2E/DX2                !
 ! D169  D(17,19,21,99)        102.2254         estimate D2E/DX2                !
 ! D170  D(53,19,21,23)        140.5122         estimate D2E/DX2                !
 ! D171  D(53,19,21,57)         29.0129         estimate D2E/DX2                !
 ! D172  D(53,19,21,99)        -94.9633         estimate D2E/DX2                !
 ! D173  D(17,19,53,10)          0.8951         estimate D2E/DX2                !
 ! D174  D(17,19,53,55)        157.5221         estimate D2E/DX2                !
 ! D175  D(21,19,53,10)       -162.1803         estimate D2E/DX2                !
 ! D176  D(21,19,53,55)         -5.5533         estimate D2E/DX2                !
 ! D177  D(18,20,22,24)         -0.562          estimate D2E/DX2                !
 ! D178  D(18,20,22,58)        143.1631         estimate D2E/DX2                !
 ! D179  D(54,20,22,24)       -150.8025         estimate D2E/DX2                !
 ! D180  D(54,20,22,58)         -7.0774         estimate D2E/DX2                !
 ! D181  D(18,20,54,11)          1.1876         estimate D2E/DX2                !
 ! D182  D(18,20,54,56)       -145.2486         estimate D2E/DX2                !
 ! D183  D(22,20,54,11)        151.2529         estimate D2E/DX2                !
 ! D184  D(22,20,54,56)          4.8167         estimate D2E/DX2                !
 ! D185  D(19,21,23,25)         24.5967         estimate D2E/DX2                !
 ! D186  D(19,21,23,61)       -136.0821         estimate D2E/DX2                !
 ! D187  D(57,21,23,25)        142.0534         estimate D2E/DX2                !
 ! D188  D(57,21,23,61)        -18.6254         estimate D2E/DX2                !
 ! D189  D(99,21,23,25)        -99.0394         estimate D2E/DX2                !
 ! D190  D(99,21,23,61)        100.2818         estimate D2E/DX2                !
 ! D191  D(19,21,57,59)        133.6559         estimate D2E/DX2                !
 ! D192  D(19,21,57,83)        -24.871          estimate D2E/DX2                !
 ! D193  D(23,21,57,59)         15.776          estimate D2E/DX2                !
 ! D194  D(23,21,57,83)       -142.7509         estimate D2E/DX2                !
 ! D195  D(99,21,57,59)       -103.2091         estimate D2E/DX2                !
 ! D196  D(99,21,57,83)         98.264          estimate D2E/DX2                !
 ! D197  D(20,22,24,26)         -0.7078         estimate D2E/DX2                !
 ! D198  D(20,22,24,62)        149.017          estimate D2E/DX2                !
 ! D199  D(58,22,24,26)       -148.49           estimate D2E/DX2                !
 ! D200  D(58,22,24,62)          1.2349         estimate D2E/DX2                !
 ! D201  D(20,22,58,60)       -147.6424         estimate D2E/DX2                !
 ! D202  D(20,22,58,84)          1.5858         estimate D2E/DX2                !
 ! D203  D(24,22,58,60)          0.5416         estimate D2E/DX2                !
 ! D204  D(24,22,58,84)        149.7698         estimate D2E/DX2                !
 ! D205  D(21,23,25,1)          -2.0966         estimate D2E/DX2                !
 ! D206  D(21,23,25,27)       -160.0072         estimate D2E/DX2                !
 ! D207  D(61,23,25,1)         157.0359         estimate D2E/DX2                !
 ! D208  D(61,23,25,27)         -0.8747         estimate D2E/DX2                !
 ! D209  D(21,23,61,59)         14.0268         estimate D2E/DX2                !
 ! D210  D(21,23,61,63)        129.9799         estimate D2E/DX2                !
 ! D211  D(21,23,61,89)       -107.5833         estimate D2E/DX2                !
 ! D212  D(25,23,61,59)       -147.1716         estimate D2E/DX2                !
 ! D213  D(25,23,61,63)        -31.2185         estimate D2E/DX2                !
 ! D214  D(25,23,61,89)         91.2183         estimate D2E/DX2                !
 ! D215  D(22,24,26,3)           1.3575         estimate D2E/DX2                !
 ! D216  D(22,24,26,28)        148.2784         estimate D2E/DX2                !
 ! D217  D(62,24,26,3)        -145.2353         estimate D2E/DX2                !
 ! D218  D(62,24,26,28)          1.6856         estimate D2E/DX2                !
 ! D219  D(22,24,62,60)         -2.3295         estimate D2E/DX2                !
 ! D220  D(22,24,62,64)       -117.3388         estimate D2E/DX2                !
 ! D221  D(22,24,62,90)        120.231          estimate D2E/DX2                !
 ! D222  D(26,24,62,60)        146.865          estimate D2E/DX2                !
 ! D223  D(26,24,62,64)         31.8557         estimate D2E/DX2                !
 ! D224  D(26,24,62,90)        -90.5745         estimate D2E/DX2                !
 ! D225  D(1,25,27,29)         -13.0627         estimate D2E/DX2                !
 ! D226  D(1,25,27,65)        -127.8844         estimate D2E/DX2                !
 ! D227  D(1,25,27,85)         108.9703         estimate D2E/DX2                !
 ! D228  D(23,25,27,29)        146.9638         estimate D2E/DX2                !
 ! D229  D(23,25,27,65)         32.1421         estimate D2E/DX2                !
 ! D230  D(23,25,27,85)        -91.0032         estimate D2E/DX2                !
 ! D231  D(3,26,28,30)           1.1473         estimate D2E/DX2                !
 ! D232  D(3,26,28,66)         115.6326         estimate D2E/DX2                !
 ! D233  D(3,26,28,88)        -121.8777         estimate D2E/DX2                !
 ! D234  D(24,26,28,30)       -148.2666         estimate D2E/DX2                !
 ! D235  D(24,26,28,66)        -33.7813         estimate D2E/DX2                !
 ! D236  D(24,26,28,88)         88.7084         estimate D2E/DX2                !
 ! D237  D(25,27,29,5)           1.6316         estimate D2E/DX2                !
 ! D238  D(25,27,29,31)       -152.3046         estimate D2E/DX2                !
 ! D239  D(65,27,29,5)         118.5786         estimate D2E/DX2                !
 ! D240  D(65,27,29,31)        -35.3577         estimate D2E/DX2                !
 ! D241  D(85,27,29,5)        -119.1344         estimate D2E/DX2                !
 ! D242  D(85,27,29,31)         86.9294         estimate D2E/DX2                !
 ! D243  D(25,27,65,63)        -30.2667         estimate D2E/DX2                !
 ! D244  D(25,27,65,67)        143.3547         estimate D2E/DX2                !
 ! D245  D(29,27,65,63)       -140.0053         estimate D2E/DX2                !
 ! D246  D(29,27,65,67)         33.6162         estimate D2E/DX2                !
 ! D247  D(85,27,65,63)         94.7061         estimate D2E/DX2                !
 ! D248  D(85,27,65,67)        -91.6724         estimate D2E/DX2                !
 ! D249  D(26,28,30,7)           0.212          estimate D2E/DX2                !
 ! D250  D(26,28,30,32)        149.9006         estimate D2E/DX2                !
 ! D251  D(66,28,30,7)        -115.1243         estimate D2E/DX2                !
 ! D252  D(66,28,30,32)         34.5643         estimate D2E/DX2                !
 ! D253  D(88,28,30,7)         122.7375         estimate D2E/DX2                !
 ! D254  D(88,28,30,32)        -87.5739         estimate D2E/DX2                !
 ! D255  D(26,28,66,64)         31.66           estimate D2E/DX2                !
 ! D256  D(26,28,66,68)       -142.3681         estimate D2E/DX2                !
 ! D257  D(30,28,66,64)        141.0056         estimate D2E/DX2                !
 ! D258  D(30,28,66,68)        -33.0225         estimate D2E/DX2                !
 ! D259  D(88,28,66,64)        -93.5971         estimate D2E/DX2                !
 ! D260  D(88,28,66,68)         92.3748         estimate D2E/DX2                !
 ! D261  D(5,29,31,33)          -1.8011         estimate D2E/DX2                !
 ! D262  D(5,29,31,69)        -151.2836         estimate D2E/DX2                !
 ! D263  D(27,29,31,33)        150.3012         estimate D2E/DX2                !
 ! D264  D(27,29,31,69)          0.8188         estimate D2E/DX2                !
 ! D265  D(7,30,32,34)          -0.0681         estimate D2E/DX2                !
[...]
 Alpha virt. eigenvalues --    1.54316   1.54380   1.55298   1.56026   1.56143
 Alpha virt. eigenvalues --    1.56932   1.57306   1.57471   1.58442   1.59031
 Alpha virt. eigenvalues --    1.59301   1.59462   1.60057   1.60360   1.60807
 Alpha virt. eigenvalues --    1.61483   1.61580   1.61766   1.62438   1.62717
 Alpha virt. eigenvalues --    1.62953   1.63168   1.63504   1.63631   1.63811
 Alpha virt. eigenvalues --    1.64146   1.64206   1.64518   1.64693   1.64863
 Alpha virt. eigenvalues --    1.65189   1.65534   1.65744   1.66102   1.66380
 Alpha virt. eigenvalues --    1.66677   1.66787   1.67006   1.67052   1.67242
 Alpha virt. eigenvalues --    1.67447   1.67959   1.67982   1.68135   1.68328
 Alpha virt. eigenvalues --    1.68684   1.68918   1.69047   1.69260   1.69709
 Alpha virt. eigenvalues --    1.69840   1.70093   1.70329   1.70411   1.70723
 Alpha virt. eigenvalues --    1.70943   1.71124   1.71568   1.71653   1.72059
 Alpha virt. eigenvalues --    1.72123   1.72208   1.72653   1.72719   1.73108
 Alpha virt. eigenvalues --    1.73391   1.73722   1.73973   1.74317   1.74549
 Alpha virt. eigenvalues --    1.74673   1.75133   1.75291   1.75406   1.75754
 Alpha virt. eigenvalues --    1.75830   1.76000   1.76227   1.76446   1.76520
 Alpha virt. eigenvalues --    1.76831   1.76941   1.77329   1.77548   1.77710
 Alpha virt. eigenvalues --    1.77993   1.78046   1.78312   1.78584   1.78653
 Alpha virt. eigenvalues --    1.79038   1.79103   1.79318   1.79600   1.80046
 Alpha virt. eigenvalues --    1.80311   1.80472   1.80761   1.81029   1.81366
 Alpha virt. eigenvalues --    1.81459   1.81762   1.81907   1.82294   1.82404
 Alpha virt. eigenvalues --    1.82428   1.82794   1.83188   1.83280   1.83435
 Alpha virt. eigenvalues --    1.83949   1.84281   1.84491   1.84710   1.84924
 Alpha virt. eigenvalues --    1.85429   1.85689   1.86033   1.86569   1.86900
 Alpha virt. eigenvalues --    1.87157   1.87181   1.87430   1.88065   1.88116
 Alpha virt. eigenvalues --    1.88775   1.88835   1.89101   1.89251   1.89677
 Alpha virt. eigenvalues --    1.90082   1.90572   1.90727   1.91138   1.91581
 Alpha virt. eigenvalues --    1.91934   1.91995   1.92497   1.92850   1.93178
 Alpha virt. eigenvalues --    1.93705   1.94030   1.94096   1.94573   1.94916
 Alpha virt. eigenvalues --    1.95264   1.95553   1.95883   1.96116   1.96538
 Alpha virt. eigenvalues --    1.97101   1.97341   1.97833   1.98284   1.98533
 Alpha virt. eigenvalues --    1.98785   1.99016   1.99324   1.99731   1.99806
 Alpha virt. eigenvalues --    2.00344   2.00741   2.01042   2.01444   2.01737
 Alpha virt. eigenvalues --    2.01849   2.02440   2.02520   2.03122   2.03371
 Alpha virt. eigenvalues --    2.03559   2.03882   2.04645   2.04868   2.05397
 Alpha virt. eigenvalues --    2.05500   2.06073   2.06456   2.06770   2.06884
 Alpha virt. eigenvalues --    2.07509   2.07699   2.08054   2.08623   2.09135
 Alpha virt. eigenvalues --    2.09673   2.09862   2.10172   2.10488   2.10898
 Alpha virt. eigenvalues --    2.11006   2.11289   2.11855   2.12437   2.12681
 Alpha virt. eigenvalues --    2.12862   2.13146   2.13657   2.13948   2.14412
 Alpha virt. eigenvalues --    2.15020   2.15213   2.15739   2.16168   2.16673
 Alpha virt. eigenvalues --    2.17148   2.17420   2.17842   2.18157   2.18384
 Alpha virt. eigenvalues --    2.19213   2.19402   2.19838   2.20208   2.20636
 Alpha virt. eigenvalues --    2.20743   2.21046   2.21353   2.21705   2.22442
 Alpha virt. eigenvalues --    2.22514   2.22945   2.23058   2.23921   2.24045
 Alpha virt. eigenvalues --    2.24737   2.24914   2.25207   2.25671   2.26235
 Alpha virt. eigenvalues --    2.26685   2.26852   2.27189   2.27658   2.28200
 Alpha virt. eigenvalues --    2.28577   2.28853   2.29093   2.29377   2.30398
 Alpha virt. eigenvalues --    2.30558   2.31236   2.31400   2.32063   2.32800
 Alpha virt. eigenvalues --    2.33135   2.33735   2.33967   2.34514   2.35011
 Alpha virt. eigenvalues --    2.35694   2.36182   2.36440   2.37300   2.37850
 Alpha virt. eigenvalues --    2.38210   2.38386   2.38787   2.39671   2.40161
 Alpha virt. eigenvalues --    2.40314   2.40750   2.41204   2.41454   2.41982
 Alpha virt. eigenvalues --    2.42706   2.43191   2.43747   2.43929   2.44396
 Alpha virt. eigenvalues --    2.44957   2.45315   2.46169   2.46479   2.47021
 Alpha virt. eigenvalues --    2.47251   2.47527   2.48158   2.48759   2.49442
 Alpha virt. eigenvalues --    2.49875   2.50441   2.50801   2.50966   2.51356
 Alpha virt. eigenvalues --    2.51644   2.52429   2.52778   2.53086   2.53695
 Alpha virt. eigenvalues --    2.53969   2.54358   2.54531   2.54852   2.54996
 Alpha virt. eigenvalues --    2.55526   2.56070   2.56623   2.56774   2.57073
 Alpha virt. eigenvalues --    2.57362   2.57538   2.58032   2.58366   2.58558
 Alpha virt. eigenvalues --    2.59016   2.59602   2.59796   2.60140   2.60362
 Alpha virt. eigenvalues --    2.60872   2.61471   2.61678   2.61919   2.62102
 Alpha virt. eigenvalues --    2.62660   2.63052   2.63523   2.63786   2.63915
 Alpha virt. eigenvalues --    2.64376   2.64813   2.65286   2.65570   2.65721
 Alpha virt. eigenvalues --    2.66229   2.66780   2.66881   2.67043   2.67390
 Alpha virt. eigenvalues --    2.68065   2.68378   2.68913   2.69000   2.69550
 Alpha virt. eigenvalues --    2.69705   2.70059   2.70547   2.70892   2.71336
 Alpha virt. eigenvalues --    2.71565   2.71849   2.72329   2.72408   2.72747
 Alpha virt. eigenvalues --    2.73288   2.73734   2.74019   2.74244   2.74593
 Alpha virt. eigenvalues --    2.75050   2.75390   2.75526   2.76025   2.76255
 Alpha virt. eigenvalues --    2.76799   2.77006   2.77344   2.77595   2.78372
 Alpha virt. eigenvalues --    2.78612   2.79153   2.79562   2.80064   2.80774
 Alpha virt. eigenvalues --    2.81135   2.81860   2.82165   2.82671   2.82847
 Alpha virt. eigenvalues --    2.83248   2.83923   2.84611   2.85574   2.85719
 Alpha virt. eigenvalues --    2.86095   2.86902   2.87459   2.87801   2.88392
 Alpha virt. eigenvalues --    2.88800   2.88967   2.89419   2.90218   2.90511
 Alpha virt. eigenvalues --    2.90811   2.91617   2.92466   2.92879   2.93582
 Alpha virt. eigenvalues --    2.94207   2.94714   2.96068   2.96112   2.96696
 Alpha virt. eigenvalues --    2.97260   2.98470   2.99692   3.00599   3.01773
 Alpha virt. eigenvalues --    3.02739   3.04235   3.06704   3.07635   3.08292
 Alpha virt. eigenvalues --    3.09041   3.09908   3.10747   3.11122   3.12816
 Alpha virt. eigenvalues --    3.13727   3.15809   3.16803   3.17644   3.18618
 Alpha virt. eigenvalues --    3.19779   3.20936   3.22707   3.23796   3.25105
 Alpha virt. eigenvalues --    3.26638   3.27728   3.28400   3.31244   3.33466
 Alpha virt. eigenvalues --    3.35685   3.35988   3.38320   3.40959   3.41790
 Alpha virt. eigenvalues --    3.42947   3.47509   3.48150   3.50572   3.53232
 Alpha virt. eigenvalues --    3.60784   4.00540   4.01393   4.01687   4.02603
 Alpha virt. eigenvalues --    4.03266   4.04016   4.05236   4.06007   4.06672
 Alpha virt. eigenvalues --    4.07216   4.07847   4.08277   4.08613   4.09403
 Alpha virt. eigenvalues --    4.10236   4.10462   4.11396   4.11879   4.12415
 Alpha virt. eigenvalues --    4.14202   4.14887   4.15785   4.16130   4.16583
 Alpha virt. eigenvalues --    4.18337   4.18562   4.19048   4.19488   4.20054
 Alpha virt. eigenvalues --    4.20890   4.21246   4.22098   4.22737   4.24481
 Alpha virt. eigenvalues --    4.24810   4.25122   4.25664   4.25937   4.26374
 Alpha virt. eigenvalues --    4.26986   4.27639   4.27861   4.28098   4.28351
 Alpha virt. eigenvalues --    4.28828   4.29149   4.29905   4.30152   4.31142
 Alpha virt. eigenvalues --    4.32893   4.33723   4.34368   4.35560   4.35730
 Alpha virt. eigenvalues --    4.37861   4.38284   4.38661   4.39778   4.40377
 Alpha virt. eigenvalues --    4.41117   4.41791   4.42142   4.43536   4.44068
 Alpha virt. eigenvalues --    4.44502   4.45026   4.46577   4.47992   4.49516
 Alpha virt. eigenvalues --    4.50227   4.51682   4.53959   4.54563   4.55673
 Alpha virt. eigenvalues --    4.56687   4.57923   4.58633   4.59888   4.61420
 Alpha virt. eigenvalues --    4.64436   4.65838   4.66743   4.67231   4.70882
 Alpha virt. eigenvalues --    4.76245   4.78580   4.79530   4.81236   4.81408
 Alpha virt. eigenvalues --    4.84622   4.86426   4.89220   4.92985   4.97597
 Alpha virt. eigenvalues --    4.99983   5.00933   5.04708   5.10354   5.13182
 Alpha virt. eigenvalues --    5.22845
          Condensed to atoms (all electrons):
 Mulliken charges:
               1
     1  C   -0.361540
     2  C   -0.393533
     3  C    0.008285
     4  C   -0.388614
     5  C    0.078270
     6  C    0.084192
     7  C    0.008951
     8  C    0.088595
     9  C    0.059592
    10  C    0.129733
    11  C    0.093651
    12  C    0.038393
    13  C   -0.015492
    14  C    0.009248
    15  C    0.044270
    16  C    0.010025
    17  C    0.118414
    18  C    0.043661
    19  C    0.150968
    20  C    0.045715
    21  C   -0.382327
    22  C    0.007289
    23  C    0.179642
    24  C    0.092345
    25  C    0.187296
    26  C    0.089822
    27  C   -0.372245
    28  C   -0.376086
    29  C    0.134980
    30  C    0.087893
    31  C    0.086298
    32  C    0.090887
    33  C   -0.011515
    34  C    0.006130
    35  C    0.062972
    36  C    0.041044
    37  C    0.094701
    38  C    0.065032
    39  C    0.152643
    40  C    0.112923
    41  C    0.116198
    42  C    0.119960
    43  C    0.086356
    44  C    0.147860
    45  C    0.149058
    46  C    0.079367
    47  C    0.123635
    48  C    0.121522
    49  C   -0.367076
    50  C   -0.385970
    51  C    0.153441
    52  C    0.111971
    53  C    0.107046
    54  C    0.014904
    55  C   -0.357755
    56  C   -0.014596
    57  C    0.108474
    58  C    0.011092
    59  C    0.130628
    60  C    0.081039
    61  C   -0.369773
    62  C   -0.380748
    63  C    0.124601
    64  C    0.127996
    65  C    0.126485
    66  C    0.127289
    67  C    0.128002
    68  C    0.120783
    69  C   -0.376919
    70  C   -0.374328
    71  C    0.089870
    72  C    0.095051
    73  C    0.040350
    74  C    0.014110
    75  C    0.067907
    76  C    0.021879
    77  C   -0.359697
    78  C   -0.022187
    79  C   -0.370307
    80  C   -0.362494
    81  C    0.111003
    82  C    0.160069
    83  C    0.120959
    84  C    0.069309
    85  Cl   0.032683
    86  Cl   0.025922
    87  Cl   0.026889
    88  Cl   0.029363
    89  Cl   0.029703
    90  Cl   0.030630
    91  Cl   0.021008
    92  Cl   0.024912
    93  Cl   0.031896
    94  Cl   0.022489
    95  Cl   0.028116
    96  Cl   0.002191
    97  Cl   0.000866
    98  Cl   0.004372
    99  Cl   0.024919
   100  Cl  -0.004833
 Sum of Mulliken charges =  -0.00000
 Mulliken charges with hydrogens summed into heavy atoms:
               1
     1  C   -0.361540
     2  C   -0.393533
     3  C    0.008285
     4  C   -0.388614
     5  C    0.078270
     6  C    0.084192
     7  C    0.008951
     8  C    0.088595
     9  C    0.059592
    10  C    0.129733
    11  C    0.093651
    12  C    0.038393
    13  C   -0.015492
    14  C    0.009248
    15  C    0.044270
    16  C    0.010025
    17  C    0.118414
    18  C    0.043661
    19  C    0.150968
    20  C    0.045715
    21  C   -0.382327
    22  C    0.007289
    23  C    0.179642
    24  C    0.092345
    25  C    0.187296
    26  C    0.089822
    27  C   -0.372245
    28  C   -0.376086
    29  C    0.134980
    30  C    0.087893
    31  C    0.086298
    32  C    0.090887
    33  C   -0.011515
    34  C    0.006130
    35  C    0.062972
    36  C    0.041044
    37  C    0.094701
    38  C    0.065032
    39  C    0.152643
    40  C    0.112923
    41  C    0.116198
    42  C    0.119960
    43  C    0.086356
    44  C    0.147860
    45  C    0.149058
    46  C    0.079367
    47  C    0.123635
    48  C    0.121522
    49  C   -0.367076
    50  C   -0.385970
    51  C    0.153441
    52  C    0.111971
    53  C    0.107046
    54  C    0.014904
    55  C   -0.357755
    56  C   -0.014596
    57  C    0.108474
    58  C    0.011092
    59  C    0.130628
    60  C    0.081039
    61  C   -0.369773
    62  C   -0.380748
    63  C    0.124601
    64  C    0.127996
    65  C    0.126485
    66  C    0.127289
    67  C    0.128002
    68  C    0.120783
    69  C   -0.376919
    70  C   -0.374328
    71  C    0.089870
    72  C    0.095051
    73  C    0.040350
    74  C    0.014110
    75  C    0.067907
    76  C    0.021879
    77  C   -0.359697
    78  C   -0.022187
    79  C   -0.370307
    80  C   -0.362494
    81  C    0.111003
    82  C    0.160069
    83  C    0.120959
    84  C    0.069309
    85  Cl   0.032683
    86  Cl   0.025922
    87  Cl   0.026889
    88  Cl   0.029363
    89  Cl   0.029703
    90  Cl   0.030630
    91  Cl   0.021008
    92  Cl   0.024912
    93  Cl   0.031896
    94  Cl   0.022489
    95  Cl   0.028116
    96  Cl   0.002191
    97  Cl   0.000866
    98  Cl   0.004372
    99  Cl   0.024919
   100  Cl  -0.004833
 Electronic spatial extent (au):  <R**2>=          71567.6512
 Charge=              0.0000 electrons
 Dipole moment (field-independent basis, Debye):
    X=              0.5538    Y=             -2.9613    Z=              3.5198  Tot=              4.6330
 Quadrupole moment (field-independent basis, Debye-Ang):
   XX=           -723.6524   YY=           -690.3518   ZZ=           -667.3894
   XY=             -3.2374   XZ=             -0.3823   YZ=              0.7409
 Traceless Quadrupole moment (field-independent basis, Debye-Ang):
   XX=            -29.8545   YY=              3.4460   ZZ=             26.4085
   XY=             -3.2374   XZ=             -0.3823   YZ=              0.7409
 Octapole moment (field-independent basis, Debye-Ang**2):
  XXX=             32.6200  YYY=            -58.8706  ZZZ=             20.5424  XYY=             28.9561
  XXY=             39.0282  XXZ=            -19.9088  XZZ=             -1.3206  YZZ=             19.8357
  YYZ=             34.1921  XYZ=             35.3986
 Hexadecapole moment (field-independent basis, Debye-Ang**3):
 XXXX=         -39676.1663 YYYY=         -33320.1946 ZZZZ=         -27103.4256 XXXY=            -54.2172
 XXXZ=             39.0186 YYYX=             41.6095 YYYZ=           -112.7426 ZZZX=             14.5727
 ZZZY=             -0.1120 XXYY=         -12387.8813 XXZZ=         -11342.4658 YYZZ=         -10080.0631
 XXYZ=            -12.2784 YYXZ=             -5.7530 ZZXY=            -52.7039
 N-N= 2.806561986830D+04 E-N=-8.102057520149D+04  KE= 1.051181524468D+04
 No NMR shielding tensors so no spin-rotation constants.
 Leave Link  601 at Tue Jun 28 00:02:50 2022, MaxMem=  1342177280 cpu:              27.9 elap:               1.4
 (Enter /home/mkliu/g16/l9999.exe)
 1\1\GINC-NODE05\FOpt\RB3LYP\6-31G(d,p)\C84Cl16\MKLIU\28-Jun-2022\0\\#P
  opt b3lyp/6-31G(d, p) empiricaldispersion=GD3\\force\\0,1\C,8.2281536
 499,18.6470670685,10.6077207766\C,12.4859585918,20.0016267816,8.912386
 7109\C,8.2553883734,26.8691807745,10.5377963307\C,12.4977027336,25.762
 5266146,8.9070576936\C,7.9563306654,18.9760577235,9.1547458609\C,11.87
 2033332,19.5846528193,10.2270609459\C,7.9359177601,26.8272750088,9.146
 7655917\C,11.8898995332,26.1942351447,10.2212383657\C,8.9622380529,19.
 1498321078,8.1631332133\C,12.1324596193,20.2359000349,11.4080734682\C,
 12.1521491053,25.5542073839,11.3844041762\C,8.9464681797,26.6549132412
 ,8.159992673\C,10.301211205,19.0835270695,8.6025944864\C,10.2885533797
 ,26.7010340056,8.6202087341\C,10.6208528965,18.986935133,10.0303360471
 \C,10.6096716239,26.8074076743,9.9962820163\C,9.6378182425,18.99398136
 66,11.0257050836\C,9.5969546823,26.8004342367,10.9970149507\C,9.909052
 1853,19.6576349647,12.2398340208\C,9.8643514833,26.1123996183,12.23772
 07435\C,8.7762873956,20.0744570927,13.1552371246\C,8.7779321444,25.520
 7798988,12.9159779025\C,7.4600221022,20.180137291,12.4123892186\C,7.43
 93234249,25.5988354183,12.4195812759\C,7.2077546703,19.5277923544,11.2
 869677085\C,7.1828445142,26.2658260414,11.2670527052\C,6.1143077819,19
 .9661925888,10.3376681179\C,6.0664217571,25.8434118396,10.3344249232\C
 ,6.7234274077,19.5862569078,9.0184222422\C,6.6414311684,26.2461805819,
 8.9940345186\C,6.3971603659,20.2503960506,7.8463820409\C,6.337593522,2
 5.5814342009,7.8559178766\C,7.3244336972,20.3486031249,6.8110407699\C,
 7.3083028964,25.4607037127,6.80868914\C,8.6749449295,19.9039819089,6.9
 729797258\C,8.6506221706,25.9067638195,6.9656037217\C,9.7378041223,20.
 6087112256,6.3039028647\C,9.7171272015,25.1713587266,6.2968022074\C,11
 .039134843,20.5727853236,6.8228184176\C,12.6893282869,22.184649592,7.7
 653738129\C,12.7019865914,23.576108044,7.7640874089\C,11.0651492634,25
 .2102469392,6.844334829\C,11.3148338891,19.7730956892,7.9489000686\C,1
 2.8556797881,21.4702713878,8.9503982251\C,12.873893398,24.2909539591,8
 .9441412798\C,11.3277529984,25.9833642591,7.9416412598\C,13.0808985137
 ,22.1724949061,10.1560526131\C,13.0850828521,23.5871588074,10.14752904
 12\C,13.0830858598,21.4054559844,11.4892480422\C,13.0723534471,24.3525
 981234,11.4695964013\C,12.4481089592,22.2021511263,12.6015688592\C,12.
 4028343851,23.538826635,12.5616169217\C,11.157940384,20.2615325365,12.
 4181688219\C,11.1438405665,25.4828942664,12.4137740298\C,11.4378760552
 ,21.3908816894,13.3854360435\C,11.2987179196,24.286277715,13.133531222
 3\C,8.9571657035,21.501812772,13.6287335659\C,8.9314382385,24.27392789
 94,13.6105105455\C,7.7317773157,22.2027527326,13.5181826926\C,7.710803
 6844,23.5656174946,13.5353996884\C,6.6761708631,21.4132509224,12.79804
 37372\C,6.6483674584,24.3675056393,12.8155850846\C,6.1788089499,22.189
 8053826,11.5616834318\C,6.1691301886,23.6036482425,11.5647010785\C,5.8
 942161148,21.4886735452,10.3751893988\C,5.8772247237,24.309256892,10.3
 782048873\C,5.5859413174,22.1930511797,9.1849611209\C,5.5760691655,23.
 6053424663,9.1883339437\C,5.4316597383,21.420278686,7.855920986\C,5.40
 097093,24.3850344282,7.8631578357\C,5.9455755393,22.228494305,6.684338
 9648\C,5.9327090385,23.5883768398,6.6895559069\C,7.0099996926,21.52764
 9716,6.0245627253\C,6.9970794129,24.298822003,6.0524226764\C,8.0007200
 369,22.1865626294,5.3447783424\C,8.0272605061,23.6095525293,5.39679022
 83\C,9.4038713995,21.6355375438,5.2250851045\C,9.3713334964,24.0691309
 292,5.4924299692\C,12.0803300173,21.6324200253,6.4826218355\C,12.08027
 87112,24.1323610557,6.4965589575\C,10.2379635701,22.8989396275,5.39912
 1893\C,11.4690717231,22.8848388545,5.9155109766\C,10.1742240576,22.162
 1384882,13.7020233549\C,10.1759340534,23.5952605664,13.6759614342\Cl,4
 .5344394267,19.0860378599,10.6802031969\Cl,3.6777643238,20.920197006,7
 .6263998115\Cl,3.6373376377,24.8417728463,7.6381850546\Cl,4.4876278311
 ,26.6927736474,10.7233893934\Cl,5.2436247477,21.0025590819,13.88370682
 27\Cl,5.2188094278,24.7667486142,13.895828039\Cl,14.8080875555,20.8726
 518804,11.8762492411\Cl,14.7871122633,24.8314032618,11.9344054197\Cl,1
 3.9463111855,18.970272038,8.4864432473\Cl,13.3723423141,20.914795271,5
 .3734611145\Cl,13.9492774806,26.8023550322,8.4645785449\Cl,13.37428023
 32,24.8237777271,5.3500607324\Cl,9.6766621821,20.8804307043,3.55191438
 8\Cl,7.9116712705,16.8440209277,10.9412503941\Cl,8.6451020832,18.91178
 52267,14.5863140632\Cl,12.1871089923,20.744200792,14.9688836976\\Versi
 on=ES64L-G16RevA.03\State=1-A\HF=-10564.235933\RMSD=6.079e-09\RMSF=2.1
 48e-05\Dipole=-0.4634424,1.7099695,-0.4286713\Quadrupole=-18.8745504,1
 6.4472929,2.4272574,-1.2122644,8.8691713,7.2168535\PG=C01 [X(C84Cl16)]
 \\@


 DO YOU KNOW THAT THE LETTERS IN "EPISCOPAL", WHEN
 REARRANGED, SPELL "PEPSI COLA"?
 Job cpu time:       1 days 13 hours 59 minutes 40.0 seconds.
 Elapsed time:       0 days  1 hours 35 minutes  7.0 seconds.
 File lengths (MBytes):  RWF=   1500 Int=      0 D2E=      0 Chk=    187 Scr=      1
 Normal termination of Gaussian 16 at Tue Jun 28 00:02:52 2022.
