 Entering Gaussian System, Link 0=g16
 Input=16_addons_C84_14_Cl22_rank_8.gjf
 Output=16_addons_C84_14_Cl22_rank_8.log
 Initial command:
 /home/mkliu/g16/l1.exe "/data/scratch/Gau-154466.inp" -scrdir="/data/scratch/"
 Entering Link 1 = /home/mkliu/g16/l1.exe PID=    154467.
  
 Copyright (c) 1988,1990,1992,1993,1995,1998,2003,2009,2016,
            Gaussian, Inc.  All Rights Reserved.
  
 This is part of the Gaussian(R) 16 program.  It is based on
 the Gaussian(R) 09 system (copyright 2009, Gaussian, Inc.),
 the Gaussian(R) 03 system (copyright 2003, Gaussian, Inc.),
 the Gaussian(R) 98 system (copyright 1998, Gaussian, Inc.),
 the Gaussian(R) 94 system (copyright 1995, Gaussian, Inc.),
 the Gaussian 92(TM) system (copyright 1992, Gaussian, Inc.),
 the Gaussian 90(TM) system (copyright 1990, Gaussian, Inc.),
 the Gaussian 88(TM) system (copyright 1988, Gaussian, Inc.),
 the Gaussian 86(TM) system (copyright 1986, Carnegie Mellon
 University), and the Gaussian 82(TM) system (copyright 1983,
 Carnegie Mellon University). Gaussian is a federally registered
 trademark of Gaussian, Inc.
  
 This software contains proprietary and confidential information,
 including trade secrets, belonging to Gaussian, Inc.
  
 This software is provided under written license and may be
 used, copied, transmitted, or stored only in accord with that
 written license.
  
 The following legend is applicable only to US Government
 contracts under FAR:
  
                    RESTRICTED RIGHTS LEGEND
  
 Use, reproduction and disclosure by the US Government is
 subject to restrictions as set forth in subparagraphs (a)
 and (c) of the Commercial Computer Software - Restricted
 Rights clause in FAR 52.227-19.
  
 Gaussian, Inc.
 340 Quinnipiac St., Bldg. 40, Wallingford CT 06492
  
  
 ---------------------------------------------------------------
 Warning -- This program may not be used in any manner that
 competes with the business of Gaussian, Inc. or will provide
 assistance to any competitor of Gaussian, Inc.  The licensee
 of this program is prohibited from giving any competitor of
 Gaussian, Inc. access to this program.  By using this program,
 the user acknowledges that Gaussian, Inc. is engaged in the
 business of creating and licensing software in the field of
 computational chemistry and represents and warrants to the
 licensee that it is not a competitor of Gaussian, Inc. and that
 it will not use this program in any manner prohibited above.
 ---------------------------------------------------------------
  

 Cite this work as:
 Gaussian 16, Revision A.03,
 M. J. Frisch, G. W. Trucks, H. B. Schlegel, G. E. Scuseria, 
 M. A. Robb, J. R. Cheeseman, G. Scalmani, V. Barone, 
 G. A. Petersson, H. Nakatsuji, X. Li, M. Caricato, A. V. Marenich, 
 J. Bloino, B. G. Janesko, R. Gomperts, B. Mennucci, H. P. Hratchian, 
 J. V. Ortiz, A. F. Izmaylov, J. L. Sonnenberg, D. Williams-Young, 
 F. Ding, F. Lipparini, F. Egidi, J. Goings, B. Peng, A. Petrone, 
 T. Henderson, D. Ranasinghe, V. G. Zakrzewski, J. Gao, N. Rega, 
 G. Zheng, W. Liang, M. Hada, M. Ehara, K. Toyota, R. Fukuda, 
 J. Hasegawa, M. Ishida, T. Nakajima, Y. Honda, O. Kitao, H. Nakai, 
 T. Vreven, K. Throssell, J. A. Montgomery, Jr., J. E. Peralta, 
 F. Ogliaro, M. J. Bearpark, J. J. Heyd, E. N. Brothers, K. N. Kudin, 
 V. N. Staroverov, T. A. Keith, R. Kobayashi, J. Normand, 
 K. Raghavachari, A. P. Rendell, J. C. Burant, S. S. Iyengar, 
 J. Tomasi, M. Cossi, J. M. Millam, M. Klene, C. Adamo, R. Cammi, 
 J. W. Ochterski, R. L. Martin, K. Morokuma, O. Farkas, 
 J. B. Foresman, and D. J. Fox, Gaussian, Inc., Wallingford CT, 2016.
 
 ******************************************
 Gaussian 16:  ES64L-G16RevA.03 25-Dec-2016
                29-Jun-2022 
 ******************************************
 %mem=10GB
 %chk=16_addons_C84_14_Cl22_rank_8.chk
 %nprocshared=24
 Will use up to   24 processors via shared memory.
 ------------------------------------------------
 #P opt b3lyp/6-31G(d, p) empiricaldispersion=GD3
 ------------------------------------------------
 1/18=20,19=15,26=3,38=1/1,3;
 2/9=110,12=2,17=6,18=5,40=1/2;
 3/5=1,6=6,7=101,11=2,25=1,30=1,71=1,74=-5,124=31/1,2,3;
 4//1;
 5/5=2,38=5/2;
 6/7=2,8=2,9=2,10=2,28=1/1;
 7//1,2,3,16;
 1/18=20,19=15,26=3/3(2);
 2/9=110/2;
 99//99;
 2/9=110/2;
 3/5=1,6=6,7=101,11=2,25=1,30=1,71=1,74=-5,124=31/1,2,3;
 4/5=5,16=3,69=1/1;
 5/5=2,38=5/2;
 7//1,2,3,16;
 1/18=20,19=15,26=3/3(-5);
 2/9=110/2;
 6/7=2,8=2,9=2,10=2,19=2,28=1/1;
 99/9=1/99;
 Leave Link    1 at Wed Jun 29 13:53:55 2022, MaxMem=  1342177280 cpu:               0.6 elap:               0.1
 (Enter /home/mkliu/g16/l101.exe)
 -----
 force
 -----
 Symbolic Z-matrix:
 Charge =  0 Multiplicity = 1
 C                     8.22343   18.65439   10.58684 
 C                     12.46139   20.01844   8.90203 
 C                     8.27318   26.83304   10.5238 
 C                     12.46371   25.75066   8.9009 
 C                     7.95283   18.9625   9.1404 
 C                     11.8462   19.61319   10.20461 
 C                     7.95366   26.79862   9.12908 
 C                     11.85689   26.17768   10.20323 
 C                     8.94731   19.1454   8.15922 
 C                     12.09827   20.26526   11.37872 
 C                     12.10127   25.51472   11.38573 
 C                     8.95277   26.63088   8.14076 
 C                     10.28692   19.08173   8.59564 
 C                     10.28442   26.68113   8.59443 
 C                     10.5926   19.01552   10.00381 
 C                     10.60564   26.77343   9.98859 
 C                     9.61741   19.01687   11.00017 
 C                     9.60586   26.76377   10.98431 
 C                     9.88826   19.67888   12.20507 
 C                     9.88149   26.09175   12.2172 
 C                     8.77211   20.07574   13.12847 
 C                     8.78859   25.51266   12.90334 
 C                     7.46603   20.18287   12.38775 
 C                     7.47893   25.56936   12.39978 
 C                     7.2143    19.53576   11.26235 
 C                     7.21153   26.24418   11.23944 
 C                     6.12651   19.98079   10.32664 
 C                     6.10703   25.81418   10.31722 
 C                     6.71431   19.58369   9.01305 
 C                     6.67598   26.21657   8.98865 
 C                     6.38806   20.24499   7.86082 
 C                     6.3688    25.54952   7.84646 
 C                     7.3313    20.34633   6.82256 
 C                     7.32631   25.44087   6.80595 
 C                     8.66141   19.8907   6.97363 
 C                     8.65981   25.89207   6.95379 
 C                     9.7206    20.6024   6.30029 
 C                     9.71993   25.17073   6.29066 
 C                     11.04324   20.56586   6.82963 
 C                     12.63382   22.18908   7.78314 
 C                     12.63262   23.5779   7.78339 
 C                     11.04597   25.20224   6.83013 
 C                     11.30521   19.79125   7.94423 
 C                     12.80115   21.48232   8.95844 
 C                     12.79886   24.28635   8.9581 
 C                     11.31258   25.97395   7.93575 
 C                     13.01688   22.18467   10.15446 
 C                     13.01502   23.58498   10.15408 
 C                     13.03885   21.42643   11.46799 
 C                     13.03455   24.34293   11.46595 
 C                     12.39818   22.21936   12.57209 
 C                     12.39701   23.54392   12.5687 
 C                     11.12594   20.28519   12.38639 
 C                     11.14516   25.49455   12.39929 
 C                     11.41707   21.3936   13.36114 
 C                     11.41216   24.36118   13.35253 
 C                     8.95466   21.49374   13.59073 
 C                     8.95434   24.24513   13.57099 
 C                     7.74596   22.18853   13.47585 
 C                     7.73649   23.5511   13.48726 
 C                     6.68994   21.41331   12.76158 
 C                     6.68623   24.34923   12.77761 
 C                     6.25105   22.19027   11.52519 
 C                     6.25259   23.59342   11.52569 
 C                     5.96412   21.49485   10.34776 
 C                     5.96557   24.2936   10.34677 
 C                     5.66093   22.19336   9.16774 
 C                     5.66124   23.59493   9.16631 
 C                     5.44955   21.41939   7.86909 
 C                     5.44124   24.36507   7.86303 
 C                     5.95502   22.20796   6.69322 
 C                     5.95142   23.57516   6.69065 
 C                     7.006     21.50487   6.05324 
 C                     7.00657   24.27737   6.05311 
 C                     8.03523   22.16923   5.3927 
 C                     8.03606   23.60734   5.39162 
 C                     9.36301   21.70301   5.48327 
 C                     9.36325   24.06831   5.4852 
 C                     12.05691   21.63592   6.50707 
 C                     12.05756   24.12936   6.50546 
 C                     10.21117   22.88272   5.43863 
 C                     11.45827   22.88227   5.93322 
 C                     10.16727   22.16977   13.66038 
 C                     10.17183   23.57127   13.65595 
 Cl                    4.54237   19.21136   10.69367 
 Cl                    3.71225   20.9782   7.73908 
 Cl                    3.7004    24.79056   7.73727 
 Cl                    4.51855   26.55842   10.69916 
 Cl                    5.23914   21.05349   13.76363 
 Cl                    5.23375   24.70049   13.77296 
 Cl                    14.73638   20.95601   11.8462 
 Cl                    14.7332   24.81139   11.84839 
 Cl                    13.91532   19.05692   8.4603 
 Cl                    13.92211   26.70592   8.45026 
 Cl                    7.92532   16.89408   10.94285 
 Cl                    13.35177   24.80729   5.4313 
 Cl                    8.66733   18.92464   14.51761 
 Cl                    12.14355   20.76448   14.89238 
 Cl                    12.13808   24.97126   14.90602 
 Cl                    13.35391   20.95748   5.43081 
 
 ITRead=  0  0  0  0  0  0  0  0  0  0  0  0  0  0  0  0  0  0  0  0
 ITRead=  0  0  0  0  0  0  0  0  0  0  0  0  0  0  0  0  0  0  0  0
 ITRead=  0  0  0  0  0  0  0  0  0  0  0  0  0  0  0  0  0  0  0  0
 ITRead=  0  0  0  0  0  0  0  0  0  0  0  0  0  0  0  0  0  0  0  0
 ITRead=  0  0  0  0  0  0  0  0  0  0  0  0  0  0  0  0  0  0  0  0
 MicOpt= -1 -1 -1 -1 -1 -1 -1 -1 -1 -1 -1 -1 -1 -1 -1 -1 -1 -1 -1 -1
 MicOpt= -1 -1 -1 -1 -1 -1 -1 -1 -1 -1 -1 -1 -1 -1 -1 -1 -1 -1 -1 -1
 MicOpt= -1 -1 -1 -1 -1 -1 -1 -1 -1 -1 -1 -1 -1 -1 -1 -1 -1 -1 -1 -1
 MicOpt= -1 -1 -1 -1 -1 -1 -1 -1 -1 -1 -1 -1 -1 -1 -1 -1 -1 -1 -1 -1
 MicOpt= -1 -1 -1 -1 -1 -1 -1 -1 -1 -1 -1 -1 -1 -1 -1 -1 -1 -1 -1 -1
 NAtoms=    100 NQM=      100 NQMF=       0 NMMI=      0 NMMIF=      0
                NMic=       0 NMicF=      0.
                    Isotopes and Nuclear Properties:
 (Nuclear quadrupole moments (NQMom) in fm**2, nuclear magnetic moments (NMagM)
  in nuclear magnetons)

  Atom         1           2           3           4           5           6           7           8           9          10
 IAtWgt=          12          12          12          12          12          12          12          12          12          12
 AtmWgt=  12.0000000  12.0000000  12.0000000  12.0000000  12.0000000  12.0000000  12.0000000  12.0000000  12.0000000  12.0000000
 NucSpn=           0           0           0           0           0           0           0           0           0           0
 AtZEff=  -0.0000000  -0.0000000  -0.0000000  -0.0000000  -0.0000000  -0.0000000  -0.0000000  -0.0000000  -0.0000000  -0.0000000
 NQMom=    0.0000000   0.0000000   0.0000000   0.0000000   0.0000000   0.0000000   0.0000000   0.0000000   0.0000000   0.0000000
 NMagM=    0.0000000   0.0000000   0.0000000   0.0000000   0.0000000   0.0000000   0.0000000   0.0000000   0.0000000   0.0000000
 AtZNuc=   6.0000000   6.0000000   6.0000000   6.0000000   6.0000000   6.0000000   6.0000000   6.0000000   6.0000000   6.0000000

  Atom        11          12          13          14          15          16          17          18          19          20
 IAtWgt=          12          12          12          12          12          12          12          12          12          12
 AtmWgt=  12.0000000  12.0000000  12.0000000  12.0000000  12.0000000  12.0000000  12.0000000  12.0000000  12.0000000  12.0000000
 NucSpn=           0           0           0           0           0           0           0           0           0           0
 AtZEff=  -0.0000000  -0.0000000  -0.0000000  -0.0000000  -0.0000000  -0.0000000  -0.0000000  -0.0000000  -0.0000000  -0.0000000
 NQMom=    0.0000000   0.0000000   0.0000000   0.0000000   0.0000000   0.0000000   0.0000000   0.0000000   0.0000000   0.0000000
 NMagM=    0.0000000   0.0000000   0.0000000   0.0000000   0.0000000   0.0000000   0.0000000   0.0000000   0.0000000   0.0000000
 AtZNuc=   6.0000000   6.0000000   6.0000000   6.0000000   6.0000000   6.0000000   6.0000000   6.0000000   6.0000000   6.0000000

  Atom        21          22          23          24          25          26          27          28          29          30
 IAtWgt=          12          12          12          12          12          12          12          12          12          12
 AtmWgt=  12.0000000  12.0000000  12.0000000  12.0000000  12.0000000  12.0000000  12.0000000  12.0000000  12.0000000  12.0000000
 NucSpn=           0           0           0           0           0           0           0           0           0           0
 AtZEff=  -0.0000000  -0.0000000  -0.0000000  -0.0000000  -0.0000000  -0.0000000  -0.0000000  -0.0000000  -0.0000000  -0.0000000
 NQMom=    0.0000000   0.0000000   0.0000000   0.0000000   0.0000000   0.0000000   0.0000000   0.0000000   0.0000000   0.0000000
 NMagM=    0.0000000   0.0000000   0.0000000   0.0000000   0.0000000   0.0000000   0.0000000   0.0000000   0.0000000   0.0000000
 AtZNuc=   6.0000000   6.0000000   6.0000000   6.0000000   6.0000000   6.0000000   6.0000000   6.0000000   6.0000000   6.0000000

  Atom        31          32          33          34          35          36          37          38          39          40
 IAtWgt=          12          12          12          12          12          12          12          12          12          12
 AtmWgt=  12.0000000  12.0000000  12.0000000  12.0000000  12.0000000  12.0000000  12.0000000  12.0000000  12.0000000  12.0000000
 NucSpn=           0           0           0           0           0           0           0           0           0           0
 AtZEff=  -0.0000000  -0.0000000  -0.0000000  -0.0000000  -0.0000000  -0.0000000  -0.0000000  -0.0000000  -0.0000000  -0.0000000
 NQMom=    0.0000000   0.0000000   0.0000000   0.0000000   0.0000000   0.0000000   0.0000000   0.0000000   0.0000000   0.0000000
 NMagM=    0.0000000   0.0000000   0.0000000   0.0000000   0.0000000   0.0000000   0.0000000   0.0000000   0.0000000   0.0000000
 AtZNuc=   6.0000000   6.0000000   6.0000000   6.0000000   6.0000000   6.0000000   6.0000000   6.0000000   6.0000000   6.0000000

  Atom        41          42          43          44          45          46          47          48          49          50
 IAtWgt=          12          12          12          12          12          12          12          12          12          12
 AtmWgt=  12.0000000  12.0000000  12.0000000  12.0000000  12.0000000  12.0000000  12.0000000  12.0000000  12.0000000  12.0000000
 NucSpn=           0           0           0           0           0           0           0           0           0           0
 AtZEff=  -0.0000000  -0.0000000  -0.0000000  -0.0000000  -0.0000000  -0.0000000  -0.0000000  -0.0000000  -0.0000000  -0.0000000
 NQMom=    0.0000000   0.0000000   0.0000000   0.0000000   0.0000000   0.0000000   0.0000000   0.0000000   0.0000000   0.0000000
 NMagM=    0.0000000   0.0000000   0.0000000   0.0000000   0.0000000   0.0000000   0.0000000   0.0000000   0.0000000   0.0000000
 AtZNuc=   6.0000000   6.0000000   6.0000000   6.0000000   6.0000000   6.0000000   6.0000000   6.0000000   6.0000000   6.0000000

  Atom        51          52          53          54          55          56          57          58          59          60
 IAtWgt=          12          12          12          12          12          12          12          12          12          12
 AtmWgt=  12.0000000  12.0000000  12.0000000  12.0000000  12.0000000  12.0000000  12.0000000  12.0000000  12.0000000  12.0000000
 NucSpn=           0           0           0           0           0           0           0           0           0           0
 AtZEff=  -0.0000000  -0.0000000  -0.0000000  -0.0000000  -0.0000000  -0.0000000  -0.0000000  -0.0000000  -0.0000000  -0.0000000
 NQMom=    0.0000000   0.0000000   0.0000000   0.0000000   0.0000000   0.0000000   0.0000000   0.0000000   0.0000000   0.0000000
 NMagM=    0.0000000   0.0000000   0.0000000   0.0000000   0.0000000   0.0000000   0.0000000   0.0000000   0.0000000   0.0000000
 AtZNuc=   6.0000000   6.0000000   6.0000000   6.0000000   6.0000000   6.0000000   6.0000000   6.0000000   6.0000000   6.0000000

  Atom        61          62          63          64          65          66          67          68          69          70
 IAtWgt=          12          12          12          12          12          12          12          12          12          12
 AtmWgt=  12.0000000  12.0000000  12.0000000  12.0000000  12.0000000  12.0000000  12.0000000  12.0000000  12.0000000  12.0000000
 NucSpn=           0           0           0           0           0           0           0           0           0           0
 AtZEff=  -0.0000000  -0.0000000  -0.0000000  -0.0000000  -0.0000000  -0.0000000  -0.0000000  -0.0000000  -0.0000000  -0.0000000
 NQMom=    0.0000000   0.0000000   0.0000000   0.0000000   0.0000000   0.0000000   0.0000000   0.0000000   0.0000000   0.0000000
 NMagM=    0.0000000   0.0000000   0.0000000   0.0000000   0.0000000   0.0000000   0.0000000   0.0000000   0.0000000   0.0000000
 AtZNuc=   6.0000000   6.0000000   6.0000000   6.0000000   6.0000000   6.0000000   6.0000000   6.0000000   6.0000000   6.0000000

  Atom        71          72          73          74          75          76          77          78          79          80
 IAtWgt=          12          12          12          12          12          12          12          12          12          12
 AtmWgt=  12.0000000  12.0000000  12.0000000  12.0000000  12.0000000  12.0000000  12.0000000  12.0000000  12.0000000  12.0000000
 NucSpn=           0           0           0           0           0           0           0           0           0           0
 AtZEff=  -0.0000000  -0.0000000  -0.0000000  -0.0000000  -0.0000000  -0.0000000  -0.0000000  -0.0000000  -0.0000000  -0.0000000
 NQMom=    0.0000000   0.0000000   0.0000000   0.0000000   0.0000000   0.0000000   0.0000000   0.0000000   0.0000000   0.0000000
 NMagM=    0.0000000   0.0000000   0.0000000   0.0000000   0.0000000   0.0000000   0.0000000   0.0000000   0.0000000   0.0000000
 AtZNuc=   6.0000000   6.0000000   6.0000000   6.0000000   6.0000000   6.0000000   6.0000000   6.0000000   6.0000000   6.0000000

  Atom        81          82          83          84          85          86          87          88          89          90
 IAtWgt=          12          12          12          12          35          35          35          35          35          35
 AtmWgt=  12.0000000  12.0000000  12.0000000  12.0000000  34.9688527  34.9688527  34.9688527  34.9688527  34.9688527  34.9688527
 NucSpn=           0           0           0           0           3           3           3           3           3           3
 AtZEff=  -0.0000000  -0.0000000  -0.0000000  -0.0000000  -0.0000000  -0.0000000  -0.0000000  -0.0000000  -0.0000000  -0.0000000
 NQMom=    0.0000000   0.0000000   0.0000000   0.0000000  -8.1650000  -8.1650000  -8.1650000  -8.1650000  -8.1650000  -8.1650000
 NMagM=    0.0000000   0.0000000   0.0000000   0.0000000   0.8218740   0.8218740   0.8218740   0.8218740   0.8218740   0.8218740
 AtZNuc=   6.0000000   6.0000000   6.0000000   6.0000000  17.0000000  17.0000000  17.0000000  17.0000000  17.0000000  17.0000000

  Atom        91          92          93          94          95          96          97          98          99         100
 IAtWgt=          35          35          35          35          35          35          35          35          35          35
 AtmWgt=  34.9688527  34.9688527  34.9688527  34.9688527  34.9688527  34.9688527  34.9688527  34.9688527  34.9688527  34.9688527
 NucSpn=           3           3           3           3           3           3           3           3           3           3
 AtZEff=  -0.0000000  -0.0000000  -0.0000000  -0.0000000  -0.0000000  -0.0000000  -0.0000000  -0.0000000  -0.0000000  -0.0000000
 NQMom=   -8.1650000  -8.1650000  -8.1650000  -8.1650000  -8.1650000  -8.1650000  -8.1650000  -8.1650000  -8.1650000  -8.1650000
 NMagM=    0.8218740   0.8218740   0.8218740   0.8218740   0.8218740   0.8218740   0.8218740   0.8218740   0.8218740   0.8218740
 AtZNuc=  17.0000000  17.0000000  17.0000000  17.0000000  17.0000000  17.0000000  17.0000000  17.0000000  17.0000000  17.0000000
 Leave Link  101 at Wed Jun 29 13:53:56 2022, MaxMem=  1342177280 cpu:               6.8 elap:               0.3
 (Enter /home/mkliu/g16/l103.exe)

 GradGradGradGradGradGradGradGradGradGradGradGradGradGradGradGradGradGrad
 Berny optimization.
 Initialization pass.
                           ----------------------------
                           !    Initial Parameters    !
                           ! (Angstroms and Degrees)  !
 --------------------------                            --------------------------
 ! Name  Definition              Value          Derivative Info.                !
 --------------------------------------------------------------------------------
 ! R1    R(1,5)                  1.5034         estimate D2E/DX2                !
 ! R2    R(1,17)                 1.4985         estimate D2E/DX2                !
 ! R3    R(1,25)                 1.5005         estimate D2E/DX2                !
 ! R4    R(1,95)                 1.8205         estimate D2E/DX2                !
 ! R5    R(2,6)                  1.4965         estimate D2E/DX2                !
 ! R6    R(2,43)                 1.5185         estimate D2E/DX2                !
 ! R7    R(2,44)                 1.5039         estimate D2E/DX2                !
 ! R8    R(2,93)                 1.7982         estimate D2E/DX2                !
 ! R9    R(3,7)                  1.4313         estimate D2E/DX2                !
 ! R10   R(3,18)                 1.4117         estimate D2E/DX2                !
 ! R11   R(3,26)                 1.4092         estimate D2E/DX2                !
 ! R12   R(4,8)                  1.4989         estimate D2E/DX2                !
 ! R13   R(4,45)                 1.5033         estimate D2E/DX2                !
 ! R14   R(4,46)                 1.5187         estimate D2E/DX2                !
 ! R15   R(4,94)                 1.8007         estimate D2E/DX2                !
 ! R16   R(5,9)                  1.409          estimate D2E/DX2                !
 ! R17   R(5,29)                 1.3914         estimate D2E/DX2                !
 ! R18   R(6,10)                 1.3665         estimate D2E/DX2                !
 ! R19   R(6,15)                 1.4032         estimate D2E/DX2                !
 ! R20   R(7,12)                 1.4153         estimate D2E/DX2                !
 ! R21   R(7,30)                 1.411          estimate D2E/DX2                !
 ! R22   R(8,11)                 1.3775         estimate D2E/DX2                !
 ! R23   R(8,16)                 1.4024         estimate D2E/DX2                !
 ! R24   R(9,13)                 1.4103         estimate D2E/DX2                !
 ! R25   R(9,35)                 1.4293         estimate D2E/DX2                !
 ! R26   R(10,49)                1.497          estimate D2E/DX2                !
 ! R27   R(10,53)                1.4004         estimate D2E/DX2                !
 ! R28   R(11,50)                1.5002         estimate D2E/DX2                !
 ! R29   R(11,54)                1.3935         estimate D2E/DX2                !
 ! R30   R(12,14)                1.4077         estimate D2E/DX2                !
 ! R31   R(12,36)                1.4285         estimate D2E/DX2                !
 ! R32   R(13,15)                1.4425         estimate D2E/DX2                !
 ! R33   R(13,43)                1.4017         estimate D2E/DX2                !
 ! R34   R(14,16)                1.4337         estimate D2E/DX2                !
 ! R35   R(14,46)                1.4111         estimate D2E/DX2                !
 ! R36   R(15,17)                1.3942         estimate D2E/DX2                !
 ! R37   R(16,18)                1.4111         estimate D2E/DX2                !
 ! R38   R(17,19)                1.4012         estimate D2E/DX2                !
 ! R39   R(18,20)                1.4309         estimate D2E/DX2                !
 ! R40   R(19,21)                1.502          estimate D2E/DX2                !
 ! R41   R(19,53)                1.3901         estimate D2E/DX2                !
 ! R42   R(20,22)                1.4144         estimate D2E/DX2                !
 ! R43   R(20,54)                1.4095         estimate D2E/DX2                !
 ! R44   R(21,23)                1.5053         estimate D2E/DX2                !
 ! R45   R(21,57)                1.5026         estimate D2E/DX2                !
 ! R46   R(21,97)                1.8071         estimate D2E/DX2                !
 ! R47   R(22,24)                1.4043         estimate D2E/DX2                !
 ! R48   R(22,58)                1.4422         estimate D2E/DX2                !
 ! R49   R(23,25)                1.3224         estimate D2E/DX2                !
 ! R50   R(23,61)                1.502          estimate D2E/DX2                !
 ! R51   R(24,26)                1.3687         estimate D2E/DX2                !
 ! R52   R(24,62)                1.5033         estimate D2E/DX2                !
 ! R53   R(25,27)                1.5023         estimate D2E/DX2                !
 ! R54   R(26,28)                1.5018         estimate D2E/DX2                !
 ! R55   R(27,29)                1.4929         estimate D2E/DX2                !
 ! R56   R(27,65)                1.5229         estimate D2E/DX2                !
 ! R57   R(27,85)                1.799          estimate D2E/DX2                !
 ! R58   R(28,30)                1.5002         estimate D2E/DX2                !
 ! R59   R(28,66)                1.5274         estimate D2E/DX2                !
 ! R60   R(28,88)                1.7953         estimate D2E/DX2                !
 ! R61   R(29,31)                1.368          estimate D2E/DX2                !
 ! R62   R(30,32)                1.3579         estimate D2E/DX2                !
 ! R63   R(31,33)                1.4064         estimate D2E/DX2                !
 ! R64   R(31,69)                1.5034         estimate D2E/DX2                !
 ! R65   R(32,34)                1.4182         estimate D2E/DX2                !
 ! R66   R(32,70)                1.5045         estimate D2E/DX2                !
 ! R67   R(33,35)                1.4141         estimate D2E/DX2                !
 ! R68   R(33,73)                1.4282         estimate D2E/DX2                !
 ! R69   R(34,36)                1.4155         estimate D2E/DX2                !
 ! R70   R(34,74)                1.4222         estimate D2E/DX2                !
 ! R71   R(35,37)                1.4428         estimate D2E/DX2                !
 ! R72   R(36,38)                1.4436         estimate D2E/DX2                !
 ! R73   R(37,39)                1.4251         estimate D2E/DX2                !
 ! R74   R(37,77)                1.4166         estimate D2E/DX2                !
 ! R75   R(38,42)                1.4319         estimate D2E/DX2                !
 ! R76   R(38,78)                1.4111         estimate D2E/DX2                !
 ! R77   R(39,43)                1.3824         estimate D2E/DX2                !
 ! R78   R(39,79)                1.5088         estimate D2E/DX2                !
 ! R79   R(40,41)                1.3888         estimate D2E/DX2                !
 ! R80   R(40,44)                1.3816         estimate D2E/DX2                !
 ! R81   R(40,79)                1.5057         estimate D2E/DX2                !
 ! R82   R(41,45)                1.3818         estimate D2E/DX2                !
 ! R83   R(41,80)                1.506          estimate D2E/DX2                !
 ! R84   R(42,46)                1.3744         estimate D2E/DX2                !
 ! R85   R(42,80)                1.5099         estimate D2E/DX2                !
 ! R86   R(44,47)                1.4037         estimate D2E/DX2                !
 ! R87   R(45,48)                1.4032         estimate D2E/DX2                !
 ! R88   R(47,48)                1.4003         estimate D2E/DX2                !
 ! R89   R(47,49)                1.5168         estimate D2E/DX2                !
 ! R90   R(48,50)                1.5152         estimate D2E/DX2                !
 ! R91   R(49,51)                1.5027         estimate D2E/DX2                !
 ! R92   R(49,91)                1.8017         estimate D2E/DX2                !
 ! R93   R(50,52)                1.5036         estimate D2E/DX2                !
 ! R94   R(50,92)                1.8031         estimate D2E/DX2                !
 ! R95   R(51,52)                1.3246         estimate D2E/DX2                !
 ! R96   R(51,55)                1.5057         estimate D2E/DX2                !
 ! R97   R(52,56)                1.5008         estimate D2E/DX2                !
 ! R98   R(53,55)                1.5045         estimate D2E/DX2                !
 ! R99   R(54,56)                1.5048         estimate D2E/DX2                !
 ! R100  R(55,83)                1.5013         estimate D2E/DX2                !
 ! R101  R(55,98)                1.8078         estimate D2E/DX2                !
 ! R102  R(56,84)                1.5015         estimate D2E/DX2                !
 ! R103  R(56,99)                1.82           estimate D2E/DX2                !
 ! R104  R(57,59)                1.3989         estimate D2E/DX2                !
 ! R105  R(57,83)                1.3901         estimate D2E/DX2                !
 ! R106  R(58,60)                1.4042         estimate D2E/DX2                !
 ! R107  R(58,84)                1.3941         estimate D2E/DX2                !
 ! R108  R(59,60)                1.3627         estimate D2E/DX2                !
 ! R109  R(59,61)                1.4921         estimate D2E/DX2                !
 ! R110  R(60,62)                1.4979         estimate D2E/DX2                !
 ! R111  R(61,63)                1.5248         estimate D2E/DX2                !
 ! R112  R(61,89)                1.7996         estimate D2E/DX2                !
 ! R113  R(62,64)                1.5253         estimate D2E/DX2                !
 ! R114  R(62,90)                1.7955         estimate D2E/DX2                !
 ! R115  R(63,64)                1.4032         estimate D2E/DX2                !
 ! R116  R(63,65)                1.3972         estimate D2E/DX2                !
 ! R117  R(64,66)                1.4009         estimate D2E/DX2                !
 ! R118  R(65,67)                1.4044         estimate D2E/DX2                !
 ! R119  R(66,68)                1.4051         estimate D2E/DX2                !
 ! R120  R(67,68)                1.4016         estimate D2E/DX2                !
 ! R121  R(67,69)                1.5265         estimate D2E/DX2                !
 ! R122  R(68,70)                1.5297         estimate D2E/DX2                !
 ! R123  R(69,71)                1.5033         estimate D2E/DX2                !
 ! R124  R(69,86)                1.7972         estimate D2E/DX2                !
 ! R125  R(70,72)                1.5029         estimate D2E/DX2                !
 ! R126  R(70,87)                1.7965         estimate D2E/DX2                !
 ! R127  R(71,72)                1.3672         estimate D2E/DX2                !
 ! R128  R(71,73)                1.4172         estimate D2E/DX2                !
 ! R129  R(72,74)                1.4188         estimate D2E/DX2                !
 ! R130  R(73,75)                1.3918         estimate D2E/DX2                !
 ! R131  R(74,76)                1.3951         estimate D2E/DX2                !
 ! R132  R(75,76)                1.4381         estimate D2E/DX2                !
 ! R133  R(75,77)                1.4102         estimate D2E/DX2                !
 ! R134  R(76,78)                1.4081         estimate D2E/DX2                !
 ! R135  R(77,81)                1.4536         estimate D2E/DX2                !
 ! R136  R(78,81)                1.4583         estimate D2E/DX2                !
 ! R137  R(79,82)                1.497          estimate D2E/DX2                !
 ! R138  R(79,100)               1.8168         estimate D2E/DX2                !
 ! R139  R(80,82)                1.4973         estimate D2E/DX2                !
 ! R140  R(80,96)                1.8134         estimate D2E/DX2                !
 ! R141  R(81,82)                1.3416         estimate D2E/DX2                !
 ! R142  R(83,84)                1.4015         estimate D2E/DX2                !
 ! A1    A(5,1,17)             112.5344         estimate D2E/DX2                !
 ! A2    A(5,1,25)             101.0521         estimate D2E/DX2                !
 ! A3    A(5,1,95)             110.9051         estimate D2E/DX2                !
 ! A4    A(17,1,25)            111.0618         estimate D2E/DX2                !
 ! A5    A(17,1,95)            109.4076         estimate D2E/DX2                !
 ! A6    A(25,1,95)            111.7029         estimate D2E/DX2                !
 ! A7    A(6,2,43)             101.2746         estimate D2E/DX2                !
 ! A8    A(6,2,44)             108.8948         estimate D2E/DX2                !
 ! A9    A(6,2,93)             113.6669         estimate D2E/DX2                !
 ! A10   A(43,2,44)            109.9574         estimate D2E/DX2                !
 ! A11   A(43,2,93)            112.376          estimate D2E/DX2                !
 ! A12   A(44,2,93)            110.3063         estimate D2E/DX2                !
 ! A13   A(7,3,18)             121.8327         estimate D2E/DX2                !
 ! A14   A(7,3,26)             108.4589         estimate D2E/DX2                !
 ! A15   A(18,3,26)            121.6695         estimate D2E/DX2                !
 ! A16   A(8,4,45)             109.5549         estimate D2E/DX2                !
 ! A17   A(8,4,46)             101.7373         estimate D2E/DX2                !
 ! A18   A(8,4,94)             113.2157         estimate D2E/DX2                !
 ! A19   A(45,4,46)            109.657          estimate D2E/DX2                !
 ! A20   A(45,4,94)            110.2244         estimate D2E/DX2                !
 ! A21   A(46,4,94)            112.1386         estimate D2E/DX2                !
 ! A22   A(1,5,9)              124.7189         estimate D2E/DX2                !
 ! A23   A(1,5,29)             109.8618         estimate D2E/DX2                !
 ! A24   A(9,5,29)             120.4364         estimate D2E/DX2                !
 ! A25   A(2,6,10)             122.8771         estimate D2E/DX2                !
 ! A26   A(2,6,15)             110.9802         estimate D2E/DX2                !
 ! A27   A(10,6,15)            119.4068         estimate D2E/DX2                !
 ! A28   A(3,7,12)             121.7176         estimate D2E/DX2                !
 ! A29   A(3,7,30)             108.0015         estimate D2E/DX2                !
 ! A30   A(12,7,30)            121.3879         estimate D2E/DX2                !
 ! A31   A(4,8,11)             122.4747         estimate D2E/DX2                !
 ! A32   A(4,8,16)             110.4421         estimate D2E/DX2                !
 ! A33   A(11,8,16)            119.6127         estimate D2E/DX2                !
 ! A34   A(5,9,13)             116.6844         estimate D2E/DX2                !
 ! A35   A(5,9,35)             120.2756         estimate D2E/DX2                !
 ! A36   A(13,9,35)            118.0484         estimate D2E/DX2                !
 ! A37   A(6,10,49)            122.4992         estimate D2E/DX2                !
 ! A38   A(6,10,53)            119.7984         estimate D2E/DX2                !
 ! A39   A(49,10,53)           112.4761         estimate D2E/DX2                !
 ! A40   A(8,11,50)            122.1538         estimate D2E/DX2                !
 ! A41   A(8,11,54)            120.6384         estimate D2E/DX2                !
 ! A42   A(50,11,54)           112.1261         estimate D2E/DX2                !
 ! A43   A(7,12,14)            116.0088         estimate D2E/DX2                !
 ! A44   A(7,12,36)            119.7864         estimate D2E/DX2                !
 ! A45   A(14,12,36)           118.7018         estimate D2E/DX2                !
 ! A46   A(9,13,15)            120.36           estimate D2E/DX2                !
 ! A47   A(9,13,43)            121.5601         estimate D2E/DX2                !
 ! A48   A(15,13,43)           108.8428         estimate D2E/DX2                !
 ! A49   A(12,14,16)           121.8462         estimate D2E/DX2                !
 ! A50   A(12,14,46)           121.3962         estimate D2E/DX2                !
 ! A51   A(16,14,46)           108.8413         estimate D2E/DX2                !
 ! A52   A(6,15,13)            108.0264         estimate D2E/DX2                !
 ! A53   A(6,15,17)            121.4802         estimate D2E/DX2                !
 ! A54   A(13,15,17)           123.3253         estimate D2E/DX2                !
 ! A55   A(8,16,14)            108.7478         estimate D2E/DX2                !
 ! A56   A(8,16,18)            121.417          estimate D2E/DX2                !
 ! A57   A(14,16,18)           121.8044         estimate D2E/DX2                !
 ! A58   A(1,17,15)            116.9578         estimate D2E/DX2                !
 ! A59   A(1,17,19)            122.0925         estimate D2E/DX2                !
 ! A60   A(15,17,19)           118.6717         estimate D2E/DX2                !
 ! A61   A(3,18,16)            115.9981         estimate D2E/DX2                !
 ! A62   A(3,18,20)            119.0743         estimate D2E/DX2                !
 ! A63   A(16,18,20)           118.3412         estimate D2E/DX2                !
 ! A64   A(17,19,21)           120.6539         estimate D2E/DX2                !
 ! A65   A(17,19,53)           119.3624         estimate D2E/DX2                !
 ! A66   A(21,19,53)           117.7884         estimate D2E/DX2                !
 ! A67   A(18,20,22)           117.4777         estimate D2E/DX2                !
 ! A68   A(18,20,54)           118.8808         estimate D2E/DX2                !
 ! A69   A(22,20,54)           117.1681         estimate D2E/DX2                !
 ! A70   A(19,21,23)           111.1646         estimate D2E/DX2                !
 ! A71   A(19,21,57)           110.3777         estimate D2E/DX2                !
 ! A72   A(19,21,97)           110.3265         estimate D2E/DX2                !
 ! A73   A(23,21,57)           100.9313         estimate D2E/DX2                !
 ! A74   A(23,21,97)           111.9177         estimate D2E/DX2                !
 ! A75   A(57,21,97)           111.8192         estimate D2E/DX2                !
 ! A76   A(20,22,24)           122.0148         estimate D2E/DX2                !
 ! A77   A(20,22,58)           119.7104         estimate D2E/DX2                !
 ! A78   A(24,22,58)           107.9799         estimate D2E/DX2                !
 ! A79   A(21,23,25)           123.3065         estimate D2E/DX2                !
 ! A80   A(21,23,61)           112.5907         estimate D2E/DX2                !
 ! A81   A(25,23,61)           120.9527         estimate D2E/DX2                !
 ! A82   A(22,24,26)           120.4056         estimate D2E/DX2                !
 ! A83   A(22,24,62)           111.6466         estimate D2E/DX2                !
 ! A84   A(26,24,62)           120.6795         estimate D2E/DX2                !
 ! A85   A(1,25,23)            122.8574         estimate D2E/DX2                !
 ! A86   A(1,25,27)            112.3691         estimate D2E/DX2                !
 ! A87   A(23,25,27)           121.5308         estimate D2E/DX2                !
 ! A88   A(3,26,24)            119.2984         estimate D2E/DX2                !
 ! A89   A(3,26,28)            111.2143         estimate D2E/DX2                !
 ! A90   A(24,26,28)           121.5424         estimate D2E/DX2                !
 ! A91   A(25,27,29)           100.6117         estimate D2E/DX2                !
 ! A92   A(25,27,65)           111.2903         estimate D2E/DX2                !
 ! A93   A(25,27,85)           112.5717         estimate D2E/DX2                !
 ! A94   A(29,27,65)           108.581          estimate D2E/DX2                !
 ! A95   A(29,27,85)           114.3601         estimate D2E/DX2                !
 ! A96   A(65,27,85)           109.1776         estimate D2E/DX2                !
 ! A97   A(26,28,30)           100.8423         estimate D2E/DX2                !
 ! A98   A(26,28,66)           109.9547         estimate D2E/DX2                !
 ! A99   A(26,28,88)           113.6657         estimate D2E/DX2                !
 ! A100  A(30,28,66)           108.6188         estimate D2E/DX2                !
 ! A101  A(30,28,88)           114.379          estimate D2E/DX2                !
 ! A102  A(66,28,88)           109.0643         estimate D2E/DX2                !
 ! A103  A(5,29,27)            112.8732         estimate D2E/DX2                !
 ! A104  A(5,29,31)            120.3438         estimate D2E/DX2                !
 ! A105  A(27,29,31)           121.2405         estimate D2E/DX2                !
 ! A106  A(7,30,28)            111.4637         estimate D2E/DX2                !
 ! A107  A(7,30,32)            119.4184         estimate D2E/DX2                !
 ! A108  A(28,30,32)           121.8264         estimate D2E/DX2                !
 ! A109  A(29,31,33)           119.7815         estimate D2E/DX2                !
 ! A110  A(29,31,69)           121.4586         estimate D2E/DX2                !
 ! A111  A(33,31,69)           111.4972         estimate D2E/DX2                !
 ! A112  A(30,32,34)           120.1346         estimate D2E/DX2                !
 ! A113  A(30,32,70)           121.1262         estimate D2E/DX2                !
 ! A114  A(34,32,70)           111.3472         estimate D2E/DX2                !
 ! A115  A(31,33,35)           121.922          estimate D2E/DX2                !
 ! A116  A(31,33,73)           107.6593         estimate D2E/DX2                !
 ! A117  A(35,33,73)           122.218          estimate D2E/DX2                !
 ! A118  A(32,34,36)           122.3439         estimate D2E/DX2                !
 ! A119  A(32,34,74)           107.4126         estimate D2E/DX2                !
 ! A120  A(36,34,74)           121.8601         estimate D2E/DX2                !
 ! A121  A(9,35,33)            116.4098         estimate D2E/DX2                !
 ! A122  A(9,35,37)            119.8337         estimate D2E/DX2                !
 ! A123  A(33,35,37)           118.7975         estimate D2E/DX2                !
 ! A124  A(12,36,34)           116.4133         estimate D2E/DX2                !
 ! A125  A(12,36,38)           119.3096         estimate D2E/DX2                !
 ! A126  A(34,36,38)           118.9845         estimate D2E/DX2                !
 ! A127  A(35,37,39)           119.6914         estimate D2E/DX2                !
 ! A128  A(35,37,77)           117.8456         estimate D2E/DX2                !
 ! A129  A(39,37,77)           117.9324         estimate D2E/DX2                !
 ! A130  A(36,38,42)           119.7361         estimate D2E/DX2                !
 ! A131  A(36,38,78)           117.836          estimate D2E/DX2                !
 ! A132  A(42,38,78)           117.795          estimate D2E/DX2                !
 ! A133  A(37,39,43)           119.3233         estimate D2E/DX2                !
 ! A134  A(37,39,79)           121.7304         estimate D2E/DX2                !
 ! A135  A(43,39,79)           116.2603         estimate D2E/DX2                !
 ! A136  A(41,40,44)           120.7642         estimate D2E/DX2                !
 ! A137  A(41,40,79)           111.5427         estimate D2E/DX2                !
 ! A138  A(44,40,79)           125.4089         estimate D2E/DX2                !
 ! A139  A(40,41,45)           120.8461         estimate D2E/DX2                !
 ! A140  A(40,41,80)           111.4919         estimate D2E/DX2                !
 ! A141  A(45,41,80)           125.4209         estimate D2E/DX2                !
 ! A142  A(38,42,46)           119.6739         estimate D2E/DX2                !
 ! A143  A(38,42,80)           121.5863         estimate D2E/DX2                !
 ! A144  A(46,42,80)           116.2302         estimate D2E/DX2                !
 ! A145  A(2,43,13)            109.618          estimate D2E/DX2                !
 ! A146  A(2,43,39)            124.6831         estimate D2E/DX2                !
 ! A147  A(13,43,39)           121.3783         estimate D2E/DX2                !
 ! A148  A(2,44,40)            116.0199         estimate D2E/DX2                !
 ! A149  A(2,44,47)            123.6246         estimate D2E/DX2                !
 ! A150  A(40,44,47)           119.1751         estimate D2E/DX2                !
 ! A151  A(4,45,41)            116.1187         estimate D2E/DX2                !
 ! A152  A(4,45,48)            123.6183         estimate D2E/DX2                !
 ! A153  A(41,45,48)           119.1324         estimate D2E/DX2                !
 ! A154  A(4,46,14)            109.2277         estimate D2E/DX2                !
 ! A155  A(4,46,42)            125.1488         estimate D2E/DX2                !
 ! A156  A(14,46,42)           121.0351         estimate D2E/DX2                !
 ! A157  A(44,47,48)           119.9954         estimate D2E/DX2                !
 ! A158  A(44,47,49)           119.3382         estimate D2E/DX2                !
 ! A159  A(48,47,49)           120.0092         estimate D2E/DX2                !
 ! A160  A(45,48,47)           120.0177         estimate D2E/DX2                !
 ! A161  A(45,48,50)           119.3334         estimate D2E/DX2                !
 ! A162  A(47,48,50)           119.9981         estimate D2E/DX2                !
 ! A163  A(10,49,47)           109.0868         estimate D2E/DX2                !
 ! A164  A(10,49,51)           100.6744         estimate D2E/DX2                !
 ! A165  A(10,49,91)           113.7026         estimate D2E/DX2                !
 ! A166  A(47,49,51)           111.4876         estimate D2E/DX2                !
 ! A167  A(47,49,91)           109.0238         estimate D2E/DX2                !
 ! A168  A(51,49,91)           112.6587         estimate D2E/DX2                !
 ! A169  A(11,50,48)           109.6583         estimate D2E/DX2                !
 ! A170  A(11,50,52)           100.9825         estimate D2E/DX2                !
 ! A171  A(11,50,92)           113.2338         estimate D2E/DX2                !
 ! A172  A(48,50,52)           111.3269         estimate D2E/DX2                !
 ! A173  A(48,50,92)           109.0107         estimate D2E/DX2                !
 ! A174  A(52,50,92)           112.4541         estimate D2E/DX2                !
 ! A175  A(49,51,52)           121.7457         estimate D2E/DX2                !
 ! A176  A(49,51,55)           111.9287         estimate D2E/DX2                !
 ! A177  A(52,51,55)           123.3121         estimate D2E/DX2                !
 ! A178  A(50,52,51)           122.2008         estimate D2E/DX2                !
 ! A179  A(50,52,56)           111.8333         estimate D2E/DX2                !
 ! A180  A(51,52,56)           122.9434         estimate D2E/DX2                !
 ! A181  A(10,53,19)           121.2066         estimate D2E/DX2                !
 ! A182  A(10,53,55)           110.0177         estimate D2E/DX2                !
 ! A183  A(19,53,55)           125.3202         estimate D2E/DX2                !
 ! A184  A(11,54,20)           121.0            estimate D2E/DX2                !
 ! A185  A(11,54,56)           110.4815         estimate D2E/DX2                !
 ! A186  A(20,54,56)           124.0575         estimate D2E/DX2                !
 ! A187  A(51,55,53)           100.9886         estimate D2E/DX2                !
 ! A188  A(51,55,83)           111.3068         estimate D2E/DX2                !
 ! A189  A(51,55,98)           111.8933         estimate D2E/DX2                !
 ! A190  A(53,55,83)           110.422          estimate D2E/DX2                !
 ! A191  A(53,55,98)           111.7246         estimate D2E/DX2                !
 ! A192  A(83,55,98)           110.2192         estimate D2E/DX2                !
 ! A193  A(52,56,54)           101.2876         estimate D2E/DX2                !
 ! A194  A(52,56,84)           111.1707         estimate D2E/DX2                !
 ! A195  A(52,56,99)           111.5066         estimate D2E/DX2                !
 ! A196  A(54,56,84)           112.1891         estimate D2E/DX2                !
 ! A197  A(54,56,99)           111.0388         estimate D2E/DX2                !
 ! A198  A(84,56,99)           109.472          estimate D2E/DX2                !
 ! A199  A(21,57,59)           109.7845         estimate D2E/DX2                !
 ! A200  A(21,57,83)           125.4751         estimate D2E/DX2                !
 ! A201  A(59,57,83)           121.0847         estimate D2E/DX2                !
 ! A202  A(22,58,60)           107.8852         estimate D2E/DX2                !
 ! A203  A(22,58,84)           123.6007         estimate D2E/DX2                !
 ! A204  A(60,58,84)           121.4756         estimate D2E/DX2                !
 ! A205  A(57,59,60)           120.1303         estimate D2E/DX2                !
 ! A206  A(57,59,61)           113.1278         estimate D2E/DX2                !
 ! A207  A(60,59,61)           121.2392         estimate D2E/DX2                !
 ! A208  A(58,60,59)           119.2539         estimate D2E/DX2                !
 ! A209  A(58,60,62)           111.901          estimate D2E/DX2                !
 ! A210  A(59,60,62)           122.2567         estimate D2E/DX2                !
 ! A211  A(23,61,59)           100.3152         estimate D2E/DX2                !
 ! A212  A(23,61,63)           111.3667         estimate D2E/DX2                !
 ! A213  A(23,61,89)           113.039          estimate D2E/DX2                !
 ! A214  A(59,61,63)           109.0948         estimate D2E/DX2                !
 ! A215  A(59,61,89)           114.0738         estimate D2E/DX2                !
 ! A216  A(63,61,89)           108.7446         estimate D2E/DX2                !
 ! A217  A(24,62,60)           100.4757         estimate D2E/DX2                !
 ! A218  A(24,62,64)           110.2312         estimate D2E/DX2                !
 ! A219  A(24,62,90)           114.0236         estimate D2E/DX2                !
 ! A220  A(60,62,64)           108.9151         estimate D2E/DX2                !
 ! A221  A(60,62,90)           114.1302         estimate D2E/DX2                !
 ! A222  A(64,62,90)           108.781          estimate D2E/DX2                !
 ! A223  A(61,63,64)           120.5939         estimate D2E/DX2                !
 ! A224  A(61,63,65)           119.2616         estimate D2E/DX2                !
 ! A225  A(64,63,65)           119.8835         estimate D2E/DX2                !
 ! A226  A(62,64,63)           119.7432         estimate D2E/DX2                !
 ! A227  A(62,64,66)           120.086          estimate D2E/DX2                !
 ! A228  A(63,64,66)           119.9527         estimate D2E/DX2                !
 ! A229  A(27,65,63)           118.9871         estimate D2E/DX2                !
 ! A230  A(27,65,67)           120.3889         estimate D2E/DX2                !
 ! A231  A(63,65,67)           120.3205         estimate D2E/DX2                !
 ! A232  A(28,66,64)           119.6617         estimate D2E/DX2                !
 ! A233  A(28,66,68)           119.9221         estimate D2E/DX2                !
 ! A234  A(64,66,68)           120.1897         estimate D2E/DX2                !
 ! A235  A(65,67,68)           119.88           estimate D2E/DX2                !
 ! A236  A(65,67,69)           119.5071         estimate D2E/DX2                !
 ! A237  A(68,67,69)           120.4106         estimate D2E/DX2                !
 ! A238  A(66,68,67)           119.7651         estimate D2E/DX2                !
 ! A239  A(66,68,70)           119.7742         estimate D2E/DX2                !
 ! A240  A(67,68,70)           120.2837         estimate D2E/DX2                !
 ! A241  A(31,69,67)           108.3196         estimate D2E/DX2                !
 ! A242  A(31,69,71)           101.2777         estimate D2E/DX2                !
 ! A243  A(31,69,86)           114.2874         estimate D2E/DX2                !
 ! A244  A(67,69,71)           110.6651         estimate D2E/DX2                !
 ! A245  A(67,69,86)           108.6551         estimate D2E/DX2                !
 ! A246  A(71,69,86)           113.4048         estimate D2E/DX2                !
 ! A247  A(32,70,68)           108.4859         estimate D2E/DX2                !
 ! A248  A(32,70,72)           101.2973         estimate D2E/DX2                !
 ! A249  A(32,70,87)           114.2164         estimate D2E/DX2                !
 ! A250  A(68,70,72)           110.5594         estimate D2E/DX2                !
 ! A251  A(68,70,87)           108.5565         estimate D2E/DX2                !
 ! A252  A(72,70,87)           113.5046         estimate D2E/DX2                !
 ! A253  A(69,71,72)           121.6768         estimate D2E/DX2                !
 ! A254  A(69,71,73)           110.0183         estimate D2E/DX2                !
 ! A255  A(72,71,73)           119.8162         estimate D2E/DX2                !
 ! A256  A(70,72,71)           121.6695         estimate D2E/DX2                !
 ! A257  A(70,72,74)           110.0513         estimate D2E/DX2                !
 ! A258  A(71,72,74)           119.5923         estimate D2E/DX2                !
 ! A259  A(33,73,71)           109.1528         estimate D2E/DX2                !
 ! A260  A(33,73,75)           118.3222         estimate D2E/DX2                !
 ! A261  A(71,73,75)           121.7297         estimate D2E/DX2                !
 ! A262  A(34,74,72)           109.5263         estimate D2E/DX2                !
 ! A263  A(34,74,76)           118.5537         estimate D2E/DX2                !
 ! A264  A(72,74,76)           121.6114         estimate D2E/DX2                !
 ! A265  A(73,75,76)           118.564          estimate D2E/DX2                !
 ! A266  A(73,75,77)           120.5315         estimate D2E/DX2                !
 ! A267  A(76,75,77)           109.2756         estimate D2E/DX2                !
 ! A268  A(74,76,75)           118.6517         estimate D2E/DX2                !
 ! A269  A(74,76,78)           120.4503         estimate D2E/DX2                !
 ! A270  A(75,76,78)           109.1397         estimate D2E/DX2                !
 ! A271  A(37,77,75)           122.1127         estimate D2E/DX2                !
 ! A272  A(37,77,81)           120.0634         estimate D2E/DX2                !
 ! A273  A(75,77,81)           106.207          estimate D2E/DX2                !
 ! A274  A(38,78,76)           122.1362         estimate D2E/DX2                !
 ! A275  A(38,78,81)           120.4229         estimate D2E/DX2                !
 ! A276  A(76,78,81)           106.2456         estimate D2E/DX2                !
 ! A277  A(39,79,40)           109.6803         estimate D2E/DX2                !
 ! A278  A(39,79,82)           113.8125         estimate D2E/DX2                !
 ! A279  A(39,79,100)          109.963          estimate D2E/DX2                !
 ! A280  A(40,79,82)            99.9168         estimate D2E/DX2                !
 ! A281  A(40,79,100)          111.4506         estimate D2E/DX2                !
 ! A282  A(82,79,100)          111.6718         estimate D2E/DX2                !
 ! A283  A(41,80,42)           109.4854         estimate D2E/DX2                !
 ! A284  A(41,80,82)            99.9133         estimate D2E/DX2                !
 ! A285  A(41,80,96)           111.5324         estimate D2E/DX2                !
 ! A286  A(42,80,82)           113.9444         estimate D2E/DX2                !
 ! A287  A(42,80,96)           109.8698         estimate D2E/DX2                !
 ! A288  A(82,80,96)           111.7558         estimate D2E/DX2                !
 ! A289  A(77,81,78)           108.6352         estimate D2E/DX2                !
 ! A290  A(77,81,82)           122.0585         estimate D2E/DX2                !
 ! A291  A(78,81,82)           121.9359         estimate D2E/DX2                !
 ! A292  A(79,82,80)           112.7606         estimate D2E/DX2                !
 ! A293  A(79,82,81)           120.8847         estimate D2E/DX2                !
 ! A294  A(80,82,81)           120.8428         estimate D2E/DX2                !
 ! A295  A(55,83,57)           117.6959         estimate D2E/DX2                !
 ! A296  A(55,83,84)           120.9066         estimate D2E/DX2                !
 ! A297  A(57,83,84)           119.2751         estimate D2E/DX2                !
 ! A298  A(56,84,58)           117.0525         estimate D2E/DX2                !
 ! A299  A(56,84,83)           121.9659         estimate D2E/DX2                !
 ! A300  A(58,84,83)           118.731          estimate D2E/DX2                !
 ! D1    D(17,1,5,9)            19.8273         estimate D2E/DX2                !
 ! D2    D(17,1,5,29)         -135.0775         estimate D2E/DX2                !
 ! D3    D(25,1,5,9)           138.3481         estimate D2E/DX2                !
 ! D4    D(25,1,5,29)          -16.5566         estimate D2E/DX2                !
 ! D5    D(95,1,5,9)          -103.101          estimate D2E/DX2                !
 ! D6    D(95,1,5,29)          101.9943         estimate D2E/DX2                !
 ! D7    D(5,1,17,15)          -26.7456         estimate D2E/DX2                !
 ! D8    D(5,1,17,19)          135.8696         estimate D2E/DX2                !
 ! D9    D(25,1,17,15)        -139.2152         estimate D2E/DX2                !
 ! D10   D(25,1,17,19)          23.4            estimate D2E/DX2                !
 ! D11   D(95,1,17,15)          97.0181         estimate D2E/DX2                !
 ! D12   D(95,1,17,19)        -100.3668         estimate D2E/DX2                !
 ! D13   D(5,1,25,23)         -141.8965         estimate D2E/DX2                !
 ! D14   D(5,1,25,27)           17.99           estimate D2E/DX2                !
 ! D15   D(17,1,25,23)         -22.3154         estimate D2E/DX2                !
 ! D16   D(17,1,25,27)         137.5711         estimate D2E/DX2                !
 ! D17   D(95,1,25,23)         100.1313         estimate D2E/DX2                !
 ! D18   D(95,1,25,27)         -99.9822         estimate D2E/DX2                !
 ! D19   D(43,2,6,10)         -141.8492         estimate D2E/DX2                !
 ! D20   D(43,2,6,15)            9.0795         estimate D2E/DX2                !
 ! D21   D(44,2,6,10)          -25.9941         estimate D2E/DX2                !
 ! D22   D(44,2,6,15)          124.9346         estimate D2E/DX2                !
 ! D23   D(93,2,6,10)           97.4073         estimate D2E/DX2                !
 ! D24   D(93,2,6,15)         -111.664          estimate D2E/DX2                !
 ! D25   D(6,2,43,13)          -11.287          estimate D2E/DX2                !
 ! D26   D(6,2,43,39)          145.4747         estimate D2E/DX2                !
 ! D27   D(44,2,43,13)        -126.3551         estimate D2E/DX2                !
 ! D28   D(44,2,43,39)          30.4066         estimate D2E/DX2                !
 ! D29   D(93,2,43,13)         110.3623         estimate D2E/DX2                !
 ! D30   D(93,2,43,39)         -92.876          estimate D2E/DX2                !
 ! D31   D(6,2,44,40)         -143.9196         estimate D2E/DX2                !
 ! D32   D(6,2,44,47)           23.5291         estimate D2E/DX2                !
 ! D33   D(43,2,44,40)         -33.7903         estimate D2E/DX2                !
 ! D34   D(43,2,44,47)         133.6584         estimate D2E/DX2                !
 ! D35   D(93,2,44,40)          90.6965         estimate D2E/DX2                !
 ! D36   D(93,2,44,47)        -101.8548         estimate D2E/DX2                !
 ! D37   D(18,3,7,12)            2.9827         estimate D2E/DX2                !
 ! D38   D(18,3,7,30)          150.6136         estimate D2E/DX2                !
 ! D39   D(26,3,7,12)         -146.1894         estimate D2E/DX2                !
 ! D40   D(26,3,7,30)            1.4416         estimate D2E/DX2                !
 ! D41   D(7,3,18,16)            5.1832         estimate D2E/DX2                !
 ! D42   D(7,3,18,20)         -145.9181         estimate D2E/DX2                !
 ! D43   D(26,3,18,16)         150.3531         estimate D2E/DX2                !
 ! D44   D(26,3,18,20)          -0.7482         estimate D2E/DX2                !
 ! D45   D(7,3,26,24)          148.1882         estimate D2E/DX2                !
 ! D46   D(7,3,26,28)           -1.2726         estimate D2E/DX2                !
 ! D47   D(18,3,26,24)          -1.0441         estimate D2E/DX2                !
 ! D48   D(18,3,26,28)        -150.5048         estimate D2E/DX2                !
 ! D49   D(45,4,8,11)           24.9567         estimate D2E/DX2                !
 ! D50   D(45,4,8,16)         -124.621          estimate D2E/DX2                !
 ! D51   D(46,4,8,11)          140.9587         estimate D2E/DX2                !
 ! D52   D(46,4,8,16)           -8.619          estimate D2E/DX2                !
 ! D53   D(94,4,8,11)          -98.5155         estimate D2E/DX2                !
 ! D54   D(94,4,8,16)          111.9067         estimate D2E/DX2                !
 ! D55   D(8,4,45,41)          144.479          estimate D2E/DX2                !
 ! D56   D(8,4,45,48)          -23.2289         estimate D2E/DX2                !
 ! D57   D(46,4,45,41)          33.6172         estimate D2E/DX2                !
 ! D58   D(46,4,45,48)        -134.0907         estimate D2E/DX2                !
 ! D59   D(94,4,45,41)         -90.3046         estimate D2E/DX2                !
 ! D60   D(94,4,45,48)         101.9875         estimate D2E/DX2                !
 ! D61   D(8,4,46,14)           10.0284         estimate D2E/DX2                !
 ! D62   D(8,4,46,42)         -145.9447         estimate D2E/DX2                !
 ! D63   D(45,4,46,14)         125.9557         estimate D2E/DX2                !
 ! D64   D(45,4,46,42)         -30.0174         estimate D2E/DX2                !
 ! D65   D(94,4,46,14)        -111.2493         estimate D2E/DX2                !
 ! D66   D(94,4,46,42)          92.7776         estimate D2E/DX2                !
 ! D67   D(1,5,9,13)            -2.5452         estimate D2E/DX2                !
 ! D68   D(1,5,9,35)          -157.073          estimate D2E/DX2                !
 ! D69   D(29,5,9,13)          149.8964         estimate D2E/DX2                !
 ! D70   D(29,5,9,35)           -4.6313         estimate D2E/DX2                !
 ! D71   D(1,5,29,27)           10.0678         estimate D2E/DX2                !
 ! D72   D(1,5,29,31)          164.1204         estimate D2E/DX2                !
 ! D73   D(9,5,29,27)         -146.083          estimate D2E/DX2                !
 ! D74   D(9,5,29,31)            7.9696         estimate D2E/DX2                !
 ! D75   D(2,6,10,49)           -1.404          estimate D2E/DX2                !
 ! D76   D(2,6,10,53)          151.1152         estimate D2E/DX2                !
 ! D77   D(15,6,10,49)        -150.0191         estimate D2E/DX2                !
 ! D78   D(15,6,10,53)           2.5001         estimate D2E/DX2                !
 ! D79   D(2,6,15,13)           -3.8708         estimate D2E/DX2                !
 ! D80   D(2,6,15,17)         -155.1209         estimate D2E/DX2                !
 ! D81   D(10,6,15,13)         148.1968         estimate D2E/DX2                !
 ! D82   D(10,6,15,17)          -3.0533         estimate D2E/DX2                !
 ! D83   D(3,7,12,14)           -8.2342         estimate D2E/DX2                !
 ! D84   D(3,7,12,36)          145.2736         estimate D2E/DX2                !
 ! D85   D(30,7,12,14)        -151.6184         estimate D2E/DX2                !
 ! D86   D(30,7,12,36)           1.8895         estimate D2E/DX2                !
 ! D87   D(3,7,30,28)           -1.0943         estimate D2E/DX2                !
 ! D88   D(3,7,30,32)         -151.814          estimate D2E/DX2                !
 ! D89   D(12,7,30,28)         146.6646         estimate D2E/DX2                !
 ! D90   D(12,7,30,32)          -4.055          estimate D2E/DX2                !
 ! D91   D(4,8,11,50)            2.259          estimate D2E/DX2                !
 ! D92   D(4,8,11,54)         -150.5376         estimate D2E/DX2                !
 ! D93   D(16,8,11,50)         149.182          estimate D2E/DX2                !
 ! D94   D(16,8,11,54)          -3.6146         estimate D2E/DX2                !
 ! D95   D(4,8,16,14)            4.2933         estimate D2E/DX2                !
 ! D96   D(4,8,16,18)          153.551          estimate D2E/DX2                !
 ! D97   D(11,8,16,14)        -146.2762         estimate D2E/DX2                !
 ! D98   D(11,8,16,18)           2.9814         estimate D2E/DX2                !
 ! D99   D(5,9,13,15)           -8.1447         estimate D2E/DX2                !
 ! D100  D(5,9,13,43)         -151.1863         estimate D2E/DX2                !
 ! D101  D(35,9,13,15)         146.9674         estimate D2E/DX2                !
 ! D102  D(35,9,13,43)           3.9258         estimate D2E/DX2                !
 ! D103  D(5,9,35,33)           -3.6211         estimate D2E/DX2                !
 ! D104  D(5,9,35,37)          151.1778         estimate D2E/DX2                !
 ! D105  D(13,9,35,33)        -157.8099         estimate D2E/DX2                !
 ! D106  D(13,9,35,37)          -3.011          estimate D2E/DX2                !
 ! D107  D(6,10,49,47)          30.9027         estimate D2E/DX2                !
 ! D108  D(6,10,49,51)         148.2676         estimate D2E/DX2                !
 ! D109  D(6,10,49,91)         -91.0091         estimate D2E/DX2                !
 ! D110  D(53,10,49,47)       -123.4166         estimate D2E/DX2                !
 ! D111  D(53,10,49,51)         -6.0517         estimate D2E/DX2                !
 ! D112  D(53,10,49,91)        114.6716         estimate D2E/DX2                !
 ! D113  D(6,10,53,19)          -1.5663         estimate D2E/DX2                !
 ! D114  D(6,10,53,55)        -161.6368         estimate D2E/DX2                !
 ! D115  D(49,10,53,19)        153.5245         estimate D2E/DX2                !
 ! D116  D(49,10,53,55)         -6.546          estimate D2E/DX2                !
 ! D117  D(8,11,50,48)         -30.9438         estimate D2E/DX2                !
 ! D118  D(8,11,50,52)        -148.5072         estimate D2E/DX2                !
 ! D119  D(8,11,50,92)          91.0475         estimate D2E/DX2                !
 ! D120  D(54,11,50,48)        123.9307         estimate D2E/DX2                !
 ! D121  D(54,11,50,52)          6.3674         estimate D2E/DX2                !
 ! D122  D(54,11,50,92)       -114.078          estimate D2E/DX2                !
 ! D123  D(8,11,54,20)           3.2232         estimate D2E/DX2                !
 ! D124  D(8,11,54,56)         160.4231         estimate D2E/DX2                !
 ! D125  D(50,11,54,20)       -152.0809         estimate D2E/DX2                !
 ! D126  D(50,11,54,56)          5.1191         estimate D2E/DX2                !
 ! D127  D(7,12,14,16)           5.5158         estimate D2E/DX2                !
 ! D128  D(7,12,14,46)         151.0514         estimate D2E/DX2                !
 ! D129  D(36,12,14,16)       -148.2927         estimate D2E/DX2                !
 ! D130  D(36,12,14,46)         -2.7571         estimate D2E/DX2                !
 ! D131  D(7,12,36,34)           4.0954         estimate D2E/DX2                !
 ! D132  D(7,12,36,38)        -149.9741         estimate D2E/DX2                !
 ! D133  D(14,12,36,34)        156.898          estimate D2E/DX2                !
 ! D134  D(14,12,36,38)          2.8285         estimate D2E/DX2                !
 ! D135  D(9,13,15,6)         -150.9386         estimate D2E/DX2                !
 ! D136  D(9,13,15,17)          -0.3397         estimate D2E/DX2                !
 ! D137  D(43,13,15,6)          -3.7119         estimate D2E/DX2                !
 ! D138  D(43,13,15,17)        146.8869         estimate D2E/DX2                !
 ! D139  D(9,13,43,2)          156.4765         estimate D2E/DX2                !
 ! D140  D(9,13,43,39)          -1.188          estimate D2E/DX2                !
 ! D141  D(15,13,43,2)           9.7176         estimate D2E/DX2                !
 ! D142  D(15,13,43,39)       -147.947          estimate D2E/DX2                !
 ! D143  D(12,14,16,8)         151.7549         estimate D2E/DX2                !
 ! D144  D(12,14,16,18)          2.6395         estimate D2E/DX2                !
 ! D145  D(46,14,16,8)           2.4445         estimate D2E/DX2                !
 ! D146  D(46,14,16,18)       -146.6709         estimate D2E/DX2                !
 ! D147  D(12,14,46,4)        -157.5735         estimate D2E/DX2                !
 ! D148  D(12,14,46,42)         -0.4373         estimate D2E/DX2                !
 ! D149  D(16,14,46,4)          -8.0992         estimate D2E/DX2                !
 ! D150  D(16,14,46,42)        149.037          estimate D2E/DX2                !
 ! D151  D(6,15,17,1)          165.774          estimate D2E/DX2                !
 ! D152  D(6,15,17,19)           2.5425         estimate D2E/DX2                !
 ! D153  D(13,15,17,1)          18.962          estimate D2E/DX2                !
 ! D154  D(13,15,17,19)       -144.2695         estimate D2E/DX2                !
 ! D155  D(8,16,18,3)         -153.1894         estimate D2E/DX2                !
 ! D156  D(8,16,18,20)          -1.8675         estimate D2E/DX2                !
 ! D157  D(14,16,18,3)          -7.9102         estimate D2E/DX2                !
 ! D158  D(14,16,18,20)        143.4118         estimate D2E/DX2                !
 ! D159  D(1,17,19,21)          -1.0646         estimate D2E/DX2                !
 ! D160  D(1,17,19,53)        -163.8601         estimate D2E/DX2                !
 ! D161  D(15,17,19,21)        161.2649         estimate D2E/DX2                !
 ! D162  D(15,17,19,53)         -1.5305         estimate D2E/DX2                !
 ! D163  D(3,18,20,22)           0.8197         estimate D2E/DX2                !
 ! D164  D(3,18,20,54)         151.8211         estimate D2E/DX2                !
 ! D165  D(16,18,20,22)       -149.6084         estimate D2E/DX2                !
 ! D166  D(16,18,20,54)          1.3929         estimate D2E/DX2                !
 ! D167  D(17,19,21,23)        -22.4773         estimate D2E/DX2                !
 ! D168  D(17,19,21,57)       -133.6227         estimate D2E/DX2                !
 ! D169  D(17,19,21,97)        102.2922         estimate D2E/DX2                !
 ! D170  D(53,19,21,23)        140.5815         estimate D2E/DX2                !
 ! D171  D(53,19,21,57)         29.436          estimate D2E/DX2                !
 ! D172  D(53,19,21,97)        -94.6491         estimate D2E/DX2                !
 ! D173  D(17,19,53,10)          1.0657         estimate D2E/DX2                !
 ! D174  D(17,19,53,55)        157.9543         estimate D2E/DX2                !
 ! D175  D(21,19,53,10)       -162.2187         estimate D2E/DX2                !
 ! D176  D(21,19,53,55)         -5.3301         estimate D2E/DX2                !
 ! D177  D(18,20,22,24)          0.8554         estimate D2E/DX2                !
 ! D178  D(18,20,22,58)        141.7447         estimate D2E/DX2                !
 ! D179  D(54,20,22,24)       -150.646          estimate D2E/DX2                !
 ! D180  D(54,20,22,58)         -9.7568         estimate D2E/DX2                !
 ! D181  D(18,20,54,11)         -2.0783         estimate D2E/DX2                !
 ! D182  D(18,20,54,56)       -156.0906         estimate D2E/DX2                !
 ! D183  D(22,20,54,11)        149.0116         estimate D2E/DX2                !
 ! D184  D(22,20,54,56)         -5.0007         estimate D2E/DX2                !
 ! D185  D(19,21,23,25)         24.4802         estimate D2E/DX2                !
 ! D186  D(19,21,23,61)       -135.56           estimate D2E/DX2                !
 ! D187  D(57,21,23,25)        141.5496         estimate D2E/DX2                !
 ! D188  D(57,21,23,61)        -18.4906         estimate D2E/DX2                !
 ! D189  D(97,21,23,25)        -99.3887         estimate D2E/DX2                !
 ! D190  D(97,21,23,61)        100.5711         estimate D2E/DX2                !
 ! D191  D(19,21,57,59)        133.3016         estimate D2E/DX2                !
 ! D192  D(19,21,57,83)        -25.1506         estimate D2E/DX2                !
 ! D193  D(23,21,57,59)         15.6554         estimate D2E/DX2                !
 ! D194  D(23,21,57,83)       -142.7969         estimate D2E/DX2                !
 ! D195  D(97,21,57,59)       -103.4773         estimate D2E/DX2                !
 ! D196  D(97,21,57,83)         98.0704         estimate D2E/DX2                !
 ! D197  D(20,22,24,26)         -2.6931         estimate D2E/DX2                !
 ! D198  D(20,22,24,62)        147.6941         estimate D2E/DX2                !
 ! D199  D(58,22,24,26)       -147.5217         estimate D2E/DX2                !
 ! D200  D(58,22,24,62)          2.8655         estimate D2E/DX2                !
 ! D201  D(20,22,58,60)       -146.7633         estimate D2E/DX2                !
 ! D202  D(20,22,58,84)          4.0602         estimate D2E/DX2                !
 ! D203  D(24,22,58,60)         -0.9812         estimate D2E/DX2                !
 ! D204  D(24,22,58,84)        149.8423         estimate D2E/DX2                !
 ! D205  D(21,23,25,1)          -1.7318         estimate D2E/DX2                !
 ! D206  D(21,23,25,27)       -159.8256         estimate D2E/DX2                !
 ! D207  D(61,23,25,1)         156.7065         estimate D2E/DX2                !
 ! D208  D(61,23,25,27)         -1.3873         estimate D2E/DX2                !
 ! D209  D(21,23,61,59)         13.9823         estimate D2E/DX2                !
 ! D210  D(21,23,61,63)        129.339          estimate D2E/DX2                !
 ! D211  D(21,23,61,89)       -107.885          estimate D2E/DX2                !
 ! D212  D(25,23,61,59)       -146.5872         estimate D2E/DX2                !
 ! D213  D(25,23,61,63)        -31.2304         estimate D2E/DX2                !
 ! D214  D(25,23,61,89)         91.5456         estimate D2E/DX2                !
 ! D215  D(22,24,26,3)           2.7274         estimate D2E/DX2                !
 ! D216  D(22,24,26,28)        148.9606         estimate D2E/DX2                !
 ! D217  D(62,24,26,3)        -144.9941         estimate D2E/DX2                !
 ! D218  D(62,24,26,28)          1.239          estimate D2E/DX2                !
 ! D219  D(22,24,62,60)         -3.3802         estimate D2E/DX2                !
 ! D220  D(22,24,62,64)       -118.1821         estimate D2E/DX2                !
 ! D221  D(22,24,62,90)        119.1391         estimate D2E/DX2                !
 ! D222  D(26,24,62,60)        146.915          estimate D2E/DX2                !
 ! D223  D(26,24,62,64)         32.1131         estimate D2E/DX2                !
 ! D224  D(26,24,62,90)        -90.5658         estimate D2E/DX2                !
 ! D225  D(1,25,27,29)         -12.5406         estimate D2E/DX2                !
 ! D226  D(1,25,27,65)        -127.4349         estimate D2E/DX2                !
 ! D227  D(1,25,27,85)         109.6229         estimate D2E/DX2                !
 ! D228  D(23,25,27,29)        147.6492         estimate D2E/DX2                !
 ! D229  D(23,25,27,65)         32.7549         estimate D2E/DX2                !
 ! D230  D(23,25,27,85)        -90.1872         estimate D2E/DX2                !
 ! D231  D(3,26,28,30)           0.584          estimate D2E/DX2                !
 ! D232  D(3,26,28,66)         115.1268         estimate D2E/DX2                !
 ! D233  D(3,26,28,88)        -122.2904         estimate D2E/DX2                !
 ! D234  D(24,26,28,30)       -148.087          estimate D2E/DX2                !
 ! D235  D(24,26,28,66)        -33.5441         estimate D2E/DX2                !
 ! D236  D(24,26,28,88)         89.0387         estimate D2E/DX2                !
 ! D237  D(25,27,29,5)           1.3532         estimate D2E/DX2                !
 ! D238  D(25,27,29,31)       -152.4379         estimate D2E/DX2                !
 ! D239  D(65,27,29,5)         118.2708         estimate D2E/DX2                !
 ! D240  D(65,27,29,31)        -35.5202         estimate D2E/DX2                !
 ! D241  D(85,27,29,5)        -119.545          estimate D2E/DX2                !
 ! D242  D(85,27,29,31)         86.6639         estimate D2E/DX2                !
 ! D243  D(25,27,65,63)        -30.5233         estimate D2E/DX2                !
 ! D244  D(25,27,65,67)        143.1706         estimate D2E/DX2                !
 ! D245  D(29,27,65,63)       -140.3703         estimate D2E/DX2                !
 ! D246  D(29,27,65,67)         33.3236         estimate D2E/DX2                !
 ! D247  D(85,27,65,63)         94.345          estimate D2E/DX2                !
 ! D248  D(85,27,65,67)        -91.9611         estimate D2E/DX2                !
 ! D249  D(26,28,30,7)           0.3249         estimate D2E/DX2                !
 ! D250  D(26,28,30,32)        150.2319         estimate D2E/DX2                !
 ! D251  D(66,28,30,7)        -115.2185         estimate D2E/DX2                !
 ! D252  D(66,28,30,32)         34.6885         estimate D2E/DX2                !
 ! D253  D(88,28,30,7)         122.7027         estimate D2E/DX2                !
 ! D254  D(88,28,30,32)        -87.3903         estimate D2E/DX2                !
 ! D255  D(26,28,66,64)         31.9237         estimate D2E/DX2                !
 ! D256  D(26,28,66,68)       -142.6198         estimate D2E/DX2                !
 ! D257  D(30,28,66,64)        141.4046         estimate D2E/DX2                !
 ! D258  D(30,28,66,68)        -33.1389         estimate D2E/DX2                !
 ! D259  D(88,28,66,64)        -93.3366         estimate D2E/DX2                !
 ! D260  D(88,28,66,68)         92.1199         estimate D2E/DX2                !
 ! D261  D(5,29,31,33)          -2.7484         estimate D2E/DX2                !
 ! D262  D(5,29,31,69)        -150.4304         estimate D2E/DX2                !
 ! D263  D(27,29,31,33)        149.1192         estimate D2E/DX2                !
 ! D264  D(27,29,31,69)          1.4372         estimate D2E/DX2                !
 ! D265  D(7,30,32,34)           0.0            estimate D2E/DX2                !
[...]
 Alpha virt. eigenvalues --    1.53955   1.54630   1.55335   1.55566   1.56217
 Alpha virt. eigenvalues --    1.57056   1.57450   1.57813   1.58278   1.58606
 Alpha virt. eigenvalues --    1.58975   1.59189   1.59620   1.60084   1.60588
 Alpha virt. eigenvalues --    1.61084   1.61886   1.61994   1.62368   1.62437
 Alpha virt. eigenvalues --    1.62939   1.63011   1.63453   1.63678   1.63905
 Alpha virt. eigenvalues --    1.64171   1.64246   1.64518   1.64900   1.64941
 Alpha virt. eigenvalues --    1.65167   1.65528   1.65652   1.65831   1.66213
 Alpha virt. eigenvalues --    1.66380   1.66899   1.67070   1.67271   1.67418
 Alpha virt. eigenvalues --    1.67550   1.67753   1.67966   1.68101   1.68251
 Alpha virt. eigenvalues --    1.68772   1.68878   1.69270   1.69408   1.69639
 Alpha virt. eigenvalues --    1.69898   1.70175   1.70268   1.70337   1.70868
 Alpha virt. eigenvalues --    1.71050   1.71191   1.71274   1.71679   1.71973
 Alpha virt. eigenvalues --    1.72112   1.72345   1.72529   1.72761   1.73165
 Alpha virt. eigenvalues --    1.73566   1.73930   1.74080   1.74277   1.74729
 Alpha virt. eigenvalues --    1.74821   1.74914   1.75153   1.75447   1.75582
 Alpha virt. eigenvalues --    1.75699   1.76050   1.76246   1.76313   1.76526
 Alpha virt. eigenvalues --    1.76829   1.77019   1.77350   1.77570   1.77811
 Alpha virt. eigenvalues --    1.77880   1.78166   1.78397   1.78503   1.78919
 Alpha virt. eigenvalues --    1.79189   1.79383   1.79615   1.79802   1.80277
 Alpha virt. eigenvalues --    1.80325   1.81070   1.81108   1.81219   1.81491
 Alpha virt. eigenvalues --    1.81699   1.81774   1.82049   1.82249   1.82629
 Alpha virt. eigenvalues --    1.82773   1.83266   1.83535   1.83790   1.84248
 Alpha virt. eigenvalues --    1.84520   1.84821   1.84934   1.85116   1.85177
 Alpha virt. eigenvalues --    1.85548   1.85942   1.86167   1.86642   1.87147
 Alpha virt. eigenvalues --    1.87335   1.87511   1.87750   1.87875   1.88189
 Alpha virt. eigenvalues --    1.88422   1.88479   1.89035   1.89217   1.89673
 Alpha virt. eigenvalues --    1.90490   1.90628   1.91070   1.91389   1.91902
 Alpha virt. eigenvalues --    1.92062   1.92683   1.92745   1.92936   1.93045
 Alpha virt. eigenvalues --    1.93504   1.94067   1.94282   1.94897   1.95043
 Alpha virt. eigenvalues --    1.95162   1.95332   1.95823   1.96220   1.96379
 Alpha virt. eigenvalues --    1.96918   1.97480   1.97698   1.97959   1.97988
 Alpha virt. eigenvalues --    1.98777   1.99457   1.99574   2.00181   2.00434
 Alpha virt. eigenvalues --    2.00597   2.00981   2.01057   2.01401   2.01817
 Alpha virt. eigenvalues --    2.01930   2.02266   2.02346   2.02504   2.03124
 Alpha virt. eigenvalues --    2.03289   2.04083   2.04409   2.04498   2.04975
 Alpha virt. eigenvalues --    2.05359   2.05700   2.06337   2.06518   2.07007
 Alpha virt. eigenvalues --    2.07136   2.07307   2.08300   2.08704   2.08847
 Alpha virt. eigenvalues --    2.09426   2.09693   2.10197   2.10872   2.10941
 Alpha virt. eigenvalues --    2.11213   2.11303   2.11681   2.11979   2.12479
 Alpha virt. eigenvalues --    2.13027   2.13217   2.13513   2.13920   2.14693
 Alpha virt. eigenvalues --    2.15102   2.15484   2.15731   2.15940   2.16546
 Alpha virt. eigenvalues --    2.16733   2.17773   2.18071   2.18572   2.18998
 Alpha virt. eigenvalues --    2.19070   2.19601   2.19878   2.20489   2.20582
 Alpha virt. eigenvalues --    2.20866   2.21051   2.21463   2.21893   2.22223
 Alpha virt. eigenvalues --    2.22704   2.22958   2.23286   2.23937   2.24054
 Alpha virt. eigenvalues --    2.24471   2.24883   2.25414   2.25969   2.26532
 Alpha virt. eigenvalues --    2.26636   2.27392   2.27460   2.28148   2.28365
 Alpha virt. eigenvalues --    2.28471   2.28988   2.29080   2.29569   2.30486
 Alpha virt. eigenvalues --    2.30799   2.31121   2.31471   2.32245   2.33178
 Alpha virt. eigenvalues --    2.33534   2.33558   2.34095   2.34364   2.35123
 Alpha virt. eigenvalues --    2.35805   2.36800   2.37067   2.37452   2.38001
 Alpha virt. eigenvalues --    2.38254   2.38321   2.38984   2.39919   2.40111
 Alpha virt. eigenvalues --    2.40380   2.40476   2.41311   2.41850   2.42310
 Alpha virt. eigenvalues --    2.42566   2.43226   2.43665   2.44481   2.44850
 Alpha virt. eigenvalues --    2.45186   2.45473   2.46090   2.46303   2.46874
 Alpha virt. eigenvalues --    2.47723   2.48129   2.48638   2.48754   2.49274
 Alpha virt. eigenvalues --    2.49874   2.50045   2.50333   2.50772   2.50991
 Alpha virt. eigenvalues --    2.51529   2.52215   2.53209   2.53420   2.53605
 Alpha virt. eigenvalues --    2.54112   2.54311   2.54611   2.55266   2.55528
 Alpha virt. eigenvalues --    2.55754   2.55958   2.56480   2.56648   2.56763
 Alpha virt. eigenvalues --    2.56982   2.57780   2.58033   2.58337   2.58652
 Alpha virt. eigenvalues --    2.59044   2.59347   2.59715   2.60195   2.60480
 Alpha virt. eigenvalues --    2.60947   2.61323   2.61480   2.61707   2.62393
 Alpha virt. eigenvalues --    2.62687   2.63022   2.63334   2.63363   2.63691
 Alpha virt. eigenvalues --    2.64369   2.64408   2.65035   2.65083   2.66012
 Alpha virt. eigenvalues --    2.66160   2.66526   2.66931   2.67588   2.67870
 Alpha virt. eigenvalues --    2.68174   2.68342   2.68635   2.69197   2.69560
 Alpha virt. eigenvalues --    2.69710   2.70011   2.70201   2.70882   2.71264
 Alpha virt. eigenvalues --    2.71392   2.71715   2.72143   2.72488   2.73088
 Alpha virt. eigenvalues --    2.73389   2.73702   2.73918   2.74392   2.74834
 Alpha virt. eigenvalues --    2.75203   2.75618   2.75887   2.76444   2.76594
 Alpha virt. eigenvalues --    2.76904   2.77558   2.77802   2.78048   2.78923
 Alpha virt. eigenvalues --    2.79198   2.79744   2.79887   2.80321   2.80527
 Alpha virt. eigenvalues --    2.81362   2.82257   2.82503   2.82798   2.83337
 Alpha virt. eigenvalues --    2.83547   2.83915   2.84525   2.84853   2.85327
 Alpha virt. eigenvalues --    2.86516   2.86793   2.86916   2.87476   2.88325
 Alpha virt. eigenvalues --    2.88632   2.88720   2.89277   2.89937   2.90501
 Alpha virt. eigenvalues --    2.90752   2.91303   2.92353   2.92883   2.93574
 Alpha virt. eigenvalues --    2.94059   2.94586   2.95416   2.96253   2.96278
 Alpha virt. eigenvalues --    2.96705   2.97876   2.98720   2.99811   3.02405
 Alpha virt. eigenvalues --    3.03300   3.04882   3.06109   3.07285   3.08828
 Alpha virt. eigenvalues --    3.09270   3.09723   3.10700   3.11172   3.12734
 Alpha virt. eigenvalues --    3.13844   3.14321   3.16866   3.18001   3.18311
 Alpha virt. eigenvalues --    3.19142   3.20946   3.22601   3.25142   3.26289
 Alpha virt. eigenvalues --    3.26545   3.27690   3.29099   3.31084   3.33105
 Alpha virt. eigenvalues --    3.34292   3.37648   3.37916   3.41741   3.42485
 Alpha virt. eigenvalues --    3.43501   3.47016   3.48526   3.49923   3.52786
 Alpha virt. eigenvalues --    3.56509   3.99993   4.01261   4.01305   4.02070
 Alpha virt. eigenvalues --    4.03532   4.04043   4.04925   4.06339   4.06777
 Alpha virt. eigenvalues --    4.07006   4.07297   4.08359   4.08884   4.09892
 Alpha virt. eigenvalues --    4.10338   4.10799   4.11401   4.12277   4.12914
 Alpha virt. eigenvalues --    4.13811   4.15556   4.16009   4.16670   4.17289
 Alpha virt. eigenvalues --    4.18277   4.18765   4.19144   4.19817   4.20642
 Alpha virt. eigenvalues --    4.20766   4.21352   4.22009   4.23048   4.24184
 Alpha virt. eigenvalues --    4.24835   4.25714   4.25785   4.25944   4.26516
 Alpha virt. eigenvalues --    4.27282   4.27669   4.28043   4.28218   4.28509
 Alpha virt. eigenvalues --    4.29105   4.29350   4.29839   4.30330   4.31509
 Alpha virt. eigenvalues --    4.33430   4.33672   4.34104   4.35502   4.36617
 Alpha virt. eigenvalues --    4.37609   4.38346   4.39018   4.39757   4.40064
 Alpha virt. eigenvalues --    4.41251   4.41837   4.42712   4.43443   4.44374
 Alpha virt. eigenvalues --    4.44947   4.45338   4.46783   4.47861   4.49231
 Alpha virt. eigenvalues --    4.50394   4.51568   4.53595   4.54858   4.55679
 Alpha virt. eigenvalues --    4.57712   4.58090   4.59291   4.60086   4.61756
 Alpha virt. eigenvalues --    4.64684   4.65723   4.67201   4.69125   4.69420
 Alpha virt. eigenvalues --    4.76743   4.78158   4.80067   4.81128   4.81882
 Alpha virt. eigenvalues --    4.84916   4.85932   4.90409   4.92564   4.97208
 Alpha virt. eigenvalues --    4.98312   5.02217   5.06214   5.13446   5.14702
 Alpha virt. eigenvalues --    5.21753
          Condensed to atoms (all electrons):
 Mulliken charges:
               1
     1  C   -0.359456
     2  C   -0.393770
     3  C    0.006648
     4  C   -0.393936
     5  C    0.075639
     6  C    0.084809
     7  C    0.012551
     8  C    0.081528
     9  C    0.055549
    10  C    0.128704
    11  C    0.134998
    12  C    0.040550
    13  C   -0.020760
    14  C    0.006626
    15  C    0.042266
    16  C    0.012681
    17  C    0.121596
    18  C    0.047585
    19  C    0.149128
    20  C    0.062493
    21  C   -0.379955
    22  C   -0.013569
    23  C    0.179164
    24  C    0.097415
    25  C    0.186780
    26  C    0.088685
    27  C   -0.370539
    28  C   -0.378257
    29  C    0.131481
    30  C    0.088123
    31  C    0.080074
    32  C    0.092742
    33  C    0.005087
    34  C    0.008333
    35  C    0.038604
    36  C    0.035394
    37  C    0.064354
    38  C    0.069641
    39  C    0.111309
    40  C    0.120110
    41  C    0.113670
    42  C    0.114183
    43  C    0.086013
    44  C    0.150093
    45  C    0.153306
    46  C    0.084327
    47  C    0.124078
    48  C    0.121091
    49  C   -0.375328
    50  C   -0.377096
    51  C    0.179724
    52  C    0.182812
    53  C    0.104618
    54  C    0.078863
    55  C   -0.378091
    56  C   -0.355628
    57  C    0.106058
    58  C    0.043022
    59  C    0.130141
    60  C    0.083111
    61  C   -0.370787
    62  C   -0.382500
    63  C    0.125232
    64  C    0.127193
    65  C    0.126791
    66  C    0.127118
    67  C    0.128982
    68  C    0.120182
    69  C   -0.378354
    70  C   -0.375964
    71  C    0.092826
    72  C    0.091061
    73  C    0.022062
    74  C    0.025758
    75  C   -0.008827
    76  C   -0.006235
    77  C   -0.033686
    78  C   -0.028095
    79  C   -0.362355
    80  C   -0.365183
    81  C    0.026804
    82  C    0.163183
    83  C    0.149856
    84  C    0.119498
    85  Cl   0.030759
    86  Cl   0.029326
    87  Cl   0.031117
    88  Cl   0.030847
    89  Cl   0.030593
    90  Cl   0.033527
    91  Cl   0.028194
    92  Cl   0.028463
    93  Cl   0.029749
    94  Cl   0.029518
    95  Cl  -0.015757
    96  Cl   0.023913
    97  Cl   0.017921
    98  Cl   0.016993
    99  Cl  -0.005951
   100  Cl   0.006856
 Sum of Mulliken charges =  -0.00000
 Mulliken charges with hydrogens summed into heavy atoms:
               1
     1  C   -0.359456
     2  C   -0.393770
     3  C    0.006648
     4  C   -0.393936
     5  C    0.075639
     6  C    0.084809
     7  C    0.012551
     8  C    0.081528
     9  C    0.055549
    10  C    0.128704
    11  C    0.134998
    12  C    0.040550
    13  C   -0.020760
    14  C    0.006626
    15  C    0.042266
    16  C    0.012681
    17  C    0.121596
    18  C    0.047585
    19  C    0.149128
    20  C    0.062493
    21  C   -0.379955
    22  C   -0.013569
    23  C    0.179164
    24  C    0.097415
    25  C    0.186780
    26  C    0.088685
    27  C   -0.370539
    28  C   -0.378257
    29  C    0.131481
    30  C    0.088123
    31  C    0.080074
    32  C    0.092742
    33  C    0.005087
    34  C    0.008333
    35  C    0.038604
    36  C    0.035394
    37  C    0.064354
    38  C    0.069641
    39  C    0.111309
    40  C    0.120110
    41  C    0.113670
    42  C    0.114183
    43  C    0.086013
    44  C    0.150093
    45  C    0.153306
    46  C    0.084327
    47  C    0.124078
    48  C    0.121091
    49  C   -0.375328
    50  C   -0.377096
    51  C    0.179724
    52  C    0.182812
    53  C    0.104618
    54  C    0.078863
    55  C   -0.378091
    56  C   -0.355628
    57  C    0.106058
    58  C    0.043022
    59  C    0.130141
    60  C    0.083111
    61  C   -0.370787
    62  C   -0.382500
    63  C    0.125232
    64  C    0.127193
    65  C    0.126791
    66  C    0.127118
    67  C    0.128982
    68  C    0.120182
    69  C   -0.378354
    70  C   -0.375964
    71  C    0.092826
    72  C    0.091061
    73  C    0.022062
    74  C    0.025758
    75  C   -0.008827
    76  C   -0.006235
    77  C   -0.033686
    78  C   -0.028095
    79  C   -0.362355
    80  C   -0.365183
    81  C    0.026804
    82  C    0.163183
    83  C    0.149856
    84  C    0.119498
    85  Cl   0.030759
    86  Cl   0.029326
    87  Cl   0.031117
    88  Cl   0.030847
    89  Cl   0.030593
    90  Cl   0.033527
    91  Cl   0.028194
    92  Cl   0.028463
    93  Cl   0.029749
    94  Cl   0.029518
    95  Cl  -0.015757
    96  Cl   0.023913
    97  Cl   0.017921
    98  Cl   0.016993
    99  Cl  -0.005951
   100  Cl   0.006856
 Electronic spatial extent (au):  <R**2>=          71273.5769
 Charge=             -0.0000 electrons
 Dipole moment (field-independent basis, Debye):
    X=              0.4262    Y=             -6.5032    Z=              1.8898  Tot=              6.7857
 Quadrupole moment (field-independent basis, Debye-Ang):
   XX=           -719.3136   YY=           -683.7306   ZZ=           -674.1685
   XY=             -4.0223   XZ=              0.0692   YZ=              0.9198
 Traceless Quadrupole moment (field-independent basis, Debye-Ang):
   XX=            -26.9094   YY=              8.6736   ZZ=             18.2357
   XY=             -4.0223   XZ=              0.0692   YZ=              0.9198
 Octapole moment (field-independent basis, Debye-Ang**2):
  XXX=              0.8457  YYY=            -56.4443  ZZZ=             37.8916  XYY=             26.9510
  XXY=             33.5067  XXZ=              1.2078  XZZ=              2.8696  YZZ=            -25.5318
  YYZ=             11.1849  XYZ=             46.3764
 Hexadecapole moment (field-independent basis, Debye-Ang**3):
 XXXX=         -39612.5030 YYYY=         -32521.0794 ZZZZ=         -27357.1247 XXXY=             93.4595
 XXXZ=             93.5649 YYYX=            -10.7245 YYYZ=            -16.4677 ZZZX=             25.8552
 ZZZY=            -24.5290 XXYY=         -12261.0131 XXZZ=         -11379.1120 YYZZ=         -10038.6891
 XXYZ=            -30.1291 YYXZ=             57.5483 ZZXY=            -27.7345
 N-N= 2.810329506828D+04 E-N=-8.109606359704D+04  KE= 1.051178744589D+04
 No NMR shielding tensors so no spin-rotation constants.
 Leave Link  601 at Wed Jun 29 15:48:10 2022, MaxMem=  1342177280 cpu:              27.9 elap:               1.4
 (Enter /home/mkliu/g16/l9999.exe)
 1\1\GINC-NODE04\FOpt\RB3LYP\6-31G(d,p)\C84Cl16\MKLIU\29-Jun-2022\0\\#P
  opt b3lyp/6-31G(d, p) empiricaldispersion=GD3\\force\\0,1\C,8.2216975
 429,18.6342250003,10.5968608207\C,12.4786452986,20.000558412,8.9014575
 445\C,8.2644652183,26.858259498,10.5313677516\C,12.476791818,25.768224
 8974,8.8988563378\C,7.9482885977,18.9475193231,9.1454403834\C,11.86339
 51558,19.5851374428,10.2139689128\C,7.9398941287,26.8297604391,9.12408
 54577\C,11.8635617468,26.1992097588,10.2088119333\C,8.9529974933,19.11
 72253947,8.1550751799\C,12.1177947845,20.2405954024,11.3915679892\C,12
 .1086130172,25.5273757222,11.3954385469\C,8.9499151695,26.6683588628,8
 .1295617428\C,10.300614355,19.0475059316,8.5884209995\C,10.2915245482,
 26.7161719587,8.5814829914\C,10.6112722367,18.9849872994,10.009471758\
 C,10.6155987546,26.7967136872,9.9918307716\C,9.628090406,18.9870005016
 ,11.010705027\C,9.6059705184,26.7848273061,10.9919685568\C,9.897979259
 4,19.6551118879,12.2227802481\C,9.8801697584,26.1046314584,12.23329576
 7\C,8.7687358809,20.0596657247,13.1447943675\C,8.781936976,25.52302020
 56,12.9239057936\C,7.4508686076,20.1631719745,12.4061374933\C,7.472039
 6628,25.5903218308,12.4181451941\C,7.2017934021,19.5137925911,11.27731
 13964\C,7.206497799,26.2673577995,11.2518277875\C,6.1103450892,19.9574
 756277,10.3296034484\C,6.0908723646,25.8405359337,10.3203443542\C,6.70
 49043721,19.5630557957,9.0079338744\C,6.6593473546,26.2507618537,8.977
 2514672\C,6.3709055528,20.2165347018,7.8476689897\C,6.3518915722,25.57
 98859009,7.8324911126\C,7.3169293417,20.3283149896,6.811571463\C,7.308
 1842172,25.4644513627,6.7873156937\C,8.6596854851,19.8659846922,6.9611
 454353\C,8.6522745193,25.9237809478,6.9345932484\C,9.7267092553,20.580
 5717248,6.2742354162\C,9.7210893689,25.1962841287,6.2636366971\C,11.05
 53045592,20.5390753115,6.8057724639\C,12.6687096348,22.1856385034,7.75
 87481523\C,12.6626249048,23.5794008166,7.760789433\C,11.052713221,25.2
 30222212,6.8069851097\C,11.3146250228,19.7573359655,7.9297344795\C,12.
 8380230349,21.472579692,8.9417675717\C,12.8294348603,24.295297611,8.94
 29694457\C,11.3192488706,26.0113517819,7.9174311688\C,13.0535909264,22
 .1778081395,10.1447921703\C,13.0509029266,23.5910201817,10.1455577038\
 C,13.0574251194,21.4153625772,11.4733694756\C,13.050921517,24.35056091
 15,11.4727592813\C,12.4207667082,22.2149940849,12.5883515493\C,12.4194
 377287,23.544076167,12.587557565\C,11.1436557777,20.2669013185,12.4036
 028816\C,11.1523415384,25.4980589282,12.4106098148\C,11.429849527,21.3
 863078563,13.3805079142\C,11.4228768652,24.3621784835,13.373305572\C,8
 .9464959871,21.4851480538,13.6156516757\C,8.9451923884,24.2485185977,1
 3.6065472787\C,7.7356291208,22.1842269931,13.5063828986\C,7.7279152175
 ,23.5518947648,13.5220019802\C,6.6742746136,21.4028884528,12.786429930
 7\C,6.6726900011,24.3596812046,12.8020082986\C,6.1952987587,22.1853071
 457,11.546296526\C,6.1987595224,23.6002399834,11.5469970521\C,5.909273
 9487,21.4844032183,10.3613281361\C,5.9134069312,24.3074910025,10.35889
 42419\C,5.6095747055,22.1888654591,9.1695194696\C,5.6108258352,23.6018
 199678,9.1671928585\C,5.4334687889,21.4095454824,7.8503395252\C,5.4209
 900028,24.3776338066,7.8436775725\C,5.9540113344,22.2055111413,6.66683
 57761\C,5.9403842453,23.5827573214,6.6613004038\C,6.9974300059,21.4935
 225935,6.0304591664\C,6.996211697,24.2893356656,6.0349725078\C,8.03789
 68384,22.1594513158,5.3656457233\C,8.0364705304,23.6150910185,5.365344
 5381\C,9.3622436878,21.6887154819,5.4421048628\C,9.3588181239,24.07773
 0088,5.4579453896\C,12.0698054096,21.6252519141,6.4825939033\C,12.0666
 774523,24.1371585174,6.482711373\C,10.2149814221,22.8783932806,5.40899
 1294\C,11.4556581542,22.8798169417,5.9141349669\C,10.1696675116,22.163
 2011716,13.6908378699\C,10.1725785429,23.5722565514,13.6896088679\Cl,4
 .5176271147,19.1056950777,10.6838619039\Cl,3.6676660528,20.9595607501,
 7.6202170251\Cl,3.6573961346,24.8383627708,7.6344262364\Cl,4.508100807
 6,26.6806855063,10.7130908865\Cl,5.2323142479,21.0171431885,13.8653028
 721\Cl,5.2383809847,24.7642767223,13.8716323734\Cl,14.7834571008,20.91
 24110266,11.8798608251\Cl,14.771289268,24.8723732135,11.882552431\Cl,1
 3.9515585397,18.9868960888,8.4768118444\Cl,13.9518928488,26.7814148093
 ,8.470454457\Cl,7.9065209265,16.8213694937,10.9566984833\Cl,13.3634999
 823,24.8029409197,5.3395458553\Cl,8.6551981724,18.8866527612,14.573398
 3521\Cl,12.1849866546,20.7499566382,14.9484940629\Cl,12.1697090035,25.
 010594616,14.9595787363\Cl,13.3852894443,20.9767784399,5.3323581556\\V
 ersion=ES64L-G16RevA.03\State=1-A\HF=-10564.1976869\RMSD=9.955e-09\RMS
 F=3.567e-05\Dipole=-0.4995592,1.7664812,-1.9383459\Quadrupole=-18.8829
 16,11.1357128,7.7472032,-3.9286596,4.6954161,3.8035452\PG=C01 [X(C84Cl
 16)]\\@


 Everything starts as somebody's daydream.
                           -- Larry Niven
 Job cpu time:       1 days 21 hours 28 minutes 49.7 seconds.
 Elapsed time:       0 days  1 hours 53 minutes 51.0 seconds.
 File lengths (MBytes):  RWF=   1500 Int=      0 D2E=      0 Chk=    187 Scr=      1
 Normal termination of Gaussian 16 at Wed Jun 29 15:48:12 2022.
