 Entering Gaussian System, Link 0=g16
 Input=18_addons_C84_14_Cl22_rank_0.gjf
 Output=18_addons_C84_14_Cl22_rank_0.log
 Initial command:
 /home/mkliu/g16/l1.exe "/data/scratch/Gau-204424.inp" -scrdir="/data/scratch/"
 Entering Link 1 = /home/mkliu/g16/l1.exe PID=    204425.
  
 Copyright (c) 1988,1990,1992,1993,1995,1998,2003,2009,2016,
            Gaussian, Inc.  All Rights Reserved.
  
 This is part of the Gaussian(R) 16 program.  It is based on
 the Gaussian(R) 09 system (copyright 2009, Gaussian, Inc.),
 the Gaussian(R) 03 system (copyright 2003, Gaussian, Inc.),
 the Gaussian(R) 98 system (copyright 1998, Gaussian, Inc.),
 the Gaussian(R) 94 system (copyright 1995, Gaussian, Inc.),
 the Gaussian 92(TM) system (copyright 1992, Gaussian, Inc.),
 the Gaussian 90(TM) system (copyright 1990, Gaussian, Inc.),
 the Gaussian 88(TM) system (copyright 1988, Gaussian, Inc.),
 the Gaussian 86(TM) system (copyright 1986, Carnegie Mellon
 University), and the Gaussian 82(TM) system (copyright 1983,
 Carnegie Mellon University). Gaussian is a federally registered
 trademark of Gaussian, Inc.
  
 This software contains proprietary and confidential information,
 including trade secrets, belonging to Gaussian, Inc.
  
 This software is provided under written license and may be
 used, copied, transmitted, or stored only in accord with that
 written license.
  
 The following legend is applicable only to US Government
 contracts under FAR:
  
                    RESTRICTED RIGHTS LEGEND
  
 Use, reproduction and disclosure by the US Government is
 subject to restrictions as set forth in subparagraphs (a)
 and (c) of the Commercial Computer Software - Restricted
 Rights clause in FAR 52.227-19.
  
 Gaussian, Inc.
 340 Quinnipiac St., Bldg. 40, Wallingford CT 06492
  
  
 ---------------------------------------------------------------
 Warning -- This program may not be used in any manner that
 competes with the business of Gaussian, Inc. or will provide
 assistance to any competitor of Gaussian, Inc.  The licensee
 of this program is prohibited from giving any competitor of
 Gaussian, Inc. access to this program.  By using this program,
 the user acknowledges that Gaussian, Inc. is engaged in the
 business of creating and licensing software in the field of
 computational chemistry and represents and warrants to the
 licensee that it is not a competitor of Gaussian, Inc. and that
 it will not use this program in any manner prohibited above.
 ---------------------------------------------------------------
  

 Cite this work as:
 Gaussian 16, Revision A.03,
 M. J. Frisch, G. W. Trucks, H. B. Schlegel, G. E. Scuseria, 
 M. A. Robb, J. R. Cheeseman, G. Scalmani, V. Barone, 
 G. A. Petersson, H. Nakatsuji, X. Li, M. Caricato, A. V. Marenich, 
 J. Bloino, B. G. Janesko, R. Gomperts, B. Mennucci, H. P. Hratchian, 
 J. V. Ortiz, A. F. Izmaylov, J. L. Sonnenberg, D. Williams-Young, 
 F. Ding, F. Lipparini, F. Egidi, J. Goings, B. Peng, A. Petrone, 
 T. Henderson, D. Ranasinghe, V. G. Zakrzewski, J. Gao, N. Rega, 
 G. Zheng, W. Liang, M. Hada, M. Ehara, K. Toyota, R. Fukuda, 
 J. Hasegawa, M. Ishida, T. Nakajima, Y. Honda, O. Kitao, H. Nakai, 
 T. Vreven, K. Throssell, J. A. Montgomery, Jr., J. E. Peralta, 
 F. Ogliaro, M. J. Bearpark, J. J. Heyd, E. N. Brothers, K. N. Kudin, 
 V. N. Staroverov, T. A. Keith, R. Kobayashi, J. Normand, 
 K. Raghavachari, A. P. Rendell, J. C. Burant, S. S. Iyengar, 
 J. Tomasi, M. Cossi, J. M. Millam, M. Klene, C. Adamo, R. Cammi, 
 J. W. Ochterski, R. L. Martin, K. Morokuma, O. Farkas, 
 J. B. Foresman, and D. J. Fox, Gaussian, Inc., Wallingford CT, 2016.
 
 ******************************************
 Gaussian 16:  ES64L-G16RevA.03 25-Dec-2016
                30-Jun-2022 
 ******************************************
 %mem=10GB
 %chk=18_addons_C84_14_Cl22_rank_0.chk
 %nprocshared=24
 Will use up to   24 processors via shared memory.
 ------------------------------------------------
 #P opt b3lyp/6-31G(d, p) empiricaldispersion=GD3
 ------------------------------------------------
 1/18=20,19=15,26=3,38=1/1,3;
 2/9=110,12=2,17=6,18=5,40=1/2;
 3/5=1,6=6,7=101,11=2,25=1,30=1,71=1,74=-5,124=31/1,2,3;
 4//1;
 5/5=2,38=5/2;
 6/7=2,8=2,9=2,10=2,28=1/1;
 7//1,2,3,16;
 1/18=20,19=15,26=3/3(2);
 2/9=110/2;
 99//99;
 2/9=110/2;
 3/5=1,6=6,7=101,11=2,25=1,30=1,71=1,74=-5,124=31/1,2,3;
 4/5=5,16=3,69=1/1;
 5/5=2,38=5/2;
 7//1,2,3,16;
 1/18=20,19=15,26=3/3(-5);
 2/9=110/2;
 6/7=2,8=2,9=2,10=2,19=2,28=1/1;
 99/9=1/99;
 Leave Link    1 at Thu Jun 30 10:20:29 2022, MaxMem=  1342177280 cpu:               0.7 elap:               0.1
 (Enter /home/mkliu/g16/l101.exe)
 -----
 force
 -----
 Symbolic Z-matrix:
 Charge =  0 Multiplicity = 1
 C                     8.22525   18.65201   10.59922 
 C                     12.45483   20.02208   8.91465 
 C                     8.27669   26.83333   10.54271 
 C                     12.45357   25.74887   8.91672 
 C                     7.95501   18.97146   9.15277 
 C                     11.84786   19.60949   10.22048 
 C                     7.9557    26.78957   9.13711 
 C                     11.85376   26.18189   10.22287 
 C                     8.95052   19.16178   8.172 
 C                     12.10078   20.26198   11.39566 
 C                     12.10263   25.51738   11.41002 
 C                     8.95547   26.61327   8.15265 
 C                     10.28417   19.10204   8.61243 
 C                     10.2839   26.6618   8.61025 
 C                     10.59716   19.00918   10.02594 
 C                     10.61238   26.77831   10.01541 
 C                     9.62076   19.01375   11.01593 
 C                     9.60997   26.76866   11.00662 
 C                     9.89096   19.67448   12.22277 
 C                     9.88412   26.0967   12.23943 
 C                     8.7723    20.07346   13.14254 
 C                     8.78954   25.51351   12.91929 
 C                     7.46771   20.18205   12.39819 
 C                     7.4856    25.57031   12.41617 
 C                     7.2155    19.53469   11.27328 
 C                     7.22086   26.2457   11.24884 
 C                     6.12988   19.98219   10.33423 
 C                     6.11761   25.81495   10.32304 
 C                     6.72307   19.58583   9.02295 
 C                     6.68848   26.21812   8.99567 
 C                     6.4011    20.25089   7.86101 
 C                     6.38316   25.54601   7.8404 
 C                     7.32993   20.34515   6.82705 
 C                     7.32393   25.44443   6.80803 
 C                     8.66977   19.91355   6.98809 
 C                     8.66964   25.86963   6.96698 
 C                     9.72205   20.61977   6.3273 
 C                     9.72328   25.1571   6.31527 
 C                     11.01148   20.59179   6.84611 
 C                     12.61203   22.19225   7.79343 
 C                     12.61034   23.57947   7.7937 
 C                     11.01336   25.18058   6.84154 
 C                     11.29139   19.80211   7.9672 
 C                     12.78716   21.48627   8.96954 
 C                     12.78229   24.28504   8.97101 
 C                     11.29647   25.96656   7.96032 
 C                     13.0066   22.18566   10.16632 
 C                     13.00303   23.58557   10.167 
 C                     13.03746   21.42669   11.48007 
 C                     13.03225   24.34201   11.48047 
 C                     12.39823   22.21807   12.58645 
 C                     12.39735   23.54241   12.58464 
 C                     11.12842   20.28108   12.40203 
 C                     11.14854   25.49565   12.41866 
 C                     11.41816   21.3914   13.37628 
 C                     11.41422   24.35944   13.37173 
 C                     8.95498   21.49185   13.60447 
 C                     8.95587   24.24252   13.5882 
 C                     7.74729   22.18689   13.48737 
 C                     7.73881   23.54978   13.4998 
 C                     6.69225   21.41364   12.76957 
 C                     6.69154   24.349    12.78667 
 C                     6.25953   22.19155   11.53114 
 C                     6.26478   23.59454   11.53129 
 C                     5.97161   21.49647   10.35346 
 C                     5.98051   24.29448   10.35078 
 C                     5.6698    22.19436   9.17257 
 C                     5.67334   23.5967   9.17021 
 C                     5.45334   21.41822   7.8744 
 C                     5.44846   24.36711   7.86651 
 C                     5.96436   22.20868   6.70438 
 C                     5.96402   23.57235   6.7017 
 C                     7.01481   21.51901   6.05644 
 C                     7.01644   24.26011   6.0542 
 C                     8.01351   22.19093   5.38222 
 C                     8.01442   23.58505   5.37944 
 C                     9.39468   21.63133   5.24754 
 C                     9.39682   24.1404   5.24192 
 C                     12.03993   21.64111   6.51294 
 C                     12.04028   24.1287   6.51122 
 C                     10.21927   22.8855   5.39122 
 C                     11.42147   22.88483   5.94301 
 C                     10.16749   22.16721   13.67493 
 C                     10.17194   23.56919   13.6712 
 Cl                    4.54406   19.21396   10.69563 
 Cl                    3.71877   20.97414   7.74983 
 Cl                    3.70865   24.78975   7.74536 
 Cl                    4.52763   26.55316   10.70421 
 Cl                    5.23706   21.05572   13.76544 
 Cl                    5.23293   24.69734   13.77369 
 Cl                    14.73787   20.96234   11.85097 
 Cl                    14.73474   24.80272   11.85392 
 Cl                    13.90603   19.06444   8.45813 
 Cl                    13.31864   20.95556   5.44286 
 Cl                    13.90928   26.70018   8.45668 
 Cl                    13.3223   24.81023   5.44266 
 Cl                    9.65854   20.84864   3.63239 
 Cl                    7.92977   16.89489   10.94376 
 Cl                    8.66166   18.92279   14.53094 
 Cl                    9.66255   24.91176   3.61942 
 Cl                    12.144    20.76296   14.90683 
 Cl                    12.13713   24.96274   14.92521 
 
 ITRead=  0  0  0  0  0  0  0  0  0  0  0  0  0  0  0  0  0  0  0  0
 ITRead=  0  0  0  0  0  0  0  0  0  0  0  0  0  0  0  0  0  0  0  0
 ITRead=  0  0  0  0  0  0  0  0  0  0  0  0  0  0  0  0  0  0  0  0
 ITRead=  0  0  0  0  0  0  0  0  0  0  0  0  0  0  0  0  0  0  0  0
 ITRead=  0  0  0  0  0  0  0  0  0  0  0  0  0  0  0  0  0  0  0  0
 ITRead=  0  0
 MicOpt= -1 -1 -1 -1 -1 -1 -1 -1 -1 -1 -1 -1 -1 -1 -1 -1 -1 -1 -1 -1
 MicOpt= -1 -1 -1 -1 -1 -1 -1 -1 -1 -1 -1 -1 -1 -1 -1 -1 -1 -1 -1 -1
 MicOpt= -1 -1 -1 -1 -1 -1 -1 -1 -1 -1 -1 -1 -1 -1 -1 -1 -1 -1 -1 -1
 MicOpt= -1 -1 -1 -1 -1 -1 -1 -1 -1 -1 -1 -1 -1 -1 -1 -1 -1 -1 -1 -1
 MicOpt= -1 -1 -1 -1 -1 -1 -1 -1 -1 -1 -1 -1 -1 -1 -1 -1 -1 -1 -1 -1
 MicOpt= -1 -1
 NAtoms=    102 NQM=      102 NQMF=       0 NMMI=      0 NMMIF=      0
                NMic=       0 NMicF=      0.
                    Isotopes and Nuclear Properties:
 (Nuclear quadrupole moments (NQMom) in fm**2, nuclear magnetic moments (NMagM)
  in nuclear magnetons)

  Atom         1           2           3           4           5           6           7           8           9          10
 IAtWgt=          12          12          12          12          12          12          12          12          12          12
 AtmWgt=  12.0000000  12.0000000  12.0000000  12.0000000  12.0000000  12.0000000  12.0000000  12.0000000  12.0000000  12.0000000
 NucSpn=           0           0           0           0           0           0           0           0           0           0
 AtZEff=  -0.0000000  -0.0000000  -0.0000000  -0.0000000  -0.0000000  -0.0000000  -0.0000000  -0.0000000  -0.0000000  -0.0000000
 NQMom=    0.0000000   0.0000000   0.0000000   0.0000000   0.0000000   0.0000000   0.0000000   0.0000000   0.0000000   0.0000000
 NMagM=    0.0000000   0.0000000   0.0000000   0.0000000   0.0000000   0.0000000   0.0000000   0.0000000   0.0000000   0.0000000
 AtZNuc=   6.0000000   6.0000000   6.0000000   6.0000000   6.0000000   6.0000000   6.0000000   6.0000000   6.0000000   6.0000000

  Atom        11          12          13          14          15          16          17          18          19          20
 IAtWgt=          12          12          12          12          12          12          12          12          12          12
 AtmWgt=  12.0000000  12.0000000  12.0000000  12.0000000  12.0000000  12.0000000  12.0000000  12.0000000  12.0000000  12.0000000
 NucSpn=           0           0           0           0           0           0           0           0           0           0
 AtZEff=  -0.0000000  -0.0000000  -0.0000000  -0.0000000  -0.0000000  -0.0000000  -0.0000000  -0.0000000  -0.0000000  -0.0000000
 NQMom=    0.0000000   0.0000000   0.0000000   0.0000000   0.0000000   0.0000000   0.0000000   0.0000000   0.0000000   0.0000000
 NMagM=    0.0000000   0.0000000   0.0000000   0.0000000   0.0000000   0.0000000   0.0000000   0.0000000   0.0000000   0.0000000
 AtZNuc=   6.0000000   6.0000000   6.0000000   6.0000000   6.0000000   6.0000000   6.0000000   6.0000000   6.0000000   6.0000000

  Atom        21          22          23          24          25          26          27          28          29          30
 IAtWgt=          12          12          12          12          12          12          12          12          12          12
 AtmWgt=  12.0000000  12.0000000  12.0000000  12.0000000  12.0000000  12.0000000  12.0000000  12.0000000  12.0000000  12.0000000
 NucSpn=           0           0           0           0           0           0           0           0           0           0
 AtZEff=  -0.0000000  -0.0000000  -0.0000000  -0.0000000  -0.0000000  -0.0000000  -0.0000000  -0.0000000  -0.0000000  -0.0000000
 NQMom=    0.0000000   0.0000000   0.0000000   0.0000000   0.0000000   0.0000000   0.0000000   0.0000000   0.0000000   0.0000000
 NMagM=    0.0000000   0.0000000   0.0000000   0.0000000   0.0000000   0.0000000   0.0000000   0.0000000   0.0000000   0.0000000
 AtZNuc=   6.0000000   6.0000000   6.0000000   6.0000000   6.0000000   6.0000000   6.0000000   6.0000000   6.0000000   6.0000000

  Atom        31          32          33          34          35          36          37          38          39          40
 IAtWgt=          12          12          12          12          12          12          12          12          12          12
 AtmWgt=  12.0000000  12.0000000  12.0000000  12.0000000  12.0000000  12.0000000  12.0000000  12.0000000  12.0000000  12.0000000
 NucSpn=           0           0           0           0           0           0           0           0           0           0
 AtZEff=  -0.0000000  -0.0000000  -0.0000000  -0.0000000  -0.0000000  -0.0000000  -0.0000000  -0.0000000  -0.0000000  -0.0000000
 NQMom=    0.0000000   0.0000000   0.0000000   0.0000000   0.0000000   0.0000000   0.0000000   0.0000000   0.0000000   0.0000000
 NMagM=    0.0000000   0.0000000   0.0000000   0.0000000   0.0000000   0.0000000   0.0000000   0.0000000   0.0000000   0.0000000
 AtZNuc=   6.0000000   6.0000000   6.0000000   6.0000000   6.0000000   6.0000000   6.0000000   6.0000000   6.0000000   6.0000000

  Atom        41          42          43          44          45          46          47          48          49          50
 IAtWgt=          12          12          12          12          12          12          12          12          12          12
 AtmWgt=  12.0000000  12.0000000  12.0000000  12.0000000  12.0000000  12.0000000  12.0000000  12.0000000  12.0000000  12.0000000
 NucSpn=           0           0           0           0           0           0           0           0           0           0
 AtZEff=  -0.0000000  -0.0000000  -0.0000000  -0.0000000  -0.0000000  -0.0000000  -0.0000000  -0.0000000  -0.0000000  -0.0000000
 NQMom=    0.0000000   0.0000000   0.0000000   0.0000000   0.0000000   0.0000000   0.0000000   0.0000000   0.0000000   0.0000000
 NMagM=    0.0000000   0.0000000   0.0000000   0.0000000   0.0000000   0.0000000   0.0000000   0.0000000   0.0000000   0.0000000
 AtZNuc=   6.0000000   6.0000000   6.0000000   6.0000000   6.0000000   6.0000000   6.0000000   6.0000000   6.0000000   6.0000000

  Atom        51          52          53          54          55          56          57          58          59          60
 IAtWgt=          12          12          12          12          12          12          12          12          12          12
 AtmWgt=  12.0000000  12.0000000  12.0000000  12.0000000  12.0000000  12.0000000  12.0000000  12.0000000  12.0000000  12.0000000
 NucSpn=           0           0           0           0           0           0           0           0           0           0
 AtZEff=  -0.0000000  -0.0000000  -0.0000000  -0.0000000  -0.0000000  -0.0000000  -0.0000000  -0.0000000  -0.0000000  -0.0000000
 NQMom=    0.0000000   0.0000000   0.0000000   0.0000000   0.0000000   0.0000000   0.0000000   0.0000000   0.0000000   0.0000000
 NMagM=    0.0000000   0.0000000   0.0000000   0.0000000   0.0000000   0.0000000   0.0000000   0.0000000   0.0000000   0.0000000
 AtZNuc=   6.0000000   6.0000000   6.0000000   6.0000000   6.0000000   6.0000000   6.0000000   6.0000000   6.0000000   6.0000000

  Atom        61          62          63          64          65          66          67          68          69          70
 IAtWgt=          12          12          12          12          12          12          12          12          12          12
 AtmWgt=  12.0000000  12.0000000  12.0000000  12.0000000  12.0000000  12.0000000  12.0000000  12.0000000  12.0000000  12.0000000
 NucSpn=           0           0           0           0           0           0           0           0           0           0
 AtZEff=  -0.0000000  -0.0000000  -0.0000000  -0.0000000  -0.0000000  -0.0000000  -0.0000000  -0.0000000  -0.0000000  -0.0000000
 NQMom=    0.0000000   0.0000000   0.0000000   0.0000000   0.0000000   0.0000000   0.0000000   0.0000000   0.0000000   0.0000000
 NMagM=    0.0000000   0.0000000   0.0000000   0.0000000   0.0000000   0.0000000   0.0000000   0.0000000   0.0000000   0.0000000
 AtZNuc=   6.0000000   6.0000000   6.0000000   6.0000000   6.0000000   6.0000000   6.0000000   6.0000000   6.0000000   6.0000000

  Atom        71          72          73          74          75          76          77          78          79          80
 IAtWgt=          12          12          12          12          12          12          12          12          12          12
 AtmWgt=  12.0000000  12.0000000  12.0000000  12.0000000  12.0000000  12.0000000  12.0000000  12.0000000  12.0000000  12.0000000
 NucSpn=           0           0           0           0           0           0           0           0           0           0
 AtZEff=  -0.0000000  -0.0000000  -0.0000000  -0.0000000  -0.0000000  -0.0000000  -0.0000000  -0.0000000  -0.0000000  -0.0000000
 NQMom=    0.0000000   0.0000000   0.0000000   0.0000000   0.0000000   0.0000000   0.0000000   0.0000000   0.0000000   0.0000000
 NMagM=    0.0000000   0.0000000   0.0000000   0.0000000   0.0000000   0.0000000   0.0000000   0.0000000   0.0000000   0.0000000
 AtZNuc=   6.0000000   6.0000000   6.0000000   6.0000000   6.0000000   6.0000000   6.0000000   6.0000000   6.0000000   6.0000000

  Atom        81          82          83          84          85          86          87          88          89          90
 IAtWgt=          12          12          12          12          35          35          35          35          35          35
 AtmWgt=  12.0000000  12.0000000  12.0000000  12.0000000  34.9688527  34.9688527  34.9688527  34.9688527  34.9688527  34.9688527
 NucSpn=           0           0           0           0           3           3           3           3           3           3
 AtZEff=  -0.0000000  -0.0000000  -0.0000000  -0.0000000  -0.0000000  -0.0000000  -0.0000000  -0.0000000  -0.0000000  -0.0000000
 NQMom=    0.0000000   0.0000000   0.0000000   0.0000000  -8.1650000  -8.1650000  -8.1650000  -8.1650000  -8.1650000  -8.1650000
 NMagM=    0.0000000   0.0000000   0.0000000   0.0000000   0.8218740   0.8218740   0.8218740   0.8218740   0.8218740   0.8218740
 AtZNuc=   6.0000000   6.0000000   6.0000000   6.0000000  17.0000000  17.0000000  17.0000000  17.0000000  17.0000000  17.0000000

  Atom        91          92          93          94          95          96          97          98          99         100
 IAtWgt=          35          35          35          35          35          35          35          35          35          35
 AtmWgt=  34.9688527  34.9688527  34.9688527  34.9688527  34.9688527  34.9688527  34.9688527  34.9688527  34.9688527  34.9688527
 NucSpn=           3           3           3           3           3           3           3           3           3           3
 AtZEff=  -0.0000000  -0.0000000  -0.0000000  -0.0000000  -0.0000000  -0.0000000  -0.0000000  -0.0000000  -0.0000000  -0.0000000
 NQMom=   -8.1650000  -8.1650000  -8.1650000  -8.1650000  -8.1650000  -8.1650000  -8.1650000  -8.1650000  -8.1650000  -8.1650000
 NMagM=    0.8218740   0.8218740   0.8218740   0.8218740   0.8218740   0.8218740   0.8218740   0.8218740   0.8218740   0.8218740
 AtZNuc=  17.0000000  17.0000000  17.0000000  17.0000000  17.0000000  17.0000000  17.0000000  17.0000000  17.0000000  17.0000000

  Atom       101         102
 IAtWgt=          35          35
 AtmWgt=  34.9688527  34.9688527
 NucSpn=           3           3
 AtZEff=  -0.0000000  -0.0000000
 NQMom=   -8.1650000  -8.1650000
 NMagM=    0.8218740   0.8218740
 AtZNuc=  17.0000000  17.0000000
 Leave Link  101 at Thu Jun 30 10:20:29 2022, MaxMem=  1342177280 cpu:               6.6 elap:               0.3
 (Enter /home/mkliu/g16/l103.exe)

 GradGradGradGradGradGradGradGradGradGradGradGradGradGradGradGradGradGrad
 Berny optimization.
 Initialization pass.
                           ----------------------------
                           !    Initial Parameters    !
                           ! (Angstroms and Degrees)  !
 --------------------------                            --------------------------
 ! Name  Definition              Value          Derivative Info.                !
 --------------------------------------------------------------------------------
 ! R1    R(1,5)                  1.5058         estimate D2E/DX2                !
 ! R2    R(1,17)                 1.5007         estimate D2E/DX2                !
 ! R3    R(1,25)                 1.501          estimate D2E/DX2                !
 ! R4    R(1,98)                 1.8148         estimate D2E/DX2                !
 ! R5    R(2,6)                  1.4979         estimate D2E/DX2                !
 ! R6    R(2,43)                 1.5165         estimate D2E/DX2                !
 ! R7    R(2,44)                 1.5024         estimate D2E/DX2                !
 ! R8    R(2,93)                 1.7976         estimate D2E/DX2                !
 ! R9    R(3,7)                  1.4425         estimate D2E/DX2                !
 ! R10   R(3,18)                 1.4132         estimate D2E/DX2                !
 ! R11   R(3,26)                 1.3995         estimate D2E/DX2                !
 ! R12   R(4,8)                  1.5011         estimate D2E/DX2                !
 ! R13   R(4,45)                 1.5013         estimate D2E/DX2                !
 ! R14   R(4,46)                 1.5169         estimate D2E/DX2                !
 ! R15   R(4,95)                 1.7988         estimate D2E/DX2                !
 ! R16   R(5,9)                  1.4104         estimate D2E/DX2                !
 ! R17   R(5,29)                 1.3827         estimate D2E/DX2                !
 ! R18   R(6,10)                 1.3678         estimate D2E/DX2                !
 ! R19   R(6,15)                 1.4009         estimate D2E/DX2                !
 ! R20   R(7,12)                 1.4141         estimate D2E/DX2                !
 ! R21   R(7,30)                 1.3973         estimate D2E/DX2                !
 ! R22   R(8,11)                 1.3831         estimate D2E/DX2                !
 ! R23   R(8,16)                 1.3928         estimate D2E/DX2                !
 ! R24   R(9,13)                 1.4058         estimate D2E/DX2                !
 ! R25   R(9,35)                 1.4303         estimate D2E/DX2                !
 ! R26   R(10,49)                1.497          estimate D2E/DX2                !
 ! R27   R(10,53)                1.3995         estimate D2E/DX2                !
 ! R28   R(11,50)                1.5002         estimate D2E/DX2                !
 ! R29   R(11,54)                1.3886         estimate D2E/DX2                !
 ! R30   R(12,14)                1.4059         estimate D2E/DX2                !
 ! R31   R(12,36)                1.4285         estimate D2E/DX2                !
 ! R32   R(13,15)                1.4507         estimate D2E/DX2                !
 ! R33   R(13,43)                1.386          estimate D2E/DX2                !
 ! R34   R(14,16)                1.4477         estimate D2E/DX2                !
 ! R35   R(14,46)                1.3896         estimate D2E/DX2                !
 ! R36   R(15,17)                1.3905         estimate D2E/DX2                !
 ! R37   R(16,18)                1.4098         estimate D2E/DX2                !
 ! R38   R(17,19)                1.4022         estimate D2E/DX2                !
 ! R39   R(18,20)                1.4306         estimate D2E/DX2                !
 ! R40   R(19,21)                1.5022         estimate D2E/DX2                !
 ! R41   R(19,53)                1.3897         estimate D2E/DX2                !
 ! R42   R(20,22)                1.4144         estimate D2E/DX2                !
 ! R43   R(20,54)                1.4114         estimate D2E/DX2                !
 ! R44   R(21,23)                1.5059         estimate D2E/DX2                !
 ! R45   R(21,57)                1.5029         estimate D2E/DX2                !
 ! R46   R(21,99)                1.8066         estimate D2E/DX2                !
 ! R47   R(22,24)                1.3988         estimate D2E/DX2                !
 ! R48   R(22,58)                1.4459         estimate D2E/DX2                !
 ! R49   R(23,25)                1.3222         estimate D2E/DX2                !
 ! R50   R(23,61)                1.502          estimate D2E/DX2                !
 ! R51   R(24,26)                1.3744         estimate D2E/DX2                !
 ! R52   R(24,62)                1.5031         estimate D2E/DX2                !
 ! R53   R(25,27)                1.5035         estimate D2E/DX2                !
 ! R54   R(26,28)                1.5033         estimate D2E/DX2                !
 ! R55   R(27,29)                1.4928         estimate D2E/DX2                !
 ! R56   R(27,65)                1.5226         estimate D2E/DX2                !
 ! R57   R(27,85)                1.7988         estimate D2E/DX2                !
 ! R58   R(28,30)                1.5001         estimate D2E/DX2                !
 ! R59   R(28,66)                1.5269         estimate D2E/DX2                !
 ! R60   R(28,88)                1.794          estimate D2E/DX2                !
 ! R61   R(29,31)                1.377          estimate D2E/DX2                !
 ! R62   R(30,32)                1.371          estimate D2E/DX2                !
 ! R63   R(31,33)                1.3931         estimate D2E/DX2                !
 ! R64   R(31,69)                1.5037         estimate D2E/DX2                !
 ! R65   R(32,34)                1.4004         estimate D2E/DX2                !
 ! R66   R(32,70)                1.5047         estimate D2E/DX2                !
 ! R67   R(33,35)                1.4168         estimate D2E/DX2                !
 ! R68   R(33,73)                1.4391         estimate D2E/DX2                !
 ! R69   R(34,36)                1.4202         estimate D2E/DX2                !
 ! R70   R(34,74)                1.4372         estimate D2E/DX2                !
 ! R71   R(35,37)                1.4292         estimate D2E/DX2                !
 ! R72   R(36,38)                1.4292         estimate D2E/DX2                !
 ! R73   R(37,39)                1.3902         estimate D2E/DX2                !
 ! R74   R(37,77)                1.5154         estimate D2E/DX2                !
 ! R75   R(38,42)                1.3935         estimate D2E/DX2                !
 ! R76   R(38,78)                1.514          estimate D2E/DX2                !
 ! R77   R(39,43)                1.3996         estimate D2E/DX2                !
 ! R78   R(39,79)                1.5066         estimate D2E/DX2                !
 ! R79   R(40,41)                1.3872         estimate D2E/DX2                !
 ! R80   R(40,44)                1.3829         estimate D2E/DX2                !
 ! R81   R(40,79)                1.5069         estimate D2E/DX2                !
 ! R82   R(41,45)                1.3833         estimate D2E/DX2                !
 ! R83   R(41,80)                1.5071         estimate D2E/DX2                !
 ! R84   R(42,46)                1.3963         estimate D2E/DX2                !
 ! R85   R(42,80)                1.5067         estimate D2E/DX2                !
 ! R86   R(44,47)                1.4034         estimate D2E/DX2                !
 ! R87   R(45,48)                1.403          estimate D2E/DX2                !
 ! R88   R(47,48)                1.3999         estimate D2E/DX2                !
 ! R89   R(47,49)                1.5175         estimate D2E/DX2                !
 ! R90   R(48,50)                1.516          estimate D2E/DX2                !
 ! R91   R(49,51)                1.503          estimate D2E/DX2                !
 ! R92   R(49,91)                1.8013         estimate D2E/DX2                !
 ! R93   R(50,52)                1.5039         estimate D2E/DX2                !
 ! R94   R(50,92)                1.8028         estimate D2E/DX2                !
 ! R95   R(51,52)                1.3243         estimate D2E/DX2                !
 ! R96   R(51,55)                1.5059         estimate D2E/DX2                !
 ! R97   R(52,56)                1.5012         estimate D2E/DX2                !
 ! R98   R(53,55)                1.5053         estimate D2E/DX2                !
 ! R99   R(54,56)                1.5066         estimate D2E/DX2                !
 ! R100  R(55,83)                1.5018         estimate D2E/DX2                !
 ! R101  R(55,101)               1.8067         estimate D2E/DX2                !
 ! R102  R(56,84)                1.5025         estimate D2E/DX2                !
 ! R103  R(56,102)               1.8166         estimate D2E/DX2                !
 ! R104  R(57,59)                1.3983         estimate D2E/DX2                !
 ! R105  R(57,83)                1.3897         estimate D2E/DX2                !
 ! R106  R(58,60)                1.4032         estimate D2E/DX2                !
 ! R107  R(58,84)                1.3925         estimate D2E/DX2                !
 ! R108  R(59,60)                1.363          estimate D2E/DX2                !
 ! R109  R(59,61)                1.4921         estimate D2E/DX2                !
 ! R110  R(60,62)                1.498          estimate D2E/DX2                !
 ! R111  R(61,63)                1.5252         estimate D2E/DX2                !
 ! R112  R(61,89)                1.7993         estimate D2E/DX2                !
 ! R113  R(62,64)                1.5255         estimate D2E/DX2                !
 ! R114  R(62,90)                1.7953         estimate D2E/DX2                !
 ! R115  R(63,64)                1.403          estimate D2E/DX2                !
 ! R116  R(63,65)                1.3975         estimate D2E/DX2                !
 ! R117  R(64,66)                1.4016         estimate D2E/DX2                !
 ! R118  R(65,67)                1.4045         estimate D2E/DX2                !
 ! R119  R(66,68)                1.4053         estimate D2E/DX2                !
 ! R120  R(67,68)                1.4023         estimate D2E/DX2                !
 ! R121  R(67,69)                1.5279         estimate D2E/DX2                !
 ! R122  R(68,70)                1.5309         estimate D2E/DX2                !
 ! R123  R(69,71)                1.5016         estimate D2E/DX2                !
 ! R124  R(69,86)                1.7948         estimate D2E/DX2                !
 ! R125  R(70,72)                1.5014         estimate D2E/DX2                !
 ! R126  R(70,87)                1.7945         estimate D2E/DX2                !
 ! R127  R(71,72)                1.3637         estimate D2E/DX2                !
 ! R128  R(71,73)                1.4138         estimate D2E/DX2                !
 ! R129  R(72,74)                1.4142         estimate D2E/DX2                !
 ! R130  R(73,75)                1.3797         estimate D2E/DX2                !
 ! R131  R(74,76)                1.3809         estimate D2E/DX2                !
 ! R132  R(75,76)                1.3941         estimate D2E/DX2                !
 ! R133  R(75,77)                1.4963         estimate D2E/DX2                !
 ! R134  R(76,78)                1.4961         estimate D2E/DX2                !
 ! R135  R(77,81)                1.5078         estimate D2E/DX2                !
 ! R136  R(77,97)                1.8141         estimate D2E/DX2                !
 ! R137  R(78,81)                1.5078         estimate D2E/DX2                !
 ! R138  R(78,100)               1.8161         estimate D2E/DX2                !
 ! R139  R(79,82)                1.5014         estimate D2E/DX2                !
 ! R140  R(79,94)                1.8028         estimate D2E/DX2                !
 ! R141  R(80,82)                1.501          estimate D2E/DX2                !
 ! R142  R(80,96)                1.8027         estimate D2E/DX2                !
 ! R143  R(81,82)                1.3228         estimate D2E/DX2                !
 ! R144  R(83,84)                1.402          estimate D2E/DX2                !
 ! A1    A(5,1,17)             112.4885         estimate D2E/DX2                !
 ! A2    A(5,1,25)             100.7131         estimate D2E/DX2                !
 ! A3    A(5,1,98)             111.012          estimate D2E/DX2                !
 ! A4    A(17,1,25)            111.046          estimate D2E/DX2                !
 ! A5    A(17,1,98)            109.3956         estimate D2E/DX2                !
 ! A6    A(25,1,98)            111.9989         estimate D2E/DX2                !
 ! A7    A(6,2,43)             101.1763         estimate D2E/DX2                !
 ! A8    A(6,2,44)             109.039          estimate D2E/DX2                !
 ! A9    A(6,2,93)             113.6886         estimate D2E/DX2                !
 ! A10   A(43,2,44)            109.5048         estimate D2E/DX2                !
 ! A11   A(43,2,93)            112.5453         estimate D2E/DX2                !
 ! A12   A(44,2,93)            110.4796         estimate D2E/DX2                !
 ! A13   A(7,3,18)             121.9009         estimate D2E/DX2                !
 ! A14   A(7,3,26)             108.1215         estimate D2E/DX2                !
 ! A15   A(18,3,26)            121.798          estimate D2E/DX2                !
 ! A16   A(8,4,45)             109.7127         estimate D2E/DX2                !
 ! A17   A(8,4,46)             101.6778         estimate D2E/DX2                !
 ! A18   A(8,4,95)             113.1624         estimate D2E/DX2                !
 ! A19   A(45,4,46)            109.2543         estimate D2E/DX2                !
 ! A20   A(45,4,95)            110.3478         estimate D2E/DX2                !
 ! A21   A(46,4,95)            112.3441         estimate D2E/DX2                !
 ! A22   A(1,5,9)              124.7474         estimate D2E/DX2                !
 ! A23   A(1,5,29)             110.142          estimate D2E/DX2                !
 ! A24   A(9,5,29)             120.2397         estimate D2E/DX2                !
 ! A25   A(2,6,10)             122.8662         estimate D2E/DX2                !
 ! A26   A(2,6,15)             111.0223         estimate D2E/DX2                !
 ! A27   A(10,6,15)            119.2643         estimate D2E/DX2                !
 ! A28   A(3,7,12)             121.6568         estimate D2E/DX2                !
 ! A29   A(3,7,30)             108.2317         estimate D2E/DX2                !
 ! A30   A(12,7,30)            121.3137         estimate D2E/DX2                !
 ! A31   A(4,8,11)             122.4375         estimate D2E/DX2                !
 ! A32   A(4,8,16)             110.4917         estimate D2E/DX2                !
 ! A33   A(11,8,16)            119.6031         estimate D2E/DX2                !
 ! A34   A(5,9,13)             116.4893         estimate D2E/DX2                !
 ! A35   A(5,9,35)             120.5303         estimate D2E/DX2                !
 ! A36   A(13,9,35)            117.8985         estimate D2E/DX2                !
 ! A37   A(6,10,49)            122.3647         estimate D2E/DX2                !
 ! A38   A(6,10,53)            119.7271         estimate D2E/DX2                !
 ! A39   A(49,10,53)           112.555          estimate D2E/DX2                !
 ! A40   A(8,11,50)            121.8866         estimate D2E/DX2                !
 ! A41   A(8,11,54)            120.4896         estimate D2E/DX2                !
 ! A42   A(50,11,54)           112.2961         estimate D2E/DX2                !
 ! A43   A(7,12,14)            115.9214         estimate D2E/DX2                !
 ! A44   A(7,12,36)            120.084          estimate D2E/DX2                !
 ! A45   A(14,12,36)           118.5034         estimate D2E/DX2                !
 ! A46   A(9,13,15)            120.8419         estimate D2E/DX2                !
 ! A47   A(9,13,43)            121.4746         estimate D2E/DX2                !
 ! A48   A(15,13,43)           109.2169         estimate D2E/DX2                !
 ! A49   A(12,14,16)           122.2148         estimate D2E/DX2                !
 ! A50   A(12,14,46)           121.2663         estimate D2E/DX2                !
 ! A51   A(16,14,46)           109.2008         estimate D2E/DX2                !
 ! A52   A(6,15,13)            107.4877         estimate D2E/DX2                !
 ! A53   A(6,15,17)            121.7785         estimate D2E/DX2                !
 ! A54   A(13,15,17)           122.82           estimate D2E/DX2                !
 ! A55   A(8,16,14)            108.2006         estimate D2E/DX2                !
 ! A56   A(8,16,18)            121.7429         estimate D2E/DX2                !
 ! A57   A(14,16,18)           121.3687         estimate D2E/DX2                !
 ! A58   A(1,17,15)            117.033          estimate D2E/DX2                !
 ! A59   A(1,17,19)            122.1272         estimate D2E/DX2                !
 ! A60   A(15,17,19)           118.6222         estimate D2E/DX2                !
 ! A61   A(3,18,16)            116.0869         estimate D2E/DX2                !
 ! A62   A(3,18,20)            119.0254         estimate D2E/DX2                !
 ! A63   A(16,18,20)           118.22           estimate D2E/DX2                !
 ! A64   A(17,19,21)           120.574          estimate D2E/DX2                !
 ! A65   A(17,19,53)           119.2282         estimate D2E/DX2                !
 ! A66   A(21,19,53)           117.9162         estimate D2E/DX2                !
 ! A67   A(18,20,22)           117.3619         estimate D2E/DX2                !
 ! A68   A(18,20,54)           118.7597         estimate D2E/DX2                !
 ! A69   A(22,20,54)           117.172          estimate D2E/DX2                !
 ! A70   A(19,21,23)           111.2005         estimate D2E/DX2                !
 ! A71   A(19,21,57)           110.386          estimate D2E/DX2                !
 ! A72   A(19,21,99)           110.3033         estimate D2E/DX2                !
 ! A73   A(23,21,57)           100.9045         estimate D2E/DX2                !
 ! A74   A(23,21,99)           111.8843         estimate D2E/DX2                !
 ! A75   A(57,21,99)           111.8605         estimate D2E/DX2                !
 ! A76   A(20,22,24)           122.126          estimate D2E/DX2                !
 ! A77   A(20,22,58)           119.7237         estimate D2E/DX2                !
 ! A78   A(24,22,58)           108.0193         estimate D2E/DX2                !
 ! A79   A(21,23,25)           123.4006         estimate D2E/DX2                !
 ! A80   A(21,23,61)           112.5918         estimate D2E/DX2                !
 ! A81   A(25,23,61)           120.8875         estimate D2E/DX2                !
 ! A82   A(22,24,26)           120.3327         estimate D2E/DX2                !
 ! A83   A(22,24,62)           111.7644         estimate D2E/DX2                !
 ! A84   A(26,24,62)           120.4561         estimate D2E/DX2                !
 ! A85   A(1,25,23)            122.7976         estimate D2E/DX2                !
 ! A86   A(1,25,27)            112.3508         estimate D2E/DX2                !
 ! A87   A(23,25,27)           121.56           estimate D2E/DX2                !
 ! A88   A(3,26,24)            119.311          estimate D2E/DX2                !
 ! A89   A(3,26,28)            111.2998         estimate D2E/DX2                !
 ! A90   A(24,26,28)           121.5769         estimate D2E/DX2                !
 ! A91   A(25,27,29)           100.5254         estimate D2E/DX2                !
 ! A92   A(25,27,65)           111.2941         estimate D2E/DX2                !
 ! A93   A(25,27,85)           112.5796         estimate D2E/DX2                !
 ! A94   A(29,27,65)           108.4484         estimate D2E/DX2                !
 ! A95   A(29,27,85)           114.4193         estimate D2E/DX2                !
 ! A96   A(65,27,85)           109.303          estimate D2E/DX2                !
 ! A97   A(26,28,30)           100.8737         estimate D2E/DX2                !
 ! A98   A(26,28,66)           109.8795         estimate D2E/DX2                !
 ! A99   A(26,28,88)           113.6836         estimate D2E/DX2                !
 ! A100  A(30,28,66)           108.5343         estimate D2E/DX2                !
 ! A101  A(30,28,88)           114.5005         estimate D2E/DX2                !
 ! A102  A(66,28,88)           109.0459         estimate D2E/DX2                !
 ! A103  A(5,29,27)            112.9253         estimate D2E/DX2                !
 ! A104  A(5,29,31)            120.1422         estimate D2E/DX2                !
 ! A105  A(27,29,31)           121.3369         estimate D2E/DX2                !
 ! A106  A(7,30,28)            111.437          estimate D2E/DX2                !
 ! A107  A(7,30,32)            119.1931         estimate D2E/DX2                !
 ! A108  A(28,30,32)           121.9461         estimate D2E/DX2                !
 ! A109  A(29,31,33)           120.2037         estimate D2E/DX2                !
 ! A110  A(29,31,69)           120.9846         estimate D2E/DX2                !
 ! A111  A(33,31,69)           111.9827         estimate D2E/DX2                !
 ! A112  A(30,32,34)           120.4748         estimate D2E/DX2                !
 ! A113  A(30,32,70)           120.5177         estimate D2E/DX2                !
 ! A114  A(34,32,70)           111.9165         estimate D2E/DX2                !
 ! A115  A(31,33,35)           121.7049         estimate D2E/DX2                !
 ! A116  A(31,33,73)           107.8562         estimate D2E/DX2                !
 ! A117  A(35,33,73)           121.0914         estimate D2E/DX2                !
 ! A118  A(32,34,36)           122.1617         estimate D2E/DX2                !
 ! A119  A(32,34,74)           107.6209         estimate D2E/DX2                !
 ! A120  A(36,34,74)           120.5417         estimate D2E/DX2                !
 ! A121  A(9,35,33)            116.0934         estimate D2E/DX2                !
 ! A122  A(9,35,37)            119.8616         estimate D2E/DX2                !
 ! A123  A(33,35,37)           119.5497         estimate D2E/DX2                !
 ! A124  A(12,36,34)           115.9992         estimate D2E/DX2                !
 ! A125  A(12,36,38)           119.375          estimate D2E/DX2                !
 ! A126  A(34,36,38)           119.8846         estimate D2E/DX2                !
 ! A127  A(35,37,39)           120.0274         estimate D2E/DX2                !
 ! A128  A(35,37,77)           120.0153         estimate D2E/DX2                !
 ! A129  A(39,37,77)           118.6684         estimate D2E/DX2                !
 ! A130  A(36,38,42)           120.1262         estimate D2E/DX2                !
 ! A131  A(36,38,78)           119.9398         estimate D2E/DX2                !
 ! A132  A(42,38,78)           118.5987         estimate D2E/DX2                !
 ! A133  A(37,39,43)           119.723          estimate D2E/DX2                !
 ! A134  A(37,39,79)           122.4536         estimate D2E/DX2                !
 ! A135  A(43,39,79)           115.696          estimate D2E/DX2                !
 ! A136  A(41,40,44)           120.6975         estimate D2E/DX2                !
 ! A137  A(41,40,79)           111.4354         estimate D2E/DX2                !
 ! A138  A(44,40,79)           125.7374         estimate D2E/DX2                !
 ! A139  A(40,41,45)           120.6697         estimate D2E/DX2                !
 ! A140  A(40,41,80)           111.3903         estimate D2E/DX2                !
 ! A141  A(45,41,80)           125.83           estimate D2E/DX2                !
 ! A142  A(38,42,46)           119.9869         estimate D2E/DX2                !
 ! A143  A(38,42,80)           122.4416         estimate D2E/DX2                !
 ! A144  A(46,42,80)           115.4964         estimate D2E/DX2                !
 ! A145  A(2,43,13)            109.8739         estimate D2E/DX2                !
 ! A146  A(2,43,39)            124.8944         estimate D2E/DX2                !
 ! A147  A(13,43,39)           120.8351         estimate D2E/DX2                !
 ! A148  A(2,44,40)            116.0046         estimate D2E/DX2                !
 ! A149  A(2,44,47)            123.463          estimate D2E/DX2                !
 ! A150  A(40,44,47)           119.3834         estimate D2E/DX2                !
 ! A151  A(4,45,41)            116.0628         estimate D2E/DX2                !
 ! A152  A(4,45,48)            123.463          estimate D2E/DX2                !
 ! A153  A(41,45,48)           119.3925         estimate D2E/DX2                !
 ! A154  A(4,46,14)            109.4355         estimate D2E/DX2                !
 ! A155  A(4,46,42)            125.3854         estimate D2E/DX2                !
 ! A156  A(14,46,42)           120.5731         estimate D2E/DX2                !
 ! A157  A(44,47,48)           119.8915         estimate D2E/DX2                !
 ! A158  A(44,47,49)           119.4846         estimate D2E/DX2                !
 ! A159  A(48,47,49)           119.984          estimate D2E/DX2                !
 ! A160  A(45,48,47)           119.9034         estimate D2E/DX2                !
 ! A161  A(45,48,50)           119.5276         estimate D2E/DX2                !
 ! A162  A(47,48,50)           119.9566         estimate D2E/DX2                !
 ! A163  A(10,49,47)           109.1215         estimate D2E/DX2                !
 ! A164  A(10,49,51)           100.6638         estimate D2E/DX2                !
 ! A165  A(10,49,91)           113.685          estimate D2E/DX2                !
 ! A166  A(47,49,51)           111.4249         estimate D2E/DX2                !
 ! A167  A(47,49,91)           109.0497         estimate D2E/DX2                !
 ! A168  A(51,49,91)           112.6845         estimate D2E/DX2                !
 ! A169  A(11,50,48)           109.7729         estimate D2E/DX2                !
 ! A170  A(11,50,52)           100.9197         estimate D2E/DX2                !
 ! A171  A(11,50,92)           113.2465         estimate D2E/DX2                !
 ! A172  A(48,50,52)           111.2654         estimate D2E/DX2                !
 ! A173  A(48,50,92)           108.977          estimate D2E/DX2                !
 ! A174  A(52,50,92)           112.4864         estimate D2E/DX2                !
 ! A175  A(49,51,52)           121.723          estimate D2E/DX2                !
 ! A176  A(49,51,55)           111.9527         estimate D2E/DX2                !
 ! A177  A(52,51,55)           123.3146         estimate D2E/DX2                !
 ! A178  A(50,52,51)           122.1684         estimate D2E/DX2                !
 ! A179  A(50,52,56)           111.843          estimate D2E/DX2                !
 ! A180  A(51,52,56)           122.9545         estimate D2E/DX2                !
 ! A181  A(10,53,19)           121.3285         estimate D2E/DX2                !
 ! A182  A(10,53,55)           109.9823         estimate D2E/DX2                !
 ! A183  A(19,53,55)           125.2275         estimate D2E/DX2                !
 ! A184  A(11,54,20)           121.1066         estimate D2E/DX2                !
 ! A185  A(11,54,56)           110.4963         estimate D2E/DX2                !
 ! A186  A(20,54,56)           124.018          estimate D2E/DX2                !
 ! A187  A(51,55,53)           100.9951         estimate D2E/DX2                !
 ! A188  A(51,55,83)           111.2671         estimate D2E/DX2                !
 ! A189  A(51,55,101)          111.9498         estimate D2E/DX2                !
 ! A190  A(53,55,83)           110.4542         estimate D2E/DX2                !
 ! A191  A(53,55,101)          111.6564         estimate D2E/DX2                !
 ! A192  A(83,55,101)          110.2303         estimate D2E/DX2                !
 ! A193  A(52,56,54)           101.2014         estimate D2E/DX2                !
 ! A194  A(52,56,84)           111.0834         estimate D2E/DX2                !
 ! A195  A(52,56,102)          111.6235         estimate D2E/DX2                !
 ! A196  A(54,56,84)           112.144          estimate D2E/DX2                !
 ! A197  A(54,56,102)          111.1432         estimate D2E/DX2                !
 ! A198  A(84,56,102)          109.4671         estimate D2E/DX2                !
 ! A199  A(21,57,59)           109.7789         estimate D2E/DX2                !
 ! A200  A(21,57,83)           125.4718         estimate D2E/DX2                !
 ! A201  A(59,57,83)           121.0808         estimate D2E/DX2                !
 ! A202  A(22,58,60)           107.7618         estimate D2E/DX2                !
 ! A203  A(22,58,84)           123.5793         estimate D2E/DX2                !
 ! A204  A(60,58,84)           121.4994         estimate D2E/DX2                !
 ! A205  A(57,59,60)           120.1078         estimate D2E/DX2                !
 ! A206  A(57,59,61)           113.166          estimate D2E/DX2                !
 ! A207  A(60,59,61)           121.2116         estimate D2E/DX2                !
 ! A208  A(58,60,59)           119.2644         estimate D2E/DX2                !
 ! A209  A(58,60,62)           111.8984         estimate D2E/DX2                !
 ! A210  A(59,60,62)           122.2415         estimate D2E/DX2                !
 ! A211  A(23,61,59)           100.3013         estimate D2E/DX2                !
 ! A212  A(23,61,63)           111.3416         estimate D2E/DX2                !
 ! A213  A(23,61,89)           113.0347         estimate D2E/DX2                !
 ! A214  A(59,61,63)           109.0818         estimate D2E/DX2                !
 ! A215  A(59,61,89)           114.1233         estimate D2E/DX2                !
 ! A216  A(63,61,89)           108.7491         estimate D2E/DX2                !
 ! A217  A(24,62,60)           100.4582         estimate D2E/DX2                !
 ! A218  A(24,62,64)           110.2903         estimate D2E/DX2                !
 ! A219  A(24,62,90)           114.0198         estimate D2E/DX2                !
 ! A220  A(60,62,64)           108.8724         estimate D2E/DX2                !
 ! A221  A(60,62,90)           114.1915         estimate D2E/DX2                !
 ! A222  A(64,62,90)           108.7288         estimate D2E/DX2                !
 ! A223  A(61,63,64)           120.591          estimate D2E/DX2                !
 ! A224  A(61,63,65)           119.2777         estimate D2E/DX2                !
 ! A225  A(64,63,65)           119.8836         estimate D2E/DX2                !
 ! A226  A(62,64,63)           119.7146         estimate D2E/DX2                !
 ! A227  A(62,64,66)           120.1909         estimate D2E/DX2                !
 ! A228  A(63,64,66)           119.9042         estimate D2E/DX2                !
 ! A229  A(27,65,63)           118.9387         estimate D2E/DX2                !
 ! A230  A(27,65,67)           120.39           estimate D2E/DX2                !
 ! A231  A(63,65,67)           120.3755         estimate D2E/DX2                !
 ! A232  A(28,66,64)           119.6299         estimate D2E/DX2                !
 ! A233  A(28,66,68)           119.9201         estimate D2E/DX2                !
 ! A234  A(64,66,68)           120.2613         estimate D2E/DX2                !
 ! A235  A(65,67,68)           119.8523         estimate D2E/DX2                !
 ! A236  A(65,67,69)           119.4982         estimate D2E/DX2                !
 ! A237  A(68,67,69)           120.4577         estimate D2E/DX2                !
 ! A238  A(66,68,67)           119.7129         estimate D2E/DX2                !
 ! A239  A(66,68,70)           119.8426         estimate D2E/DX2                !
 ! A240  A(67,68,70)           120.2841         estimate D2E/DX2                !
 ! A241  A(31,69,67)           108.2173         estimate D2E/DX2                !
 ! A242  A(31,69,71)           100.7902         estimate D2E/DX2                !
 ! A243  A(31,69,86)           114.6094         estimate D2E/DX2                !
 ! A244  A(67,69,71)           110.267          estimate D2E/DX2                !
 ! A245  A(67,69,86)           108.7579         estimate D2E/DX2                !
 ! A246  A(71,69,86)           113.894          estimate D2E/DX2                !
 ! A247  A(32,70,68)           108.5297         estimate D2E/DX2                !
 ! A248  A(32,70,72)           100.834          estimate D2E/DX2                !
 ! A249  A(32,70,87)           114.6172         estimate D2E/DX2                !
 ! A250  A(68,70,72)           110.1112         estimate D2E/DX2                !
 ! A251  A(68,70,87)           108.5675         estimate D2E/DX2                !
 ! A252  A(72,70,87)           113.9046         estimate D2E/DX2                !
 ! A253  A(69,71,72)           121.86           estimate D2E/DX2                !
 ! A254  A(69,71,73)           110.68           estimate D2E/DX2                !
 ! A255  A(72,71,73)           119.1492         estimate D2E/DX2                !
 ! A256  A(70,72,71)           121.8639         estimate D2E/DX2                !
 ! A257  A(70,72,74)           110.691          estimate D2E/DX2                !
 ! A258  A(71,72,74)           119.1468         estimate D2E/DX2                !
 ! A259  A(33,73,71)           108.3711         estimate D2E/DX2                !
 ! A260  A(33,73,75)           120.0282         estimate D2E/DX2                !
 ! A261  A(71,73,75)           121.6155         estimate D2E/DX2                !
 ! A262  A(34,74,72)           108.6533         estimate D2E/DX2                !
 ! A263  A(34,74,76)           120.2991         estimate D2E/DX2                !
 ! A264  A(72,74,76)           121.5881         estimate D2E/DX2                !
 ! A265  A(73,75,76)           119.2397         estimate D2E/DX2                !
 ! A266  A(73,75,77)           122.0068         estimate D2E/DX2                !
 ! A267  A(76,75,77)           111.9137         estimate D2E/DX2                !
 ! A268  A(74,76,75)           119.1697         estimate D2E/DX2                !
 ! A269  A(74,76,78)           122.0875         estimate D2E/DX2                !
 ! A270  A(75,76,78)           111.8381         estimate D2E/DX2                !
 ! A271  A(37,77,75)           112.6394         estimate D2E/DX2                !
 ! A272  A(37,77,81)           111.6662         estimate D2E/DX2                !
 ! A273  A(37,77,97)           108.3594         estimate D2E/DX2                !
 ! A274  A(75,77,81)           100.6693         estimate D2E/DX2                !
 ! A275  A(75,77,97)           112.0709         estimate D2E/DX2                !
 ! A276  A(81,77,97)           111.3561         estimate D2E/DX2                !
 ! A277  A(38,78,76)           112.5404         estimate D2E/DX2                !
 ! A278  A(38,78,81)           111.7811         estimate D2E/DX2                !
 ! A279  A(38,78,100)          108.4572         estimate D2E/DX2                !
 ! A280  A(76,78,81)           100.7174         estimate D2E/DX2                !
 ! A281  A(76,78,100)          112.0237         estimate D2E/DX2                !
 ! A282  A(81,78,100)          111.2321         estimate D2E/DX2                !
 ! A283  A(39,79,40)           109.0254         estimate D2E/DX2                !
 ! A284  A(39,79,82)           112.3157         estimate D2E/DX2                !
 ! A285  A(39,79,94)           110.5236         estimate D2E/DX2                !
 ! A286  A(40,79,82)           100.1361         estimate D2E/DX2                !
 ! A287  A(40,79,94)           111.9735         estimate D2E/DX2                !
 ! A288  A(82,79,94)           112.4492         estimate D2E/DX2                !
 ! A289  A(41,80,42)           109.006          estimate D2E/DX2                !
 ! A290  A(41,80,82)           100.1409         estimate D2E/DX2                !
 ! A291  A(41,80,96)           111.9117         estimate D2E/DX2                !
 ! A292  A(42,80,82)           112.3671         estimate D2E/DX2                !
 ! A293  A(42,80,96)           110.5315         estimate D2E/DX2                !
 ! A294  A(82,80,96)           112.463          estimate D2E/DX2                !
 ! A295  A(77,81,78)           112.6142         estimate D2E/DX2                !
 ! A296  A(77,81,82)           122.4352         estimate D2E/DX2                !
 ! A297  A(78,81,82)           122.5113         estimate D2E/DX2                !
 ! A298  A(79,82,80)           111.8975         estimate D2E/DX2                !
 ! A299  A(79,82,81)           122.2185         estimate D2E/DX2                !
 ! A300  A(80,82,81)           122.1525         estimate D2E/DX2                !
 ! A301  A(55,83,57)           117.7417         estimate D2E/DX2                !
 ! A302  A(55,83,84)           120.8923         estimate D2E/DX2                !
 ! A303  A(57,83,84)           119.2491         estimate D2E/DX2                !
 ! A304  A(56,84,58)           117.1197         estimate D2E/DX2                !
 ! A305  A(56,84,83)           121.946          estimate D2E/DX2                !
 ! A306  A(58,84,83)           118.7453         estimate D2E/DX2                !
 ! D1    D(17,1,5,9)            19.9064         estimate D2E/DX2                !
 ! D2    D(17,1,5,29)         -135.2238         estimate D2E/DX2                !
 ! D3    D(25,1,5,9)           138.1934         estimate D2E/DX2                !
 ! D4    D(25,1,5,29)          -16.9368         estimate D2E/DX2                !
 ! D5    D(98,1,5,9)          -103.0522         estimate D2E/DX2                !
 ! D6    D(98,1,5,29)          101.8176         estimate D2E/DX2                !
 ! D7    D(5,1,17,15)          -27.3425         estimate D2E/DX2                !
 ! D8    D(5,1,17,19)          135.4902         estimate D2E/DX2                !
 ! D9    D(25,1,17,15)        -139.3583         estimate D2E/DX2                !
 ! D10   D(25,1,17,19)          23.4744         estimate D2E/DX2                !
 ! D11   D(98,1,17,15)          96.5179         estimate D2E/DX2                !
 ! D12   D(98,1,17,19)        -100.6494         estimate D2E/DX2                !
 ! D13   D(5,1,25,23)         -141.5652         estimate D2E/DX2                !
 ! D14   D(5,1,25,27)           18.1827         estimate D2E/DX2                !
 ! D15   D(17,1,25,23)         -22.231          estimate D2E/DX2                !
 ! D16   D(17,1,25,27)         137.517          estimate D2E/DX2                !
 ! D17   D(98,1,25,23)         100.3997         estimate D2E/DX2                !
 ! D18   D(98,1,25,27)         -99.8524         estimate D2E/DX2                !
 ! D19   D(43,2,6,10)         -141.2566         estimate D2E/DX2                !
 ! D20   D(43,2,6,15)            9.4107         estimate D2E/DX2                !
 ! D21   D(44,2,6,10)          -25.9022         estimate D2E/DX2                !
 ! D22   D(44,2,6,15)          124.7652         estimate D2E/DX2                !
 ! D23   D(93,2,6,10)           97.8482         estimate D2E/DX2                !
 ! D24   D(93,2,6,15)         -111.4844         estimate D2E/DX2                !
 ! D25   D(6,2,43,13)          -11.1067         estimate D2E/DX2                !
 ! D26   D(6,2,43,39)          145.3304         estimate D2E/DX2                !
 ! D27   D(44,2,43,13)        -126.1147         estimate D2E/DX2                !
 ! D28   D(44,2,43,39)          30.3224         estimate D2E/DX2                !
 ! D29   D(93,2,43,13)         110.5913         estimate D2E/DX2                !
 ! D30   D(93,2,43,39)         -92.9717         estimate D2E/DX2                !
 ! D31   D(6,2,44,40)         -144.0406         estimate D2E/DX2                !
 ! D32   D(6,2,44,47)           23.6009         estimate D2E/DX2                !
 ! D33   D(43,2,44,40)         -34.1781         estimate D2E/DX2                !
 ! D34   D(43,2,44,47)         133.4633         estimate D2E/DX2                !
 ! D35   D(93,2,44,40)          90.3277         estimate D2E/DX2                !
 ! D36   D(93,2,44,47)        -102.0308         estimate D2E/DX2                !
 ! D37   D(18,3,7,12)            3.1668         estimate D2E/DX2                !
 ! D38   D(18,3,7,30)          150.9395         estimate D2E/DX2                !
 ! D39   D(26,3,7,12)         -145.7896         estimate D2E/DX2                !
 ! D40   D(26,3,7,30)            1.9831         estimate D2E/DX2                !
 ! D41   D(7,3,18,16)            5.4085         estimate D2E/DX2                !
 ! D42   D(7,3,18,20)         -145.4943         estimate D2E/DX2                !
 ! D43   D(26,3,18,16)         150.1923         estimate D2E/DX2                !
 ! D44   D(26,3,18,20)          -0.7105         estimate D2E/DX2                !
 ! D45   D(7,3,26,24)          148.0716         estimate D2E/DX2                !
 ! D46   D(7,3,26,28)           -1.6337         estimate D2E/DX2                !
 ! D47   D(18,3,26,24)          -0.9232         estimate D2E/DX2                !
 ! D48   D(18,3,26,28)        -150.6285         estimate D2E/DX2                !
 ! D49   D(45,4,8,11)           25.0398         estimate D2E/DX2                !
 ! D50   D(45,4,8,16)         -124.5432         estimate D2E/DX2                !
 ! D51   D(46,4,8,11)          140.6184         estimate D2E/DX2                !
 ! D52   D(46,4,8,16)           -8.9646         estimate D2E/DX2                !
 ! D53   D(95,4,8,11)          -98.6735         estimate D2E/DX2                !
 ! D54   D(95,4,8,16)          111.7435         estimate D2E/DX2                !
 ! D55   D(8,4,45,41)          144.6598         estimate D2E/DX2                !
 ! D56   D(8,4,45,48)          -23.3462         estimate D2E/DX2                !
 ! D57   D(46,4,45,41)          33.9949         estimate D2E/DX2                !
 ! D58   D(46,4,45,48)        -134.0111         estimate D2E/DX2                !
 ! D59   D(95,4,45,41)         -89.9942         estimate D2E/DX2                !
 ! D60   D(95,4,45,48)         101.9998         estimate D2E/DX2                !
 ! D61   D(8,4,46,14)            9.8829         estimate D2E/DX2                !
 ! D62   D(8,4,46,42)         -145.9291         estimate D2E/DX2                !
 ! D63   D(45,4,46,14)         125.7978         estimate D2E/DX2                !
 ! D64   D(45,4,46,42)         -30.0142         estimate D2E/DX2                !
 ! D65   D(95,4,46,14)        -111.3965         estimate D2E/DX2                !
 ! D66   D(95,4,46,42)          92.7915         estimate D2E/DX2                !
 ! D67   D(1,5,9,13)            -2.9131         estimate D2E/DX2                !
 ! D68   D(1,5,9,35)          -157.1816         estimate D2E/DX2                !
 ! D69   D(29,5,9,13)          149.8916         estimate D2E/DX2                !
 ! D70   D(29,5,9,35)           -4.377          estimate D2E/DX2                !
 ! D71   D(1,5,29,27)           10.4659         estimate D2E/DX2                !
 ! D72   D(1,5,29,31)          164.4338         estimate D2E/DX2                !
 ! D73   D(9,5,29,27)         -145.9567         estimate D2E/DX2                !
 ! D74   D(9,5,29,31)            8.0112         estimate D2E/DX2                !
 ! D75   D(2,6,10,49)           -1.6181         estimate D2E/DX2                !
 ! D76   D(2,6,10,53)          150.6109         estimate D2E/DX2                !
 ! D77   D(15,6,10,49)        -150.0056         estimate D2E/DX2                !
 ! D78   D(15,6,10,53)           2.2234         estimate D2E/DX2                !
 ! D79   D(2,6,15,13)           -4.6287         estimate D2E/DX2                !
 ! D80   D(2,6,15,17)         -154.3588         estimate D2E/DX2                !
 ! D81   D(10,6,15,13)         147.2288         estimate D2E/DX2                !
 ! D82   D(10,6,15,17)          -2.5013         estimate D2E/DX2                !
 ! D83   D(3,7,12,14)           -8.106          estimate D2E/DX2                !
 ! D84   D(3,7,12,36)          145.3715         estimate D2E/DX2                !
 ! D85   D(30,7,12,14)        -151.7452         estimate D2E/DX2                !
 ! D86   D(30,7,12,36)           1.7323         estimate D2E/DX2                !
 ! D87   D(3,7,30,28)           -1.6067         estimate D2E/DX2                !
 ! D88   D(3,7,30,32)         -152.1272         estimate D2E/DX2                !
 ! D89   D(12,7,30,28)         146.2981         estimate D2E/DX2                !
 ! D90   D(12,7,30,32)          -4.2224         estimate D2E/DX2                !
 ! D91   D(4,8,11,50)            2.2138         estimate D2E/DX2                !
 ! D92   D(4,8,11,54)         -150.0162         estimate D2E/DX2                !
 ! D93   D(16,8,11,50)         149.1582         estimate D2E/DX2                !
 ! D94   D(16,8,11,54)          -3.0718         estimate D2E/DX2                !
 ! D95   D(4,8,16,14)            5.0301         estimate D2E/DX2                !
 ! D96   D(4,8,16,18)          152.9976         estimate D2E/DX2                !
 ! D97   D(11,8,16,14)        -145.5342         estimate D2E/DX2                !
 ! D98   D(11,8,16,18)           2.4334         estimate D2E/DX2                !
 ! D99   D(5,9,13,15)           -7.0887         estimate D2E/DX2                !
 ! D100  D(5,9,13,43)         -151.6797         estimate D2E/DX2                !
 ! D101  D(35,9,13,15)         147.8782         estimate D2E/DX2                !
 ! D102  D(35,9,13,43)           3.2872         estimate D2E/DX2                !
 ! D103  D(5,9,35,33)           -4.8674         estimate D2E/DX2                !
 ! D104  D(5,9,35,37)          151.2538         estimate D2E/DX2                !
 ! D105  D(13,9,35,33)        -158.7842         estimate D2E/DX2                !
 ! D106  D(13,9,35,37)          -2.6631         estimate D2E/DX2                !
 ! D107  D(6,10,49,47)          30.9614         estimate D2E/DX2                !
 ! D108  D(6,10,49,51)         148.2639         estimate D2E/DX2                !
 ! D109  D(6,10,49,91)         -90.9972         estimate D2E/DX2                !
 ! D110  D(53,10,49,47)       -123.0539         estimate D2E/DX2                !
 ! D111  D(53,10,49,51)         -5.7513         estimate D2E/DX2                !
 ! D112  D(53,10,49,91)        114.9876         estimate D2E/DX2                !
 ! D113  D(6,10,53,19)          -1.5058         estimate D2E/DX2                !
 ! D114  D(6,10,53,55)        -161.5357         estimate D2E/DX2                !
 ! D115  D(49,10,53,19)        153.2704         estimate D2E/DX2                !
 ! D116  D(49,10,53,55)         -6.7595         estimate D2E/DX2                !
 ! D117  D(8,11,50,48)         -30.8312         estimate D2E/DX2                !
 ! D118  D(8,11,50,52)        -148.3393         estimate D2E/DX2                !
 ! D119  D(8,11,50,92)          91.2092         estimate D2E/DX2                !
 ! D120  D(54,11,50,48)        123.4509         estimate D2E/DX2                !
 ! D121  D(54,11,50,52)          5.9429         estimate D2E/DX2                !
 ! D122  D(54,11,50,92)       -114.5086         estimate D2E/DX2                !
 ! D123  D(8,11,54,20)           2.8024         estimate D2E/DX2                !
 ! D124  D(8,11,54,56)         160.1894         estimate D2E/DX2                !
 ! D125  D(50,11,54,20)       -151.8835         estimate D2E/DX2                !
 ! D126  D(50,11,54,56)          5.5036         estimate D2E/DX2                !
 ! D127  D(7,12,14,16)           4.7352         estimate D2E/DX2                !
 ! D128  D(7,12,14,46)         151.5981         estimate D2E/DX2                !
 ! D129  D(36,12,14,16)       -149.1807         estimate D2E/DX2                !
 ! D130  D(36,12,14,46)         -2.3178         estimate D2E/DX2                !
 ! D131  D(7,12,36,34)           5.3079         estimate D2E/DX2                !
 ! D132  D(7,12,36,38)        -150.2915         estimate D2E/DX2                !
 ! D133  D(14,12,36,34)        158.1128         estimate D2E/DX2                !
 ! D134  D(14,12,36,38)          2.5135         estimate D2E/DX2                !
 ! D135  D(9,13,15,6)         -151.2913         estimate D2E/DX2                !
 ! D136  D(9,13,15,17)          -1.9485         estimate D2E/DX2                !
 ! D137  D(43,13,15,6)          -2.8466         estimate D2E/DX2                !
 ! D138  D(43,13,15,17)        146.4962         estimate D2E/DX2                !
 ! D139  D(9,13,43,2)          157.2985         estimate D2E/DX2                !
 ! D140  D(9,13,43,39)          -0.2525         estimate D2E/DX2                !
 ! D141  D(15,13,43,2)           9.0898         estimate D2E/DX2                !
 ! D142  D(15,13,43,39)       -148.4612         estimate D2E/DX2                !
 ! D143  D(12,14,16,8)         151.9626         estimate D2E/DX2                !
 ! D144  D(12,14,16,18)          3.8516         estimate D2E/DX2                !
 ! D145  D(46,14,16,8)           1.6175         estimate D2E/DX2                !
 ! D146  D(46,14,16,18)       -146.4935         estimate D2E/DX2                !
 ! D147  D(12,14,46,4)        -158.1895         estimate D2E/DX2                !
 ! D148  D(12,14,46,42)         -1.0184         estimate D2E/DX2                !
 ! D149  D(16,14,46,4)          -7.5126         estimate D2E/DX2                !
 ! D150  D(16,14,46,42)        149.6584         estimate D2E/DX2                !
 ! D151  D(6,15,17,1)          165.3953         estimate D2E/DX2                !
 ! D152  D(6,15,17,19)           1.94           estimate D2E/DX2                !
 ! D153  D(13,15,17,1)          20.2918         estimate D2E/DX2                !
 ! D154  D(13,15,17,19)       -143.1635         estimate D2E/DX2                !
 ! D155  D(8,16,18,3)         -152.5959         estimate D2E/DX2                !
 ! D156  D(8,16,18,20)          -1.4497         estimate D2E/DX2                !
 ! D157  D(14,16,18,3)          -8.7611         estimate D2E/DX2                !
 ! D158  D(14,16,18,20)        142.3851         estimate D2E/DX2                !
 ! D159  D(1,17,19,21)          -1.2233         estimate D2E/DX2                !
 ! D160  D(1,17,19,53)        -163.7153         estimate D2E/DX2                !
 ! D161  D(15,17,19,21)        161.3482         estimate D2E/DX2                !
 ! D162  D(15,17,19,53)         -1.1439         estimate D2E/DX2                !
 ! D163  D(3,18,20,22)           0.8621         estimate D2E/DX2                !
 ! D164  D(3,18,20,54)         151.3871         estimate D2E/DX2                !
 ! D165  D(16,18,20,22)       -149.4241         estimate D2E/DX2                !
 ! D166  D(16,18,20,54)          1.1009         estimate D2E/DX2                !
 ! D167  D(17,19,21,23)        -22.362          estimate D2E/DX2                !
 ! D168  D(17,19,21,57)       -133.4995         estimate D2E/DX2                !
 ! D169  D(17,19,21,99)        102.3732         estimate D2E/DX2                !
 ! D170  D(53,19,21,23)        140.3539         estimate D2E/DX2                !
 ! D171  D(53,19,21,57)         29.2164         estimate D2E/DX2                !
 ! D172  D(53,19,21,99)        -94.9109         estimate D2E/DX2                !
 ! D173  D(17,19,53,10)          0.948          estimate D2E/DX2                !
 ! D174  D(17,19,53,55)        157.8113         estimate D2E/DX2                !
 ! D175  D(21,19,53,10)       -162.007          estimate D2E/DX2                !
 ! D176  D(21,19,53,55)         -5.1437         estimate D2E/DX2                !
 ! D177  D(18,20,22,24)          0.578          estimate D2E/DX2                !
 ! D178  D(18,20,22,58)        141.7578         estimate D2E/DX2                !
 ! D179  D(54,20,22,24)       -150.419          estimate D2E/DX2                !
 ! D180  D(54,20,22,58)         -9.2391         estimate D2E/DX2                !
 ! D181  D(18,20,54,11)         -1.7947         estimate D2E/DX2                !
 ! D182  D(18,20,54,56)       -156.0395         estimate D2E/DX2                !
 ! D183  D(22,20,54,11)        148.7856         estimate D2E/DX2                !
 ! D184  D(22,20,54,56)         -5.4592         estimate D2E/DX2                !
 ! D185  D(19,21,23,25)         24.5447         estimate D2E/DX2                !
 ! D186  D(19,21,23,61)       -135.5718         estimate D2E/DX2                !
 ! D187  D(57,21,23,25)        141.6243         estimate D2E/DX2                !
 ! D188  D(57,21,23,61)        -18.4923         estimate D2E/DX2                !
 ! D189  D(99,21,23,25)        -99.296          estimate D2E/DX2                !
 ! D190  D(99,21,23,61)        100.5874         estimate D2E/DX2                !
 ! D191  D(19,21,57,59)        133.3974         estimate D2E/DX2                !
 ! D192  D(19,21,57,83)        -25.018          estimate D2E/DX2                !
 ! D193  D(23,21,57,59)         15.7206         estimate D2E/DX2                !
 ! D194  D(23,21,57,83)       -142.6948         estimate D2E/DX2                !
 ! D195  D(99,21,57,59)       -103.3762         estimate D2E/DX2                !
 ! D196  D(99,21,57,83)         98.2084         estimate D2E/DX2                !
 ! D197  D(20,22,24,26)         -2.245          estimate D2E/DX2                !
 ! D198  D(20,22,24,62)        147.7469         estimate D2E/DX2                !
 ! D199  D(58,22,24,26)       -147.3219         estimate D2E/DX2                !
 ! D200  D(58,22,24,62)          2.67           estimate D2E/DX2                !
 ! D201  D(20,22,58,60)       -146.9577         estimate D2E/DX2                !
 ! D202  D(20,22,58,84)          3.6403         estimate D2E/DX2                !
 ! D203  D(24,22,58,60)         -0.8942         estimate D2E/DX2                !
 ! D204  D(24,22,58,84)        149.7039         estimate D2E/DX2                !
 ! D205  D(21,23,25,1)          -1.8568         estimate D2E/DX2                !
 ! D206  D(21,23,25,27)       -159.7882         estimate D2E/DX2                !
 ! D207  D(61,23,25,1)         156.6801         estimate D2E/DX2                !
 ! D208  D(61,23,25,27)         -1.2514         estimate D2E/DX2                !
 ! D209  D(21,23,61,59)         13.9269         estimate D2E/DX2                !
 ! D210  D(21,23,61,63)        129.2517         estimate D2E/DX2                !
 ! D211  D(21,23,61,89)       -107.9885         estimate D2E/DX2                !
 ! D212  D(25,23,61,59)       -146.7522         estimate D2E/DX2                !
 ! D213  D(25,23,61,63)        -31.4273         estimate D2E/DX2                !
 ! D214  D(25,23,61,89)         91.3324         estimate D2E/DX2                !
 ! D215  D(22,24,26,3)           2.3723         estimate D2E/DX2                !
 ! D216  D(22,24,26,28)        148.8905         estimate D2E/DX2                !
 ! D217  D(62,24,26,3)        -145.0244         estimate D2E/DX2                !
 ! D218  D(62,24,26,28)          1.4938         estimate D2E/DX2                !
 ! D219  D(22,24,62,60)         -3.1689         estimate D2E/DX2                !
 ! D220  D(22,24,62,64)       -117.936          estimate D2E/DX2                !
 ! D221  D(22,24,62,90)        119.411          estimate D2E/DX2                !
 ! D222  D(26,24,62,60)        146.7811         estimate D2E/DX2                !
 ! D223  D(26,24,62,64)         32.014          estimate D2E/DX2                !
 ! D224  D(26,24,62,90)        -90.639          estimate D2E/DX2                !
 ! D225  D(1,25,27,29)         -12.6098         estimate D2E/DX2                !
 ! D226  D(1,25,27,65)        -127.3099         estimate D2E/DX2                !
 ! D227  D(1,25,27,85)         109.5753         estimate D2E/DX2                !
 ! D228  D(23,25,27,29)        147.4233         estimate D2E/DX2                !
 ! D229  D(23,25,27,65)         32.7232         estimate D2E/DX2                !
 ! D230  D(23,25,27,85)        -90.3916         estimate D2E/DX2                !
 ! D231  D(3,26,28,30)           0.6527         estimate D2E/DX2                !
 ! D232  D(3,26,28,66)         115.0873         estimate D2E/DX2                !
 ! D233  D(3,26,28,88)        -122.3977         estimate D2E/DX2                !
 ! D234  D(24,26,28,30)       -148.2621         estimate D2E/DX2                !
 ! D235  D(24,26,28,66)        -33.8275         estimate D2E/DX2                !
 ! D236  D(24,26,28,88)         88.6875         estimate D2E/DX2                !
 ! D237  D(25,27,29,5)           1.158          estimate D2E/DX2                !
 ! D238  D(25,27,29,31)       -152.4602         estimate D2E/DX2                !
 ! D239  D(65,27,29,5)         117.989          estimate D2E/DX2                !
 ! D240  D(65,27,29,31)        -35.6291         estimate D2E/DX2                !
 ! D241  D(85,27,29,5)        -119.7234         estimate D2E/DX2                !
 ! D242  D(85,27,29,31)         86.6584         estimate D2E/DX2                !
 ! D243  D(25,27,65,63)        -30.4715         estimate D2E/DX2                !
 ! D244  D(25,27,65,67)        143.3064         estimate D2E/DX2                !
 ! D245  D(29,27,65,63)       -140.1476         estimate D2E/DX2                !
 ! D246  D(29,27,65,67)         33.6303         estimate D2E/DX2                !
 ! D247  D(85,27,65,63)         94.4997         estimate D2E/DX2                !
 ! D248  D(85,27,65,67)        -91.7224         estimate D2E/DX2                !
 ! D249  D(26,28,30,7)           0.6077         estimate D2E/DX2                !
 ! D250  D(26,28,30,32)        150.1911         estimate D2E/DX2                !
 ! D251  D(66,28,30,7)        -114.8347         estimate D2E/DX2                !
 ! D252  D(66,28,30,32)         34.7487         estimate D2E/DX2                !
[...]
 Alpha virt. eigenvalues --    1.62141   1.62385   1.62915   1.63037   1.63187
 Alpha virt. eigenvalues --    1.63338   1.63654   1.63843   1.64007   1.64417
 Alpha virt. eigenvalues --    1.64622   1.64712   1.65115   1.65278   1.65731
 Alpha virt. eigenvalues --    1.65933   1.66314   1.66484   1.66762   1.67131
 Alpha virt. eigenvalues --    1.67186   1.67310   1.67419   1.67711   1.67812
 Alpha virt. eigenvalues --    1.68130   1.68341   1.68411   1.68833   1.69063
 Alpha virt. eigenvalues --    1.69196   1.69259   1.69517   1.69913   1.70070
 Alpha virt. eigenvalues --    1.70285   1.70550   1.70720   1.70887   1.71018
 Alpha virt. eigenvalues --    1.71343   1.71758   1.71882   1.72089   1.72369
 Alpha virt. eigenvalues --    1.72520   1.72686   1.73166   1.73255   1.73389
 Alpha virt. eigenvalues --    1.73982   1.74536   1.74580   1.74773   1.74928
 Alpha virt. eigenvalues --    1.75265   1.75381   1.75488   1.75695   1.75871
 Alpha virt. eigenvalues --    1.76165   1.76186   1.76342   1.76707   1.76801
 Alpha virt. eigenvalues --    1.77316   1.77558   1.77633   1.78000   1.78226
 Alpha virt. eigenvalues --    1.78448   1.78772   1.78931   1.79379   1.79417
 Alpha virt. eigenvalues --    1.79706   1.79877   1.80251   1.80597   1.80681
 Alpha virt. eigenvalues --    1.80809   1.81303   1.81394   1.81430   1.81735
 Alpha virt. eigenvalues --    1.81870   1.82063   1.82289   1.82326   1.82567
 Alpha virt. eigenvalues --    1.82739   1.82915   1.83323   1.83646   1.84039
 Alpha virt. eigenvalues --    1.84280   1.84435   1.84784   1.84987   1.85058
 Alpha virt. eigenvalues --    1.85558   1.85752   1.85975   1.86310   1.86780
 Alpha virt. eigenvalues --    1.86985   1.87535   1.87574   1.87845   1.88251
 Alpha virt. eigenvalues --    1.88356   1.88587   1.88786   1.89284   1.89658
 Alpha virt. eigenvalues --    1.89943   1.90295   1.90960   1.91366   1.91944
 Alpha virt. eigenvalues --    1.92048   1.92413   1.92662   1.93307   1.93313
 Alpha virt. eigenvalues --    1.93455   1.94117   1.94411   1.94954   1.95079
 Alpha virt. eigenvalues --    1.95145   1.95531   1.96274   1.96870   1.96992
 Alpha virt. eigenvalues --    1.97053   1.97335   1.97766   1.98108   1.98505
 Alpha virt. eigenvalues --    1.99098   1.99527   1.99755   2.00023   2.00390
 Alpha virt. eigenvalues --    2.00469   2.01196   2.01623   2.01777   2.02090
 Alpha virt. eigenvalues --    2.02190   2.02608   2.03090   2.03370   2.03492
 Alpha virt. eigenvalues --    2.03711   2.04086   2.04962   2.05297   2.05589
 Alpha virt. eigenvalues --    2.06075   2.06363   2.06589   2.07027   2.07094
 Alpha virt. eigenvalues --    2.07934   2.08010   2.08485   2.09030   2.09360
 Alpha virt. eigenvalues --    2.09432   2.09772   2.10073   2.10497   2.10855
 Alpha virt. eigenvalues --    2.11211   2.11507   2.11910   2.12339   2.13173
 Alpha virt. eigenvalues --    2.13428   2.13601   2.13813   2.14169   2.14454
 Alpha virt. eigenvalues --    2.14754   2.15375   2.15853   2.15961   2.16795
 Alpha virt. eigenvalues --    2.17142   2.17578   2.18060   2.18480   2.18557
 Alpha virt. eigenvalues --    2.19174   2.19421   2.19718   2.20118   2.20613
 Alpha virt. eigenvalues --    2.20804   2.21155   2.21628   2.21784   2.22363
 Alpha virt. eigenvalues --    2.23008   2.23129   2.23727   2.24250   2.24348
 Alpha virt. eigenvalues --    2.24708   2.25222   2.25689   2.26331   2.26459
 Alpha virt. eigenvalues --    2.26972   2.27327   2.27869   2.28054   2.28227
 Alpha virt. eigenvalues --    2.28607   2.29185   2.29428   2.30089   2.30776
 Alpha virt. eigenvalues --    2.30820   2.31444   2.32225   2.32473   2.33040
 Alpha virt. eigenvalues --    2.33514   2.33849   2.34260   2.34728   2.35723
 Alpha virt. eigenvalues --    2.36861   2.37014   2.37232   2.37713   2.38040
 Alpha virt. eigenvalues --    2.38219   2.38449   2.38778   2.39150   2.39783
 Alpha virt. eigenvalues --    2.40529   2.40801   2.41297   2.41795   2.42063
 Alpha virt. eigenvalues --    2.42586   2.43109   2.43614   2.43902   2.44752
 Alpha virt. eigenvalues --    2.44951   2.45497   2.46154   2.46172   2.46787
 Alpha virt. eigenvalues --    2.47481   2.47901   2.48145   2.48732   2.49177
 Alpha virt. eigenvalues --    2.49759   2.50058   2.50225   2.50775   2.51453
 Alpha virt. eigenvalues --    2.51938   2.52321   2.52482   2.53089   2.53368
 Alpha virt. eigenvalues --    2.53771   2.54154   2.54216   2.54744   2.54995
 Alpha virt. eigenvalues --    2.55458   2.55942   2.56285   2.56786   2.57011
 Alpha virt. eigenvalues --    2.57095   2.57453   2.57714   2.58328   2.58541
 Alpha virt. eigenvalues --    2.58923   2.59335   2.59870   2.60281   2.60563
 Alpha virt. eigenvalues --    2.60775   2.61034   2.61206   2.61328   2.61785
 Alpha virt. eigenvalues --    2.62472   2.62737   2.62939   2.63448   2.63862
 Alpha virt. eigenvalues --    2.64424   2.65347   2.65572   2.66018   2.66041
 Alpha virt. eigenvalues --    2.66446   2.66741   2.66976   2.67482   2.67683
 Alpha virt. eigenvalues --    2.68368   2.68639   2.68911   2.69158   2.69591
 Alpha virt. eigenvalues --    2.69946   2.70426   2.70758   2.70937   2.71398
 Alpha virt. eigenvalues --    2.71690   2.72006   2.72295   2.72717   2.73111
 Alpha virt. eigenvalues --    2.73394   2.73847   2.74100   2.74466   2.74801
 Alpha virt. eigenvalues --    2.75363   2.75753   2.75910   2.76135   2.76479
 Alpha virt. eigenvalues --    2.76916   2.77453   2.77701   2.77838   2.77985
 Alpha virt. eigenvalues --    2.78547   2.79048   2.79716   2.80201   2.80460
 Alpha virt. eigenvalues --    2.80715   2.81567   2.82242   2.82381   2.82608
 Alpha virt. eigenvalues --    2.83550   2.83791   2.84016   2.84809   2.85148
 Alpha virt. eigenvalues --    2.85434   2.86122   2.86964   2.87525   2.88011
 Alpha virt. eigenvalues --    2.88228   2.88678   2.89330   2.89942   2.90362
 Alpha virt. eigenvalues --    2.91074   2.92168   2.92713   2.93020   2.93591
 Alpha virt. eigenvalues --    2.94062   2.95024   2.95328   2.96218   2.97013
 Alpha virt. eigenvalues --    2.97151   2.99062   2.99867   3.00993   3.01849
 Alpha virt. eigenvalues --    3.04295   3.06556   3.06851   3.07276   3.08214
 Alpha virt. eigenvalues --    3.09219   3.09415   3.10783   3.11162   3.13223
 Alpha virt. eigenvalues --    3.14585   3.15297   3.16081   3.18046   3.18578
 Alpha virt. eigenvalues --    3.19436   3.20736   3.23532   3.24416   3.25638
 Alpha virt. eigenvalues --    3.25993   3.27755   3.30184   3.32903   3.33995
 Alpha virt. eigenvalues --    3.34730   3.36623   3.38181   3.41515   3.42356
 Alpha virt. eigenvalues --    3.46379   3.47957   3.48412   3.51196   3.53589
 Alpha virt. eigenvalues --    4.00610   4.01413   4.02306   4.03074   4.03596
 Alpha virt. eigenvalues --    4.04749   4.05490   4.06549   4.07107   4.07222
 Alpha virt. eigenvalues --    4.08114   4.08634   4.09263   4.09983   4.10702
 Alpha virt. eigenvalues --    4.11048   4.12171   4.12940   4.13086   4.15295
 Alpha virt. eigenvalues --    4.15543   4.16232   4.16402   4.17268   4.18428
 Alpha virt. eigenvalues --    4.19121   4.19472   4.20123   4.20353   4.20653
 Alpha virt. eigenvalues --    4.21022   4.22032   4.23424   4.24611   4.24791
 Alpha virt. eigenvalues --    4.25447   4.25600   4.25750   4.26634   4.27186
 Alpha virt. eigenvalues --    4.27286   4.27579   4.27929   4.28275   4.28977
 Alpha virt. eigenvalues --    4.29372   4.29526   4.30107   4.30337   4.31507
 Alpha virt. eigenvalues --    4.32238   4.33548   4.35412   4.35511   4.36750
 Alpha virt. eigenvalues --    4.37470   4.38666   4.38872   4.39373   4.40140
 Alpha virt. eigenvalues --    4.40825   4.41889   4.42092   4.42572   4.43617
 Alpha virt. eigenvalues --    4.44347   4.45099   4.45296   4.46100   4.47827
 Alpha virt. eigenvalues --    4.49069   4.50083   4.51730   4.53350   4.54917
 Alpha virt. eigenvalues --    4.56307   4.56542   4.58021   4.59053   4.59947
 Alpha virt. eigenvalues --    4.62507   4.64357   4.65990   4.67199   4.69179
 Alpha virt. eigenvalues --    4.69216   4.74188   4.78109   4.80115   4.80529
 Alpha virt. eigenvalues --    4.81446   4.83485   4.85885   4.89757   4.92923
 Alpha virt. eigenvalues --    4.96848   4.97925   4.98796   5.02832   5.09918
 Alpha virt. eigenvalues --    5.14268   5.19419
          Condensed to atoms (all electrons):
 Mulliken charges:
               1
     1  C   -0.360624
     2  C   -0.395905
     3  C    0.009512
     4  C   -0.396101
     5  C    0.077366
     6  C    0.084276
     7  C    0.013281
     8  C    0.080949
     9  C    0.059313
    10  C    0.131505
    11  C    0.134551
    12  C    0.041145
    13  C   -0.016062
    14  C    0.005986
    15  C    0.044262
    16  C    0.014330
    17  C    0.119133
    18  C    0.045566
    19  C    0.150749
    20  C    0.062838
    21  C   -0.381800
    22  C   -0.014384
    23  C    0.180865
    24  C    0.097472
    25  C    0.186192
    26  C    0.087349
    27  C   -0.370983
    28  C   -0.379403
    29  C    0.133917
    30  C    0.086153
    31  C    0.086917
    32  C    0.096663
    33  C   -0.011342
    34  C   -0.016161
    35  C    0.067469
    36  C    0.070011
    37  C    0.090968
    38  C    0.090832
    39  C    0.151477
    40  C    0.114051
    41  C    0.113844
    42  C    0.152252
    43  C    0.087455
    44  C    0.151400
    45  C    0.151803
    46  C    0.082030
    47  C    0.122812
    48  C    0.121353
    49  C   -0.375438
    50  C   -0.376865
    51  C    0.179436
    52  C    0.184146
    53  C    0.105117
    54  C    0.077978
    55  C   -0.379100
    56  C   -0.356295
    57  C    0.105025
    58  C    0.042773
    59  C    0.130599
    60  C    0.082503
    61  C   -0.371228
    62  C   -0.382406
    63  C    0.124082
    64  C    0.127229
    65  C    0.126994
    66  C    0.125464
    67  C    0.126953
    68  C    0.119532
    69  C   -0.379774
    70  C   -0.376776
    71  C    0.094792
    72  C    0.094364
    73  C    0.031518
    74  C    0.035022
    75  C    0.103269
    76  C    0.103012
    77  C   -0.352017
    78  C   -0.352009
    79  C   -0.378830
    80  C   -0.379104
    81  C    0.177696
    82  C    0.186891
    83  C    0.148525
    84  C    0.119456
    85  Cl   0.034348
    86  Cl   0.032723
    87  Cl   0.031484
    88  Cl   0.033988
    89  Cl   0.033211
    90  Cl   0.034427
    91  Cl   0.031111
    92  Cl   0.030879
    93  Cl   0.034071
    94  Cl   0.032421
    95  Cl   0.033270
    96  Cl   0.032311
    97  Cl   0.007684
    98  Cl   0.004183
    99  Cl   0.021947
   100  Cl   0.001061
   101  Cl   0.023754
   102  Cl  -0.000694
 Sum of Mulliken charges =  -0.00000
 Mulliken charges with hydrogens summed into heavy atoms:
               1
     1  C   -0.360624
     2  C   -0.395905
     3  C    0.009512
     4  C   -0.396101
     5  C    0.077366
     6  C    0.084276
     7  C    0.013281
     8  C    0.080949
     9  C    0.059313
    10  C    0.131505
    11  C    0.134551
    12  C    0.041145
    13  C   -0.016062
    14  C    0.005986
    15  C    0.044262
    16  C    0.014330
    17  C    0.119133
    18  C    0.045566
    19  C    0.150749
    20  C    0.062838
    21  C   -0.381800
    22  C   -0.014384
    23  C    0.180865
    24  C    0.097472
    25  C    0.186192
    26  C    0.087349
    27  C   -0.370983
    28  C   -0.379403
    29  C    0.133917
    30  C    0.086153
    31  C    0.086917
    32  C    0.096663
    33  C   -0.011342
    34  C   -0.016161
    35  C    0.067469
    36  C    0.070011
    37  C    0.090968
    38  C    0.090832
    39  C    0.151477
    40  C    0.114051
    41  C    0.113844
    42  C    0.152252
    43  C    0.087455
    44  C    0.151400
    45  C    0.151803
    46  C    0.082030
    47  C    0.122812
    48  C    0.121353
    49  C   -0.375438
    50  C   -0.376865
    51  C    0.179436
    52  C    0.184146
    53  C    0.105117
    54  C    0.077978
    55  C   -0.379100
    56  C   -0.356295
    57  C    0.105025
    58  C    0.042773
    59  C    0.130599
    60  C    0.082503
    61  C   -0.371228
    62  C   -0.382406
    63  C    0.124082
    64  C    0.127229
    65  C    0.126994
    66  C    0.125464
    67  C    0.126953
    68  C    0.119532
    69  C   -0.379774
    70  C   -0.376776
    71  C    0.094792
    72  C    0.094364
    73  C    0.031518
    74  C    0.035022
    75  C    0.103269
    76  C    0.103012
    77  C   -0.352017
    78  C   -0.352009
    79  C   -0.378830
    80  C   -0.379104
    81  C    0.177696
    82  C    0.186891
    83  C    0.148525
    84  C    0.119456
    85  Cl   0.034348
    86  Cl   0.032723
    87  Cl   0.031484
    88  Cl   0.033988
    89  Cl   0.033211
    90  Cl   0.034427
    91  Cl   0.031111
    92  Cl   0.030879
    93  Cl   0.034071
    94  Cl   0.032421
    95  Cl   0.033270
    96  Cl   0.032311
    97  Cl   0.007684
    98  Cl   0.004183
    99  Cl   0.021947
   100  Cl   0.001061
   101  Cl   0.023754
   102  Cl  -0.000694
 Electronic spatial extent (au):  <R**2>=          76679.2928
 Charge=              0.0000 electrons
 Dipole moment (field-independent basis, Debye):
    X=              0.0429    Y=             -2.1893    Z=             -2.5917  Tot=              3.3929
 Quadrupole moment (field-independent basis, Debye-Ang):
   XX=           -742.4835   YY=           -728.7552   ZZ=           -696.1204
   XY=              2.4127   XZ=              0.5137   YZ=              0.4809
 Traceless Quadrupole moment (field-independent basis, Debye-Ang):
   XX=            -20.0305   YY=             -6.3022   ZZ=             26.3326
   XY=              2.4127   XZ=              0.5137   YZ=              0.4809
 Octapole moment (field-independent basis, Debye-Ang**2):
  XXX=             -7.2149  YYY=            -27.0853  ZZZ=            -22.6859  XYY=            -39.9585
  XXY=             44.5658  XXZ=             -7.7043  XZZ=             24.8798  YZZ=            -13.9454
  YYZ=             12.0454  XYZ=             37.0218
 Hexadecapole moment (field-independent basis, Debye-Ang**3):
 XXXX=         -39830.0555 YYYY=         -38717.3550 ZZZZ=         -28278.5892 XXXY=            225.6627
 XXXZ=             82.8559 YYYX=            123.0471 YYYZ=            132.1820 ZZZX=             33.0866
 ZZZY=             12.2419 XXYY=         -13202.0212 XXZZ=         -11541.1738 YYZZ=         -11150.3599
 XXYZ=              0.6895 YYXZ=              2.6088 ZZXY=              6.8222
 N-N= 3.014457644723D+04 E-N=-8.736346656573D+04  KE= 1.142942058867D+04
 Leave Link  601 at Thu Jun 30 11:59:26 2022, MaxMem=  1342177280 cpu:              18.6 elap:               1.0
 (Enter /home/mkliu/g16/l9999.exe)
 1\1\GINC-NODE03\FOpt\RB3LYP\6-31G(d,p)\C84Cl18\MKLIU\30-Jun-2022\0\\#P
  opt b3lyp/6-31G(d, p) empiricaldispersion=GD3\\force\\0,1\C,8.2234244
 43,18.6332193548,10.6109543373\C,12.4729764892,20.0052932521,8.9148474
 869\C,8.2691874641,26.8564859741,10.5530634275\C,12.4670797867,25.7678
 81976,8.9160341072\C,7.951039516,18.9592566363,9.1573275685\C,11.86296
 78096,19.5844899106,10.2296930262\C,7.9435517019,26.816427773,9.131392
 4401\C,11.8599626616,26.2043636367,10.2308144619\C,8.9561978279,19.135
 4715758,8.1649948589\C,12.1185835404,20.2407315878,11.4095620066\C,12.
 1082897049,25.5291464881,11.4228799937\C,8.9542301788,26.6439611082,8.
 1399056775\C,10.295822237,19.0723513058,8.6041573747\C,10.2913566192,2
 6.6930306772,8.5961117343\C,10.6152327449,18.9810462631,10.0330701093\
 C,10.6222058435,26.7995823179,10.0211707461\C,9.6324703908,18.98512880
 44,11.0288089279\C,9.6106835685,26.7875081043,11.0177254885\C,9.901401
 9448,19.6506066072,12.242551826\C,9.8827402233,26.1097229442,12.259377
 2153\C,8.769642723,20.0575010265,13.1613054564\C,8.782599852,25.528581
 2244,12.9466525446\C,7.4533630333,20.1635657918,12.4174243927\C,7.4800
 061399,25.5927349662,12.4376044528\C,7.2026316948,19.5139082728,11.290
 0555429\C,7.2163692218,26.2716296525,11.2636761704\C,6.113542605,19.95
 9545497,10.3389833255\C,6.1045428116,25.8418870377,10.3253457107\C,6.7
 16799898,19.5688429508,9.0202602955\C,6.6775956848,26.2497289132,8.983
 631528\C,6.3882113937,20.2285595189,7.8481138325\C,6.3689058397,25.574
 4487945,7.8216369552\C,7.3178772131,20.3301083343,6.8143436991\C,7.307
 8891122,25.4645911671,6.7867091052\C,8.6673987301,19.8887567125,6.9735
 585297\C,8.6630194866,25.8977483705,6.9461204159\C,9.7277019023,20.600
 2562634,6.30330366\C,9.7270567294,25.1790498244,6.2861551505\C,11.0243
 62932,20.5664709327,6.8251204196\C,12.6446748479,22.1921736763,7.77330
 02215\C,12.640552695,23.5823482662,7.7742203776\C,11.0233423467,25.208
 3848224,6.8171025929\C,11.3051130698,19.766749246,7.9508071651\C,12.82
 25335364,21.4778510729,8.9548363178\C,12.8130100999,24.2957873475,8.95
 76438902\C,11.3053802587,26.0042261331,7.9418839182\C,13.0436641151,22
 .1805842531,10.1596297188\C,13.038309974,23.5920425784,10.1611353894\C
 ,13.0568609714,21.4170191766,11.4879520212\C,13.0486862624,24.35085372
 4,11.4905395024\C,12.4226557805,22.215034807,12.6060678671\C,12.421358
 0371,23.5433266459,12.6073472881\C,11.1471730629,20.2624625993,12.4209
 775825\C,11.1573364521,25.5013805242,12.4359841539\C,11.4315120386,21.
 3848569792,13.3984107485\C,11.4260381319,24.3614249514,13.3970868409\C
 ,8.9474216435,21.4829863237,13.6330132216\C,8.947080215,24.246452983,1
 3.6256990507\C,7.737955015,22.182978305,13.5195025464\C,7.7307270224,2
 3.5509647576,13.5369923119\C,6.6771258949,21.4041780202,12.7964289056\
 C,6.6795881119,24.3603286599,12.8130021468\C,6.2042839905,22.187440454
 8,11.5541364047\C,6.2136826909,23.6020227039,11.5536800445\C,5.9142500
 029,21.4866051576,10.3695427787\C,5.9306366303,24.3088718729,10.363568
 4794\C,5.6146099277,22.1906566561,9.177273223\C,5.6217146742,23.604239
 6732,9.1733848306\C,5.4348836522,21.4098899618,7.8568299718\C,5.430204
 1446,24.379488101,7.8468496938\C,5.9540392908,22.2077902625,6.67931454
 83\C,5.9522077175,23.5755193847,6.6748627126\C,7.0047855777,21.5112130
 942,6.0339355816\C,7.0054178133,24.2691256795,6.0293310687\C,8.0070415
 098,22.1883943316,5.3621648911\C,8.0077493522,23.5883622186,5.35708869
 67\C,9.3948819061,21.6242228308,5.2171029468\C,9.3960496188,24.1487014
 103,5.2087175123\C,12.0503945208,21.6363774789,6.490095596\C,12.049195
 4091,24.1359162672,6.4881656974\C,10.2308999794,22.886338295,5.3474489
 751\C,11.4297349782,22.8857726854,5.9133382582\C,10.1694035548,22.1608
 386673,13.7070017256\C,10.1726339918,23.5707724347,13.7072717375\Cl,4.
 5230638453,19.1021694242,10.6845896137\Cl,3.6757245933,20.9395441052,7
 .6392293515\Cl,3.6654665686,24.8316432499,7.6409329369\Cl,4.5182427367
 ,26.6740800239,10.7120906935\Cl,5.2325220679,21.0154119029,13.86886557
 83\Cl,5.2364489797,24.7602041398,13.8720528267\Cl,14.7828217194,20.912
 7602274,11.8873637549\Cl,14.7728889497,24.8645931554,11.8890939491\Cl,
 13.9468264483,18.9953699076,8.4882008138\Cl,13.3490837709,20.952534245
 4,5.3747288293\Cl,13.9450543677,26.7729436244,8.487039856\Cl,13.351647
 8299,24.8165293979,5.3753728523\Cl,9.6222443654,20.8324814968,3.552169
 2379\Cl,7.9130146317,16.8296630863,10.9488370912\Cl,8.6480742578,18.88
 09267735,14.5832850722\Cl,9.6274444381,24.926406758,3.5330181173\Cl,12
 .1837032892,20.7447223226,14.9612139762\Cl,12.1708144874,24.9936796269
 ,14.9839852601\\Version=ES64L-G16RevA.03\State=1-A\HF=-11484.635166\RM
 SD=4.983e-09\RMSF=2.008e-05\Dipole=-0.4854824,1.1342236,-0.5096089\Qua
 drupole=-10.5366777,17.8468694,-7.3101917,-3.6108431,4.6280182,6.40757
 22\PG=C01 [X(C84Cl18)]\\@


 IF YOU PERCEIVE THAT THERE ARE FOUR POSSIBLE WAYS IN
 WHICH A PROCEDURE CAN GO WRONG AND CIRCUMVENT THESE, 
 THEN A FIFTH WAY WILL DEVELOP.

                              -- MURPHY'S TWELFTH LAW
 Job cpu time:       1 days 15 hours 21 minutes 55.1 seconds.
 Elapsed time:       0 days  1 hours 38 minutes 33.1 seconds.
 File lengths (MBytes):  RWF=   1574 Int=      0 D2E=      0 Chk=    196 Scr=      1
 Normal termination of Gaussian 16 at Thu Jun 30 11:59:29 2022.
