 Entering Gaussian System, Link 0=g16
 Input=18_addons_C84_14_Cl22_rank_1.gjf
 Output=18_addons_C84_14_Cl22_rank_1.log
 Initial command:
 /home/mkliu/g16/l1.exe "/data/scratch/Gau-191351.inp" -scrdir="/data/scratch/"
 Entering Link 1 = /home/mkliu/g16/l1.exe PID=    191352.
  
 Copyright (c) 1988,1990,1992,1993,1995,1998,2003,2009,2016,
            Gaussian, Inc.  All Rights Reserved.
  
 This is part of the Gaussian(R) 16 program.  It is based on
 the Gaussian(R) 09 system (copyright 2009, Gaussian, Inc.),
 the Gaussian(R) 03 system (copyright 2003, Gaussian, Inc.),
 the Gaussian(R) 98 system (copyright 1998, Gaussian, Inc.),
 the Gaussian(R) 94 system (copyright 1995, Gaussian, Inc.),
 the Gaussian 92(TM) system (copyright 1992, Gaussian, Inc.),
 the Gaussian 90(TM) system (copyright 1990, Gaussian, Inc.),
 the Gaussian 88(TM) system (copyright 1988, Gaussian, Inc.),
 the Gaussian 86(TM) system (copyright 1986, Carnegie Mellon
 University), and the Gaussian 82(TM) system (copyright 1983,
 Carnegie Mellon University). Gaussian is a federally registered
 trademark of Gaussian, Inc.
  
 This software contains proprietary and confidential information,
 including trade secrets, belonging to Gaussian, Inc.
  
 This software is provided under written license and may be
 used, copied, transmitted, or stored only in accord with that
 written license.
  
 The following legend is applicable only to US Government
 contracts under FAR:
  
                    RESTRICTED RIGHTS LEGEND
  
 Use, reproduction and disclosure by the US Government is
 subject to restrictions as set forth in subparagraphs (a)
 and (c) of the Commercial Computer Software - Restricted
 Rights clause in FAR 52.227-19.
  
 Gaussian, Inc.
 340 Quinnipiac St., Bldg. 40, Wallingford CT 06492
  
  
 ---------------------------------------------------------------
 Warning -- This program may not be used in any manner that
 competes with the business of Gaussian, Inc. or will provide
 assistance to any competitor of Gaussian, Inc.  The licensee
 of this program is prohibited from giving any competitor of
 Gaussian, Inc. access to this program.  By using this program,
 the user acknowledges that Gaussian, Inc. is engaged in the
 business of creating and licensing software in the field of
 computational chemistry and represents and warrants to the
 licensee that it is not a competitor of Gaussian, Inc. and that
 it will not use this program in any manner prohibited above.
 ---------------------------------------------------------------
  

 Cite this work as:
 Gaussian 16, Revision A.03,
 M. J. Frisch, G. W. Trucks, H. B. Schlegel, G. E. Scuseria, 
 M. A. Robb, J. R. Cheeseman, G. Scalmani, V. Barone, 
 G. A. Petersson, H. Nakatsuji, X. Li, M. Caricato, A. V. Marenich, 
 J. Bloino, B. G. Janesko, R. Gomperts, B. Mennucci, H. P. Hratchian, 
 J. V. Ortiz, A. F. Izmaylov, J. L. Sonnenberg, D. Williams-Young, 
 F. Ding, F. Lipparini, F. Egidi, J. Goings, B. Peng, A. Petrone, 
 T. Henderson, D. Ranasinghe, V. G. Zakrzewski, J. Gao, N. Rega, 
 G. Zheng, W. Liang, M. Hada, M. Ehara, K. Toyota, R. Fukuda, 
 J. Hasegawa, M. Ishida, T. Nakajima, Y. Honda, O. Kitao, H. Nakai, 
 T. Vreven, K. Throssell, J. A. Montgomery, Jr., J. E. Peralta, 
 F. Ogliaro, M. J. Bearpark, J. J. Heyd, E. N. Brothers, K. N. Kudin, 
 V. N. Staroverov, T. A. Keith, R. Kobayashi, J. Normand, 
 K. Raghavachari, A. P. Rendell, J. C. Burant, S. S. Iyengar, 
 J. Tomasi, M. Cossi, J. M. Millam, M. Klene, C. Adamo, R. Cammi, 
 J. W. Ochterski, R. L. Martin, K. Morokuma, O. Farkas, 
 J. B. Foresman, and D. J. Fox, Gaussian, Inc., Wallingford CT, 2016.
 
 ******************************************
 Gaussian 16:  ES64L-G16RevA.03 25-Dec-2016
                30-Jun-2022 
 ******************************************
 %mem=10GB
 %chk=18_addons_C84_14_Cl22_rank_1.chk
 %nprocshared=24
 Will use up to   24 processors via shared memory.
 ------------------------------------------------
 #P opt b3lyp/6-31G(d, p) empiricaldispersion=GD3
 ------------------------------------------------
 1/18=20,19=15,26=3,38=1/1,3;
 2/9=110,12=2,17=6,18=5,40=1/2;
 3/5=1,6=6,7=101,11=2,25=1,30=1,71=1,74=-5,124=31/1,2,3;
 4//1;
 5/5=2,38=5/2;
 6/7=2,8=2,9=2,10=2,28=1/1;
 7//1,2,3,16;
 1/18=20,19=15,26=3/3(2);
 2/9=110/2;
 99//99;
 2/9=110/2;
 3/5=1,6=6,7=101,11=2,25=1,30=1,71=1,74=-5,124=31/1,2,3;
 4/5=5,16=3,69=1/1;
 5/5=2,38=5/2;
 7//1,2,3,16;
 1/18=20,19=15,26=3/3(-5);
 2/9=110/2;
 6/7=2,8=2,9=2,10=2,19=2,28=1/1;
 99/9=1/99;
 Leave Link    1 at Thu Jun 30 09:01:05 2022, MaxMem=  1342177280 cpu:               0.6 elap:               0.0
 (Enter /home/mkliu/g16/l101.exe)
 -----
 force
 -----
 Symbolic Z-matrix:
 Charge =  0 Multiplicity = 1
 C                     8.23139   18.65185   10.60369 
 C                     12.46328   20.01608   8.91737 
 C                     8.21533   27.11975   10.59755 
 C                     12.46197   25.74732   8.9264 
 C                     7.96072   18.96828   9.15682 
 C                     11.85714   19.60197   10.22314 
 C                     7.94747   26.80169   9.15396 
 C                     11.87222   26.17353   10.23749 
 C                     8.95672   19.15875   8.17651 
 C                     12.11455   20.25132   11.39882 
 C                     12.1436   25.52743   11.39714 
 C                     8.95004   26.60422   8.18408 
 C                     10.29039   19.09912   8.61675 
 C                     10.28386   26.66376   8.63272 
 C                     10.60437   19.00496   10.02979 
 C                     10.59716   26.78139   10.04141 
 C                     9.62707   19.01242   11.01908 
 C                     9.62052   26.79367   11.0143 
 C                     9.89796   19.67539   12.22424 
 C                     9.87494   26.09468   12.22956 
 C                     8.77875   20.08195   13.14236 
 C                     8.7978    25.50649   12.91303 
 C                     7.47584   20.18969   12.39726 
 C                     7.46042   25.56773   12.37574 
 C                     7.22165   19.53588   11.27628 
 C                     7.18382   26.2576   11.26813 
 C                     6.13199   19.97348   10.33707 
 C                     6.10333   25.80666   10.33013 
 C                     6.72754   19.57928   9.02616 
 C                     6.71199   26.19197   9.02084 
 C                     6.40507   20.24393   7.86368 
 C                     6.39562   25.52314   7.8602 
 C                     7.335     20.33962   6.83107 
 C                     7.33134   25.4247   6.83248 
 C                     8.67545   19.91018   6.99276 
 C                     8.67154   25.85128   7.00097 
 C                     9.72776   20.61704   6.33277 
 C                     9.72443   25.14428   6.34299 
 C                     11.01725   20.58966   6.85168 
 C                     12.6221   22.18819   7.80004 
 C                     12.62268   23.5758   7.79996 
 C                     11.0114   25.17025   6.86706 
 C                     11.29783   19.79908   7.97168 
 C                     12.80046   21.47977   8.97477 
 C                     12.80011   24.28165   8.97566 
 C                     11.29013   25.9586   7.98979 
 C                     13.02841   22.17651   10.17213 
 C                     13.02742   23.57786   10.16768 
 C                     13.06507   21.40725   11.48641 
 C                     13.06021   24.33799   11.47895 
 C                     12.4325   22.19481   12.59533 
 C                     12.39672   23.52899   12.56134 
 C                     11.13838   20.27504   12.40211 
 C                     11.13823   25.46346   12.40449 
 C                     11.42473   21.38776   13.37117 
 C                     11.28893   24.2631   13.12428 
 C                     8.96589   21.4989   13.60935 
 C                     8.94309   24.26995   13.57596 
 C                     7.74329   22.2034   13.48715 
 C                     7.72111   23.55812   13.49581 
 C                     6.69631   21.41697   12.7699 
 C                     6.67428   24.34728   12.77115 
 C                     6.24432   22.18304   11.5323 
 C                     6.23459   23.58417   11.53135 
 C                     5.96142   21.48564   10.35515 
 C                     5.94775   24.28643   10.35584 
 C                     5.65842   22.18334   9.17443 
 C                     5.65302   23.58613   9.17426 
 C                     5.45249   21.40727   7.87416 
 C                     5.44584   24.35741   7.87087 
 C                     5.96446   22.19958   6.7055 
 C                     5.96306   23.56384   6.7052 
 C                     7.01822   21.51316   6.05976 
 C                     7.017     24.25108   6.06072 
 C                     8.0173    22.18554   5.38619 
 C                     8.01688   23.57984   5.38747 
 C                     9.39999   21.62874   5.25369 
 C                     9.39945   24.13785   5.25833 
 C                     12.04573   21.63931   6.51997 
 C                     12.04272   24.12711   6.52421 
 C                     10.22309   22.88322   5.40186 
 C                     11.42535   22.88335   5.95355 
 C                     10.17082   22.15417   13.68273 
 C                     10.17924   23.58169   13.65376 
 Cl                    4.55266   19.19212   10.69995 
 Cl                    3.72057   20.95479   7.74113 
 Cl                    3.71257   24.80151   7.73034 
 Cl                    4.50442   26.56628   10.65835 
 Cl                    5.25055   21.04708   13.77877 
 Cl                    5.22729   24.7266   13.76649 
 Cl                    14.76587   20.91697   11.82494 
 Cl                    14.76299   24.76583   11.86981 
 Cl                    13.91133   19.05571   8.45582 
 Cl                    13.32244   20.9559   5.44595 
 Cl                    13.90856   26.70391   8.44317 
 Cl                    13.31126   24.82218   5.44817 
 Cl                    9.66841   20.84957   3.63739 
 Cl                    7.9345    16.89542   10.95194 
 Cl                    8.66252   18.93321   14.53232 
 Cl                    9.66961   24.92596   3.64684 
 Cl                    12.14913   20.7438   14.90955 
 Cl                    7.90252   28.89267   10.92688 
 
 ITRead=  0  0  0  0  0  0  0  0  0  0  0  0  0  0  0  0  0  0  0  0
 ITRead=  0  0  0  0  0  0  0  0  0  0  0  0  0  0  0  0  0  0  0  0
 ITRead=  0  0  0  0  0  0  0  0  0  0  0  0  0  0  0  0  0  0  0  0
 ITRead=  0  0  0  0  0  0  0  0  0  0  0  0  0  0  0  0  0  0  0  0
 ITRead=  0  0  0  0  0  0  0  0  0  0  0  0  0  0  0  0  0  0  0  0
 ITRead=  0  0
 MicOpt= -1 -1 -1 -1 -1 -1 -1 -1 -1 -1 -1 -1 -1 -1 -1 -1 -1 -1 -1 -1
 MicOpt= -1 -1 -1 -1 -1 -1 -1 -1 -1 -1 -1 -1 -1 -1 -1 -1 -1 -1 -1 -1
 MicOpt= -1 -1 -1 -1 -1 -1 -1 -1 -1 -1 -1 -1 -1 -1 -1 -1 -1 -1 -1 -1
 MicOpt= -1 -1 -1 -1 -1 -1 -1 -1 -1 -1 -1 -1 -1 -1 -1 -1 -1 -1 -1 -1
 MicOpt= -1 -1 -1 -1 -1 -1 -1 -1 -1 -1 -1 -1 -1 -1 -1 -1 -1 -1 -1 -1
 MicOpt= -1 -1
 NAtoms=    102 NQM=      102 NQMF=       0 NMMI=      0 NMMIF=      0
                NMic=       0 NMicF=      0.
                    Isotopes and Nuclear Properties:
 (Nuclear quadrupole moments (NQMom) in fm**2, nuclear magnetic moments (NMagM)
  in nuclear magnetons)

  Atom         1           2           3           4           5           6           7           8           9          10
 IAtWgt=          12          12          12          12          12          12          12          12          12          12
 AtmWgt=  12.0000000  12.0000000  12.0000000  12.0000000  12.0000000  12.0000000  12.0000000  12.0000000  12.0000000  12.0000000
 NucSpn=           0           0           0           0           0           0           0           0           0           0
 AtZEff=  -0.0000000  -0.0000000  -0.0000000  -0.0000000  -0.0000000  -0.0000000  -0.0000000  -0.0000000  -0.0000000  -0.0000000
 NQMom=    0.0000000   0.0000000   0.0000000   0.0000000   0.0000000   0.0000000   0.0000000   0.0000000   0.0000000   0.0000000
 NMagM=    0.0000000   0.0000000   0.0000000   0.0000000   0.0000000   0.0000000   0.0000000   0.0000000   0.0000000   0.0000000
 AtZNuc=   6.0000000   6.0000000   6.0000000   6.0000000   6.0000000   6.0000000   6.0000000   6.0000000   6.0000000   6.0000000

  Atom        11          12          13          14          15          16          17          18          19          20
 IAtWgt=          12          12          12          12          12          12          12          12          12          12
 AtmWgt=  12.0000000  12.0000000  12.0000000  12.0000000  12.0000000  12.0000000  12.0000000  12.0000000  12.0000000  12.0000000
 NucSpn=           0           0           0           0           0           0           0           0           0           0
 AtZEff=  -0.0000000  -0.0000000  -0.0000000  -0.0000000  -0.0000000  -0.0000000  -0.0000000  -0.0000000  -0.0000000  -0.0000000
 NQMom=    0.0000000   0.0000000   0.0000000   0.0000000   0.0000000   0.0000000   0.0000000   0.0000000   0.0000000   0.0000000
 NMagM=    0.0000000   0.0000000   0.0000000   0.0000000   0.0000000   0.0000000   0.0000000   0.0000000   0.0000000   0.0000000
 AtZNuc=   6.0000000   6.0000000   6.0000000   6.0000000   6.0000000   6.0000000   6.0000000   6.0000000   6.0000000   6.0000000

  Atom        21          22          23          24          25          26          27          28          29          30
 IAtWgt=          12          12          12          12          12          12          12          12          12          12
 AtmWgt=  12.0000000  12.0000000  12.0000000  12.0000000  12.0000000  12.0000000  12.0000000  12.0000000  12.0000000  12.0000000
 NucSpn=           0           0           0           0           0           0           0           0           0           0
 AtZEff=  -0.0000000  -0.0000000  -0.0000000  -0.0000000  -0.0000000  -0.0000000  -0.0000000  -0.0000000  -0.0000000  -0.0000000
 NQMom=    0.0000000   0.0000000   0.0000000   0.0000000   0.0000000   0.0000000   0.0000000   0.0000000   0.0000000   0.0000000
 NMagM=    0.0000000   0.0000000   0.0000000   0.0000000   0.0000000   0.0000000   0.0000000   0.0000000   0.0000000   0.0000000
 AtZNuc=   6.0000000   6.0000000   6.0000000   6.0000000   6.0000000   6.0000000   6.0000000   6.0000000   6.0000000   6.0000000

  Atom        31          32          33          34          35          36          37          38          39          40
 IAtWgt=          12          12          12          12          12          12          12          12          12          12
 AtmWgt=  12.0000000  12.0000000  12.0000000  12.0000000  12.0000000  12.0000000  12.0000000  12.0000000  12.0000000  12.0000000
 NucSpn=           0           0           0           0           0           0           0           0           0           0
 AtZEff=  -0.0000000  -0.0000000  -0.0000000  -0.0000000  -0.0000000  -0.0000000  -0.0000000  -0.0000000  -0.0000000  -0.0000000
 NQMom=    0.0000000   0.0000000   0.0000000   0.0000000   0.0000000   0.0000000   0.0000000   0.0000000   0.0000000   0.0000000
 NMagM=    0.0000000   0.0000000   0.0000000   0.0000000   0.0000000   0.0000000   0.0000000   0.0000000   0.0000000   0.0000000
 AtZNuc=   6.0000000   6.0000000   6.0000000   6.0000000   6.0000000   6.0000000   6.0000000   6.0000000   6.0000000   6.0000000

  Atom        41          42          43          44          45          46          47          48          49          50
 IAtWgt=          12          12          12          12          12          12          12          12          12          12
 AtmWgt=  12.0000000  12.0000000  12.0000000  12.0000000  12.0000000  12.0000000  12.0000000  12.0000000  12.0000000  12.0000000
 NucSpn=           0           0           0           0           0           0           0           0           0           0
 AtZEff=  -0.0000000  -0.0000000  -0.0000000  -0.0000000  -0.0000000  -0.0000000  -0.0000000  -0.0000000  -0.0000000  -0.0000000
 NQMom=    0.0000000   0.0000000   0.0000000   0.0000000   0.0000000   0.0000000   0.0000000   0.0000000   0.0000000   0.0000000
 NMagM=    0.0000000   0.0000000   0.0000000   0.0000000   0.0000000   0.0000000   0.0000000   0.0000000   0.0000000   0.0000000
 AtZNuc=   6.0000000   6.0000000   6.0000000   6.0000000   6.0000000   6.0000000   6.0000000   6.0000000   6.0000000   6.0000000

  Atom        51          52          53          54          55          56          57          58          59          60
 IAtWgt=          12          12          12          12          12          12          12          12          12          12
 AtmWgt=  12.0000000  12.0000000  12.0000000  12.0000000  12.0000000  12.0000000  12.0000000  12.0000000  12.0000000  12.0000000
 NucSpn=           0           0           0           0           0           0           0           0           0           0
 AtZEff=  -0.0000000  -0.0000000  -0.0000000  -0.0000000  -0.0000000  -0.0000000  -0.0000000  -0.0000000  -0.0000000  -0.0000000
 NQMom=    0.0000000   0.0000000   0.0000000   0.0000000   0.0000000   0.0000000   0.0000000   0.0000000   0.0000000   0.0000000
 NMagM=    0.0000000   0.0000000   0.0000000   0.0000000   0.0000000   0.0000000   0.0000000   0.0000000   0.0000000   0.0000000
 AtZNuc=   6.0000000   6.0000000   6.0000000   6.0000000   6.0000000   6.0000000   6.0000000   6.0000000   6.0000000   6.0000000

  Atom        61          62          63          64          65          66          67          68          69          70
 IAtWgt=          12          12          12          12          12          12          12          12          12          12
 AtmWgt=  12.0000000  12.0000000  12.0000000  12.0000000  12.0000000  12.0000000  12.0000000  12.0000000  12.0000000  12.0000000
 NucSpn=           0           0           0           0           0           0           0           0           0           0
 AtZEff=  -0.0000000  -0.0000000  -0.0000000  -0.0000000  -0.0000000  -0.0000000  -0.0000000  -0.0000000  -0.0000000  -0.0000000
 NQMom=    0.0000000   0.0000000   0.0000000   0.0000000   0.0000000   0.0000000   0.0000000   0.0000000   0.0000000   0.0000000
 NMagM=    0.0000000   0.0000000   0.0000000   0.0000000   0.0000000   0.0000000   0.0000000   0.0000000   0.0000000   0.0000000
 AtZNuc=   6.0000000   6.0000000   6.0000000   6.0000000   6.0000000   6.0000000   6.0000000   6.0000000   6.0000000   6.0000000

  Atom        71          72          73          74          75          76          77          78          79          80
 IAtWgt=          12          12          12          12          12          12          12          12          12          12
 AtmWgt=  12.0000000  12.0000000  12.0000000  12.0000000  12.0000000  12.0000000  12.0000000  12.0000000  12.0000000  12.0000000
 NucSpn=           0           0           0           0           0           0           0           0           0           0
 AtZEff=  -0.0000000  -0.0000000  -0.0000000  -0.0000000  -0.0000000  -0.0000000  -0.0000000  -0.0000000  -0.0000000  -0.0000000
 NQMom=    0.0000000   0.0000000   0.0000000   0.0000000   0.0000000   0.0000000   0.0000000   0.0000000   0.0000000   0.0000000
 NMagM=    0.0000000   0.0000000   0.0000000   0.0000000   0.0000000   0.0000000   0.0000000   0.0000000   0.0000000   0.0000000
 AtZNuc=   6.0000000   6.0000000   6.0000000   6.0000000   6.0000000   6.0000000   6.0000000   6.0000000   6.0000000   6.0000000

  Atom        81          82          83          84          85          86          87          88          89          90
 IAtWgt=          12          12          12          12          35          35          35          35          35          35
 AtmWgt=  12.0000000  12.0000000  12.0000000  12.0000000  34.9688527  34.9688527  34.9688527  34.9688527  34.9688527  34.9688527
 NucSpn=           0           0           0           0           3           3           3           3           3           3
 AtZEff=  -0.0000000  -0.0000000  -0.0000000  -0.0000000  -0.0000000  -0.0000000  -0.0000000  -0.0000000  -0.0000000  -0.0000000
 NQMom=    0.0000000   0.0000000   0.0000000   0.0000000  -8.1650000  -8.1650000  -8.1650000  -8.1650000  -8.1650000  -8.1650000
 NMagM=    0.0000000   0.0000000   0.0000000   0.0000000   0.8218740   0.8218740   0.8218740   0.8218740   0.8218740   0.8218740
 AtZNuc=   6.0000000   6.0000000   6.0000000   6.0000000  17.0000000  17.0000000  17.0000000  17.0000000  17.0000000  17.0000000

  Atom        91          92          93          94          95          96          97          98          99         100
 IAtWgt=          35          35          35          35          35          35          35          35          35          35
 AtmWgt=  34.9688527  34.9688527  34.9688527  34.9688527  34.9688527  34.9688527  34.9688527  34.9688527  34.9688527  34.9688527
 NucSpn=           3           3           3           3           3           3           3           3           3           3
 AtZEff=  -0.0000000  -0.0000000  -0.0000000  -0.0000000  -0.0000000  -0.0000000  -0.0000000  -0.0000000  -0.0000000  -0.0000000
 NQMom=   -8.1650000  -8.1650000  -8.1650000  -8.1650000  -8.1650000  -8.1650000  -8.1650000  -8.1650000  -8.1650000  -8.1650000
 NMagM=    0.8218740   0.8218740   0.8218740   0.8218740   0.8218740   0.8218740   0.8218740   0.8218740   0.8218740   0.8218740
 AtZNuc=  17.0000000  17.0000000  17.0000000  17.0000000  17.0000000  17.0000000  17.0000000  17.0000000  17.0000000  17.0000000

  Atom       101         102
 IAtWgt=          35          35
 AtmWgt=  34.9688527  34.9688527
 NucSpn=           3           3
 AtZEff=  -0.0000000  -0.0000000
 NQMom=   -8.1650000  -8.1650000
 NMagM=    0.8218740   0.8218740
 AtZNuc=  17.0000000  17.0000000
 Leave Link  101 at Thu Jun 30 09:01:06 2022, MaxMem=  1342177280 cpu:               6.7 elap:               0.3
 (Enter /home/mkliu/g16/l103.exe)

 GradGradGradGradGradGradGradGradGradGradGradGradGradGradGradGradGradGrad
 Berny optimization.
 Initialization pass.
                           ----------------------------
                           !    Initial Parameters    !
                           ! (Angstroms and Degrees)  !
 --------------------------                            --------------------------
 ! Name  Definition              Value          Derivative Info.                !
 --------------------------------------------------------------------------------
 ! R1    R(1,5)                  1.5056         estimate D2E/DX2                !
 ! R2    R(1,17)                 1.5002         estimate D2E/DX2                !
 ! R3    R(1,25)                 1.5011         estimate D2E/DX2                !
 ! R4    R(1,98)                 1.8151         estimate D2E/DX2                !
 ! R5    R(2,6)                  1.498          estimate D2E/DX2                !
 ! R6    R(2,43)                 1.5165         estimate D2E/DX2                !
 ! R7    R(2,44)                 1.5031         estimate D2E/DX2                !
 ! R8    R(2,93)                 1.7978         estimate D2E/DX2                !
 ! R9    R(3,7)                  1.5023         estimate D2E/DX2                !
 ! R10   R(3,18)                 1.5015         estimate D2E/DX2                !
 ! R11   R(3,26)                 1.5023         estimate D2E/DX2                !
 ! R12   R(3,102)                1.8302         estimate D2E/DX2                !
 ! R13   R(4,8)                  1.4995         estimate D2E/DX2                !
 ! R14   R(4,45)                 1.505          estimate D2E/DX2                !
 ! R15   R(4,46)                 1.515          estimate D2E/DX2                !
 ! R16   R(4,95)                 1.8003         estimate D2E/DX2                !
 ! R17   R(5,9)                  1.4104         estimate D2E/DX2                !
 ! R18   R(5,29)                 1.3824         estimate D2E/DX2                !
 ! R19   R(6,10)                 1.3675         estimate D2E/DX2                !
 ! R20   R(6,15)                 1.4012         estimate D2E/DX2                !
 ! R21   R(7,12)                 1.4088         estimate D2E/DX2                !
 ! R22   R(7,30)                 1.3842         estimate D2E/DX2                !
 ! R23   R(8,11)                 1.3549         estimate D2E/DX2                !
 ! R24   R(8,16)                 1.4261         estimate D2E/DX2                !
 ! R25   R(9,13)                 1.4057         estimate D2E/DX2                !
 ! R26   R(9,35)                 1.43           estimate D2E/DX2                !
 ! R27   R(10,49)                1.4991         estimate D2E/DX2                !
 ! R28   R(10,53)                1.4            estimate D2E/DX2                !
 ! R29   R(11,50)                1.5039         estimate D2E/DX2                !
 ! R30   R(11,54)                1.4246         estimate D2E/DX2                !
 ! R31   R(12,14)                1.4085         estimate D2E/DX2                !
 ! R32   R(12,36)                1.4298         estimate D2E/DX2                !
 ! R33   R(13,15)                1.4506         estimate D2E/DX2                !
 ! R34   R(13,43)                1.386          estimate D2E/DX2                !
 ! R35   R(14,16)                1.4479         estimate D2E/DX2                !
 ! R36   R(14,46)                1.3868         estimate D2E/DX2                !
 ! R37   R(15,17)                1.3906         estimate D2E/DX2                !
 ! R38   R(16,18)                1.3786         estimate D2E/DX2                !
 ! R39   R(17,19)                1.4019         estimate D2E/DX2                !
 ! R40   R(18,20)                1.4248         estimate D2E/DX2                !
 ! R41   R(19,21)                1.5036         estimate D2E/DX2                !
 ! R42   R(19,53)                1.3892         estimate D2E/DX2                !
 ! R43   R(20,22)                1.4048         estimate D2E/DX2                !
 ! R44   R(20,54)                1.423          estimate D2E/DX2                !
 ! R45   R(21,23)                1.5048         estimate D2E/DX2                !
 ! R46   R(21,57)                1.5036         estimate D2E/DX2                !
 ! R47   R(21,99)                1.807          estimate D2E/DX2                !
 ! R48   R(22,24)                1.4426         estimate D2E/DX2                !
 ! R49   R(22,58)                1.4105         estimate D2E/DX2                !
 ! R50   R(23,25)                1.3224         estimate D2E/DX2                !
 ! R51   R(23,61)                1.5009         estimate D2E/DX2                !
 ! R52   R(24,26)                1.3339         estimate D2E/DX2                !
 ! R53   R(24,62)                1.5046         estimate D2E/DX2                !
 ! R54   R(25,27)                1.5036         estimate D2E/DX2                !
 ! R55   R(26,28)                1.5002         estimate D2E/DX2                !
 ! R56   R(27,29)                1.4928         estimate D2E/DX2                !
 ! R57   R(27,65)                1.5219         estimate D2E/DX2                !
 ! R58   R(27,85)                1.799          estimate D2E/DX2                !
 ! R59   R(28,30)                1.4944         estimate D2E/DX2                !
 ! R60   R(28,66)                1.5284         estimate D2E/DX2                !
 ! R61   R(28,88)                1.8004         estimate D2E/DX2                !
 ! R62   R(29,31)                1.3774         estimate D2E/DX2                !
 ! R63   R(30,32)                1.3764         estimate D2E/DX2                !
 ! R64   R(31,33)                1.3929         estimate D2E/DX2                !
 ! R65   R(31,69)                1.5036         estimate D2E/DX2                !
 ! R66   R(32,34)                1.3934         estimate D2E/DX2                !
 ! R67   R(32,70)                1.5037         estimate D2E/DX2                !
 ! R68   R(33,35)                1.4168         estimate D2E/DX2                !
 ! R69   R(33,73)                1.4396         estimate D2E/DX2                !
 ! R70   R(34,36)                1.4165         estimate D2E/DX2                !
 ! R71   R(34,74)                1.4394         estimate D2E/DX2                !
 ! R72   R(35,37)                1.4292         estimate D2E/DX2                !
 ! R73   R(36,38)                1.4288         estimate D2E/DX2                !
 ! R74   R(37,39)                1.3903         estimate D2E/DX2                !
 ! R75   R(37,77)                1.5151         estimate D2E/DX2                !
 ! R76   R(38,42)                1.3898         estimate D2E/DX2                !
 ! R77   R(38,78)                1.5149         estimate D2E/DX2                !
 ! R78   R(39,43)                1.3993         estimate D2E/DX2                !
 ! R79   R(39,79)                1.5065         estimate D2E/DX2                !
 ! R80   R(40,41)                1.3876         estimate D2E/DX2                !
 ! R81   R(40,44)                1.3834         estimate D2E/DX2                !
 ! R82   R(40,79)                1.5073         estimate D2E/DX2                !
 ! R83   R(41,45)                1.3827         estimate D2E/DX2                !
 ! R84   R(41,80)                1.5059         estimate D2E/DX2                !
 ! R85   R(42,46)                1.3999         estimate D2E/DX2                !
 ! R86   R(42,80)                1.5064         estimate D2E/DX2                !
 ! R87   R(44,47)                1.404          estimate D2E/DX2                !
 ! R88   R(45,48)                1.4028         estimate D2E/DX2                !
 ! R89   R(47,48)                1.4014         estimate D2E/DX2                !
 ! R90   R(47,49)                1.5233         estimate D2E/DX2                !
 ! R91   R(48,50)                1.516          estimate D2E/DX2                !
 ! R92   R(49,51)                1.5            estimate D2E/DX2                !
 ! R93   R(49,91)                1.8021         estimate D2E/DX2                !
 ! R94   R(50,52)                1.5054         estimate D2E/DX2                !
 ! R95   R(50,92)                1.7987         estimate D2E/DX2                !
 ! R96   R(51,52)                1.3351         estimate D2E/DX2                !
 ! R97   R(51,55)                1.5063         estimate D2E/DX2                !
 ! R98   R(52,56)                1.4433         estimate D2E/DX2                !
 ! R99   R(53,55)                1.5031         estimate D2E/DX2                !
 ! R100  R(54,56)                1.4077         estimate D2E/DX2                !
 ! R101  R(55,83)                1.5023         estimate D2E/DX2                !
 ! R102  R(55,101)               1.8183         estimate D2E/DX2                !
 ! R103  R(56,84)                1.4057         estimate D2E/DX2                !
 ! R104  R(57,59)                1.4163         estimate D2E/DX2                !
 ! R105  R(57,83)                1.3735         estimate D2E/DX2                !
 ! R106  R(58,60)                1.4165         estimate D2E/DX2                !
 ! R107  R(58,84)                1.417          estimate D2E/DX2                !
 ! R108  R(59,60)                1.3549         estimate D2E/DX2                !
 ! R109  R(59,61)                1.493          estimate D2E/DX2                !
 ! R110  R(60,62)                1.4979         estimate D2E/DX2                !
 ! R111  R(61,63)                1.5241         estimate D2E/DX2                !
 ! R112  R(61,89)                1.8013         estimate D2E/DX2                !
 ! R113  R(62,64)                1.5208         estimate D2E/DX2                !
 ! R114  R(62,90)                1.7968         estimate D2E/DX2                !
 ! R115  R(63,64)                1.4012         estimate D2E/DX2                !
 ! R116  R(63,65)                1.3972         estimate D2E/DX2                !
 ! R117  R(64,66)                1.399          estimate D2E/DX2                !
 ! R118  R(65,67)                1.4045         estimate D2E/DX2                !
 ! R119  R(66,68)                1.4048         estimate D2E/DX2                !
 ! R120  R(67,68)                1.4028         estimate D2E/DX2                !
 ! R121  R(67,69)                1.5282         estimate D2E/DX2                !
 ! R122  R(68,70)                1.5286         estimate D2E/DX2                !
 ! R123  R(69,71)                1.5019         estimate D2E/DX2                !
 ! R124  R(69,86)                1.795          estimate D2E/DX2                !
 ! R125  R(70,72)                1.502          estimate D2E/DX2                !
 ! R126  R(70,87)                1.7948         estimate D2E/DX2                !
 ! R127  R(71,72)                1.3643         estimate D2E/DX2                !
 ! R128  R(71,73)                1.4137         estimate D2E/DX2                !
 ! R129  R(72,74)                1.4137         estimate D2E/DX2                !
 ! R130  R(73,75)                1.3798         estimate D2E/DX2                !
 ! R131  R(74,76)                1.3797         estimate D2E/DX2                !
 ! R132  R(75,76)                1.3943         estimate D2E/DX2                !
 ! R133  R(75,77)                1.4965         estimate D2E/DX2                !
 ! R134  R(76,78)                1.4965         estimate D2E/DX2                !
 ! R135  R(77,81)                1.5077         estimate D2E/DX2                !
 ! R136  R(77,97)                1.8143         estimate D2E/DX2                !
 ! R137  R(78,81)                1.5077         estimate D2E/DX2                !
 ! R138  R(78,100)               1.8141         estimate D2E/DX2                !
 ! R139  R(79,82)                1.5011         estimate D2E/DX2                !
 ! R140  R(79,94)                1.8029         estimate D2E/DX2                !
 ! R141  R(80,82)                1.5013         estimate D2E/DX2                !
 ! R142  R(80,96)                1.8028         estimate D2E/DX2                !
 ! R143  R(81,82)                1.3228         estimate D2E/DX2                !
 ! R144  R(83,84)                1.4278         estimate D2E/DX2                !
 ! A1    A(5,1,17)             112.5092         estimate D2E/DX2                !
 ! A2    A(5,1,25)             100.7125         estimate D2E/DX2                !
 ! A3    A(5,1,98)             110.9987         estimate D2E/DX2                !
 ! A4    A(17,1,25)            111.1121         estimate D2E/DX2                !
 ! A5    A(17,1,98)            109.3682         estimate D2E/DX2                !
 ! A6    A(25,1,98)            111.9559         estimate D2E/DX2                !
 ! A7    A(6,2,43)             101.1319         estimate D2E/DX2                !
 ! A8    A(6,2,44)             109.067          estimate D2E/DX2                !
 ! A9    A(6,2,93)             113.705          estimate D2E/DX2                !
 ! A10   A(43,2,44)            109.606          estimate D2E/DX2                !
 ! A11   A(43,2,93)            112.4866         estimate D2E/DX2                !
 ! A12   A(44,2,93)            110.4442         estimate D2E/DX2                !
 ! A13   A(7,3,18)             112.8046         estimate D2E/DX2                !
 ! A14   A(7,3,26)             100.6614         estimate D2E/DX2                !
 ! A15   A(7,3,102)            110.3364         estimate D2E/DX2                !
 ! A16   A(18,3,26)            113.2058         estimate D2E/DX2                !
 ! A17   A(18,3,102)           108.6861         estimate D2E/DX2                !
 ! A18   A(26,3,102)           110.9929         estimate D2E/DX2                !
 ! A19   A(8,4,45)             109.668          estimate D2E/DX2                !
 ! A20   A(8,4,46)             101.3446         estimate D2E/DX2                !
 ! A21   A(8,4,95)             113.5588         estimate D2E/DX2                !
 ! A22   A(45,4,46)            109.2593         estimate D2E/DX2                !
 ! A23   A(45,4,95)            110.2253         estimate D2E/DX2                !
 ! A24   A(46,4,95)            112.4255         estimate D2E/DX2                !
 ! A25   A(1,5,9)              124.7063         estimate D2E/DX2                !
 ! A26   A(1,5,29)             110.1253         estimate D2E/DX2                !
 ! A27   A(9,5,29)             120.3014         estimate D2E/DX2                !
 ! A28   A(2,6,10)             122.8182         estimate D2E/DX2                !
 ! A29   A(2,6,15)             111.0563         estimate D2E/DX2                !
 ! A30   A(10,6,15)            119.2913         estimate D2E/DX2                !
 ! A31   A(3,7,12)             124.3555         estimate D2E/DX2                !
 ! A32   A(3,7,30)             110.1707         estimate D2E/DX2                !
 ! A33   A(12,7,30)            120.4803         estimate D2E/DX2                !
 ! A34   A(4,8,11)             122.2781         estimate D2E/DX2                !
 ! A35   A(4,8,16)             110.6457         estimate D2E/DX2                !
 ! A36   A(11,8,16)            120.0001         estimate D2E/DX2                !
 ! A37   A(5,9,13)             116.5243         estimate D2E/DX2                !
 ! A38   A(5,9,35)             120.4915         estimate D2E/DX2                !
 ! A39   A(13,9,35)            117.9128         estimate D2E/DX2                !
 ! A40   A(6,10,49)            122.3923         estimate D2E/DX2                !
 ! A41   A(6,10,53)            119.531          estimate D2E/DX2                !
 ! A42   A(49,10,53)           112.7776         estimate D2E/DX2                !
 ! A43   A(8,11,50)            123.0777         estimate D2E/DX2                !
 ! A44   A(8,11,54)            119.0283         estimate D2E/DX2                !
 ! A45   A(50,11,54)           110.864          estimate D2E/DX2                !
 ! A46   A(7,12,14)            116.6595         estimate D2E/DX2                !
 ! A47   A(7,12,36)            120.3224         estimate D2E/DX2                !
 ! A48   A(14,12,36)           118.0535         estimate D2E/DX2                !
 ! A49   A(9,13,15)            120.8763         estimate D2E/DX2                !
 ! A50   A(9,13,43)            121.4959         estimate D2E/DX2                !
 ! A51   A(15,13,43)           109.1978         estimate D2E/DX2                !
 ! A52   A(12,14,16)           121.2144         estimate D2E/DX2                !
 ! A53   A(12,14,46)           121.1957         estimate D2E/DX2                !
 ! A54   A(16,14,46)           109.5943         estimate D2E/DX2                !
 ! A55   A(6,15,13)            107.4752         estimate D2E/DX2                !
 ! A56   A(6,15,17)            121.8631         estimate D2E/DX2                !
 ! A57   A(13,15,17)           122.7194         estimate D2E/DX2                !
 ! A58   A(8,16,14)            107.0143         estimate D2E/DX2                !
 ! A59   A(8,16,18)            122.6956         estimate D2E/DX2                !
 ! A60   A(14,16,18)           122.2789         estimate D2E/DX2                !
 ! A61   A(1,17,15)            117.1008         estimate D2E/DX2                !
 ! A62   A(1,17,19)            122.1049         estimate D2E/DX2                !
 ! A63   A(15,17,19)           118.5745         estimate D2E/DX2                !
 ! A64   A(3,18,16)            117.9721         estimate D2E/DX2                !
 ! A65   A(3,18,20)            120.6885         estimate D2E/DX2                !
 ! A66   A(16,18,20)           118.1024         estimate D2E/DX2                !
 ! A67   A(17,19,21)           120.5944         estimate D2E/DX2                !
 ! A68   A(17,19,53)           119.1265         estimate D2E/DX2                !
 ! A69   A(21,19,53)           118.017          estimate D2E/DX2                !
 ! A70   A(18,20,22)           118.9123         estimate D2E/DX2                !
 ! A71   A(18,20,54)           118.7496         estimate D2E/DX2                !
 ! A72   A(22,20,54)           115.7961         estimate D2E/DX2                !
 ! A73   A(19,21,23)           111.1924         estimate D2E/DX2                !
 ! A74   A(19,21,57)           110.5975         estimate D2E/DX2                !
 ! A75   A(19,21,99)           110.2233         estimate D2E/DX2                !
 ! A76   A(23,21,57)           101.1908         estimate D2E/DX2                !
 ! A77   A(23,21,99)           111.7598         estimate D2E/DX2                !
 ! A78   A(57,21,99)           111.6041         estimate D2E/DX2                !
 ! A79   A(20,22,24)           120.789          estimate D2E/DX2                !
 ! A80   A(20,22,58)           121.1148         estimate D2E/DX2                !
 ! A81   A(24,22,58)           107.9237         estimate D2E/DX2                !
 ! A82   A(21,23,25)           123.4206         estimate D2E/DX2                !
 ! A83   A(21,23,61)           112.6627         estimate D2E/DX2                !
 ! A84   A(25,23,61)           120.9917         estimate D2E/DX2                !
 ! A85   A(22,24,26)           121.5655         estimate D2E/DX2                !
 ! A86   A(22,24,62)           110.6139         estimate D2E/DX2                !
 ! A87   A(26,24,62)           121.9642         estimate D2E/DX2                !
 ! A88   A(1,25,23)            122.7979         estimate D2E/DX2                !
 ! A89   A(1,25,27)            112.2706         estimate D2E/DX2                !
 ! A90   A(23,25,27)           121.6614         estimate D2E/DX2                !
 ! A91   A(3,26,24)            121.6731         estimate D2E/DX2                !
 ! A92   A(3,26,28)            112.825          estimate D2E/DX2                !
 ! A93   A(24,26,28)           120.8688         estimate D2E/DX2                !
 ! A94   A(25,27,29)           100.5181         estimate D2E/DX2                !
 ! A95   A(25,27,65)           111.2827         estimate D2E/DX2                !
 ! A96   A(25,27,85)           112.5688         estimate D2E/DX2                !
 ! A97   A(29,27,65)           108.5133         estimate D2E/DX2                !
 ! A98   A(29,27,85)           114.372          estimate D2E/DX2                !
 ! A99   A(65,27,85)           109.3155         estimate D2E/DX2                !
 ! A100  A(26,28,30)           100.1927         estimate D2E/DX2                !
 ! A101  A(26,28,66)           111.2096         estimate D2E/DX2                !
 ! A102  A(26,28,88)           113.5046         estimate D2E/DX2                !
 ! A103  A(30,28,66)           108.2199         estimate D2E/DX2                !
 ! A104  A(30,28,88)           114.372          estimate D2E/DX2                !
 ! A105  A(66,28,88)           109.0384         estimate D2E/DX2                !
 ! A106  A(5,29,27)            112.9285         estimate D2E/DX2                !
 ! A107  A(5,29,31)            120.1253         estimate D2E/DX2                !
 ! A108  A(27,29,31)           121.3532         estimate D2E/DX2                !
 ! A109  A(7,30,28)            113.1331         estimate D2E/DX2                !
 ! A110  A(7,30,32)            120.0201         estimate D2E/DX2                !
 ! A111  A(28,30,32)           121.3245         estimate D2E/DX2                !
 ! A112  A(29,31,33)           120.167          estimate D2E/DX2                !
 ! A113  A(29,31,69)           121.0503         estimate D2E/DX2                !
 ! A114  A(33,31,69)           112.0225         estimate D2E/DX2                !
 ! A115  A(30,32,34)           120.1276         estimate D2E/DX2                !
 ! A116  A(30,32,70)           121.0581         estimate D2E/DX2                !
 ! A117  A(34,32,70)           112.0017         estimate D2E/DX2                !
 ! A118  A(31,33,35)           121.7497         estimate D2E/DX2                !
 ! A119  A(31,33,73)           107.8353         estimate D2E/DX2                !
 ! A120  A(35,33,73)           121.0919         estimate D2E/DX2                !
 ! A121  A(32,34,36)           121.7603         estimate D2E/DX2                !
 ! A122  A(32,34,74)           107.8437         estimate D2E/DX2                !
 ! A123  A(36,34,74)           121.0605         estimate D2E/DX2                !
 ! A124  A(9,35,33)            116.0922         estimate D2E/DX2                !
 ! A125  A(9,35,37)            119.8236         estimate D2E/DX2                !
 ! A126  A(33,35,37)           119.6034         estimate D2E/DX2                !
 ! A127  A(12,36,34)           116.1876         estimate D2E/DX2                !
 ! A128  A(12,36,38)           119.8752         estimate D2E/DX2                !
 ! A129  A(34,36,38)           119.5668         estimate D2E/DX2                !
 ! A130  A(35,37,39)           120.0545         estimate D2E/DX2                !
 ! A131  A(35,37,77)           119.9925         estimate D2E/DX2                !
 ! A132  A(39,37,77)           118.663          estimate D2E/DX2                !
 ! A133  A(36,38,42)           119.9668         estimate D2E/DX2                !
 ! A134  A(36,38,78)           120.0247         estimate D2E/DX2                !
 ! A135  A(42,38,78)           118.753          estimate D2E/DX2                !
 ! A136  A(37,39,43)           119.7254         estimate D2E/DX2                !
 ! A137  A(37,39,79)           122.5007         estimate D2E/DX2                !
 ! A138  A(43,39,79)           115.6568         estimate D2E/DX2                !
 ! A139  A(41,40,44)           120.8037         estimate D2E/DX2                !
 ! A140  A(41,40,79)           111.3615         estimate D2E/DX2                !
 ! A141  A(44,40,79)           125.7311         estimate D2E/DX2                !
 ! A142  A(40,41,45)           120.6956         estimate D2E/DX2                !
 ! A143  A(40,41,80)           111.468          estimate D2E/DX2                !
 ! A144  A(45,41,80)           125.6506         estimate D2E/DX2                !
 ! A145  A(38,42,46)           119.8224         estimate D2E/DX2                !
 ! A146  A(38,42,80)           122.3574         estimate D2E/DX2                !
 ! A147  A(46,42,80)           115.86           estimate D2E/DX2                !
 ! A148  A(2,43,13)            109.916          estimate D2E/DX2                !
 ! A149  A(2,43,39)            124.9163         estimate D2E/DX2                !
 ! A150  A(13,43,39)           120.8031         estimate D2E/DX2                !
 ! A151  A(2,44,40)            115.933          estimate D2E/DX2                !
 ! A152  A(2,44,47)            123.521          estimate D2E/DX2                !
 ! A153  A(40,44,47)           119.4078         estimate D2E/DX2                !
 ! A154  A(4,45,41)            116.1346         estimate D2E/DX2                !
 ! A155  A(4,45,48)            123.5599         estimate D2E/DX2                !
 ! A156  A(41,45,48)           119.1561         estimate D2E/DX2                !
 ! A157  A(4,46,14)            110.2157         estimate D2E/DX2                !
 ! A158  A(4,46,42)            124.8421         estimate D2E/DX2                !
 ! A159  A(14,46,42)           120.9105         estimate D2E/DX2                !
 ! A160  A(44,47,48)           119.5676         estimate D2E/DX2                !
 ! A161  A(44,47,49)           119.2824         estimate D2E/DX2                !
 ! A162  A(48,47,49)           120.514          estimate D2E/DX2                !
 ! A163  A(45,48,47)           120.2984         estimate D2E/DX2                !
 ! A164  A(45,48,50)           119.1386         estimate D2E/DX2                !
 ! A165  A(47,48,50)           119.9101         estimate D2E/DX2                !
 ! A166  A(10,49,47)           108.8884         estimate D2E/DX2                !
 ! A167  A(10,49,51)           100.4077         estimate D2E/DX2                !
 ! A168  A(10,49,91)           113.5532         estimate D2E/DX2                !
 ! A169  A(47,49,51)           111.2565         estimate D2E/DX2                !
 ! A170  A(47,49,91)           108.794          estimate D2E/DX2                !
 ! A171  A(51,49,91)           113.7004         estimate D2E/DX2                !
 ! A172  A(11,50,48)           109.6537         estimate D2E/DX2                !
 ! A173  A(11,50,52)           101.2748         estimate D2E/DX2                !
 ! A174  A(11,50,92)           113.6218         estimate D2E/DX2                !
 ! A175  A(48,50,52)           110.0543         estimate D2E/DX2                !
 ! A176  A(48,50,92)           109.1289         estimate D2E/DX2                !
 ! A177  A(52,50,92)           112.8809         estimate D2E/DX2                !
 ! A178  A(49,51,52)           121.1411         estimate D2E/DX2                !
 ! A179  A(49,51,55)           112.4331         estimate D2E/DX2                !
 ! A180  A(52,51,55)           122.047          estimate D2E/DX2                !
 ! A181  A(50,52,51)           122.9237         estimate D2E/DX2                !
 ! A182  A(50,52,56)           110.2055         estimate D2E/DX2                !
 ! A183  A(51,52,56)           121.2609         estimate D2E/DX2                !
 ! A184  A(10,53,19)           121.5679         estimate D2E/DX2                !
 ! A185  A(10,53,55)           109.9825         estimate D2E/DX2                !
 ! A186  A(19,53,55)           124.9048         estimate D2E/DX2                !
 ! A187  A(11,54,20)           121.3086         estimate D2E/DX2                !
 ! A188  A(11,54,56)           108.922          estimate D2E/DX2                !
 ! A189  A(20,54,56)           122.4214         estimate D2E/DX2                !
 ! A190  A(51,55,53)           101.0716         estimate D2E/DX2                !
 ! A191  A(51,55,83)           113.074          estimate D2E/DX2                !
 ! A192  A(51,55,101)          111.0385         estimate D2E/DX2                !
 ! A193  A(53,55,83)           110.6328         estimate D2E/DX2                !
 ! A194  A(53,55,101)          111.0511         estimate D2E/DX2                !
 ! A195  A(83,55,101)          109.7401         estimate D2E/DX2                !
 ! A196  A(52,56,54)           108.4488         estimate D2E/DX2                !
 ! A197  A(52,56,84)           120.4157         estimate D2E/DX2                !
 ! A198  A(54,56,84)           121.4269         estimate D2E/DX2                !
 ! A199  A(21,57,59)           109.5427         estimate D2E/DX2                !
 ! A200  A(21,57,83)           125.124          estimate D2E/DX2                !
 ! A201  A(59,57,83)           121.6385         estimate D2E/DX2                !
 ! A202  A(22,58,60)           108.9716         estimate D2E/DX2                !
 ! A203  A(22,58,84)           122.7834         estimate D2E/DX2                !
 ! A204  A(60,58,84)           120.7718         estimate D2E/DX2                !
 ! A205  A(57,59,60)           120.7246         estimate D2E/DX2                !
 ! A206  A(57,59,61)           112.6298         estimate D2E/DX2                !
 ! A207  A(60,59,61)           121.215          estimate D2E/DX2                !
 ! A208  A(58,60,59)           119.2554         estimate D2E/DX2                !
 ! A209  A(58,60,62)           111.4399         estimate D2E/DX2                !
 ! A210  A(59,60,62)           122.3507         estimate D2E/DX2                !
 ! A211  A(23,61,59)           100.7061         estimate D2E/DX2                !
 ! A212  A(23,61,63)           111.3105         estimate D2E/DX2                !
 ! A213  A(23,61,89)           112.8299         estimate D2E/DX2                !
 ! A214  A(59,61,63)           109.4694         estimate D2E/DX2                !
 ! A215  A(59,61,89)           113.6989         estimate D2E/DX2                !
 ! A216  A(63,61,89)           108.6619         estimate D2E/DX2                !
 ! A217  A(24,62,60)           100.9137         estimate D2E/DX2                !
 ! A218  A(24,62,64)           110.1109         estimate D2E/DX2                !
 ! A219  A(24,62,90)           113.2728         estimate D2E/DX2                !
 ! A220  A(60,62,64)           109.3961         estimate D2E/DX2                !
 ! A221  A(60,62,90)           113.9563         estimate D2E/DX2                !
 ! A222  A(64,62,90)           108.9475         estimate D2E/DX2                !
 ! A223  A(61,63,64)           120.3475         estimate D2E/DX2                !
 ! A224  A(61,63,65)           119.5584         estimate D2E/DX2                !
 ! A225  A(64,63,65)           119.8124         estimate D2E/DX2                !
 ! A226  A(62,64,63)           119.948          estimate D2E/DX2                !
 ! A227  A(62,64,66)           119.4983         estimate D2E/DX2                !
 ! A228  A(63,64,66)           120.261          estimate D2E/DX2                !
 ! A229  A(27,65,63)           118.9003         estimate D2E/DX2                !
 ! A230  A(27,65,67)           120.5157         estimate D2E/DX2                !
 ! A231  A(63,65,67)           120.2652         estimate D2E/DX2                !
 ! A232  A(28,66,64)           119.5077         estimate D2E/DX2                !
 ! A233  A(28,66,68)           120.2027         estimate D2E/DX2                !
 ! A234  A(64,66,68)           119.9681         estimate D2E/DX2                !
 ! A235  A(65,67,68)           119.8464         estimate D2E/DX2                !
 ! A236  A(65,67,69)           119.4771         estimate D2E/DX2                !
 ! A237  A(68,67,69)           120.4781         estimate D2E/DX2                !
 ! A238  A(66,68,67)           119.8411         estimate D2E/DX2                !
 ! A239  A(66,68,70)           119.6104         estimate D2E/DX2                !
 ! A240  A(67,68,70)           120.3435         estimate D2E/DX2                !
 ! A241  A(31,69,67)           108.2686         estimate D2E/DX2                !
 ! A242  A(31,69,71)           100.7648         estimate D2E/DX2                !
 ! A243  A(31,69,86)           114.5645         estimate D2E/DX2                !
 ! A244  A(67,69,71)           110.3796         estimate D2E/DX2                !
 ! A245  A(67,69,86)           108.7288         estimate D2E/DX2                !
 ! A246  A(71,69,86)           113.8419         estimate D2E/DX2                !
 ! A247  A(32,70,68)           108.1556         estimate D2E/DX2                !
 ! A248  A(32,70,72)           100.7534         estimate D2E/DX2                !
 ! A249  A(32,70,87)           114.6832         estimate D2E/DX2                !
 ! A250  A(68,70,72)           110.3942         estimate D2E/DX2                !
 ! A251  A(68,70,87)           108.8143         estimate D2E/DX2                !
 ! A252  A(72,70,87)           113.736          estimate D2E/DX2                !
 ! A253  A(69,71,72)           121.8276         estimate D2E/DX2                !
 ! A254  A(69,71,73)           110.6934         estimate D2E/DX2                !
 ! A255  A(72,71,73)           119.0918         estimate D2E/DX2                !
 ! A256  A(70,72,71)           121.9057         estimate D2E/DX2                !
 ! A257  A(70,72,74)           110.7128         estimate D2E/DX2                !
 ! A258  A(71,72,74)           119.0439         estimate D2E/DX2                !
 ! A259  A(33,73,71)           108.367          estimate D2E/DX2                !
 ! A260  A(33,73,75)           119.9635         estimate D2E/DX2                !
 ! A261  A(71,73,75)           121.7404         estimate D2E/DX2                !
 ! A262  A(34,74,72)           108.3461         estimate D2E/DX2                !
 ! A263  A(34,74,76)           120.0036         estimate D2E/DX2                !
 ! A264  A(72,74,76)           121.7519         estimate D2E/DX2                !
 ! A265  A(73,75,76)           119.1191         estimate D2E/DX2                !
 ! A266  A(73,75,77)           122.0675         estimate D2E/DX2                !
 ! A267  A(76,75,77)           111.866          estimate D2E/DX2                !
 ! A268  A(74,76,75)           119.1549         estimate D2E/DX2                !
 ! A269  A(74,76,78)           122.021          estimate D2E/DX2                !
 ! A270  A(75,76,78)           111.8708         estimate D2E/DX2                !
 ! A271  A(37,77,75)           112.6616         estimate D2E/DX2                !
 ! A272  A(37,77,81)           111.562          estimate D2E/DX2                !
 ! A273  A(37,77,97)           108.4049         estimate D2E/DX2                !
 ! A274  A(75,77,81)           100.7273         estimate D2E/DX2                !
 ! A275  A(75,77,97)           112.048          estimate D2E/DX2                !
 ! A276  A(81,77,97)           111.3532         estimate D2E/DX2                !
 ! A277  A(38,78,76)           112.5889         estimate D2E/DX2                !
 ! A278  A(38,78,81)           111.5609         estimate D2E/DX2                !
 ! A279  A(38,78,100)          108.3884         estimate D2E/DX2                !
 ! A280  A(76,78,81)           100.7311         estimate D2E/DX2                !
 ! A281  A(76,78,100)          112.1            estimate D2E/DX2                !
 ! A282  A(81,78,100)          111.3906         estimate D2E/DX2                !
 ! A283  A(39,79,40)           109.1335         estimate D2E/DX2                !
 ! A284  A(39,79,82)           112.2319         estimate D2E/DX2                !
 ! A285  A(39,79,94)           110.5176         estimate D2E/DX2                !
 ! A286  A(40,79,82)           100.1773         estimate D2E/DX2                !
 ! A287  A(40,79,94)           111.9105         estimate D2E/DX2                !
 ! A288  A(82,79,94)           112.4586         estimate D2E/DX2                !
 ! A289  A(41,80,42)           108.9266         estimate D2E/DX2                !
 ! A290  A(41,80,82)           100.2006         estimate D2E/DX2                !
 ! A291  A(41,80,96)           112.0737         estimate D2E/DX2                !
 ! A292  A(42,80,82)           112.2507         estimate D2E/DX2                !
 ! A293  A(42,80,96)           110.5238         estimate D2E/DX2                !
 ! A294  A(82,80,96)           112.4511         estimate D2E/DX2                !
 ! A295  A(77,81,78)           112.6314         estimate D2E/DX2                !
 ! A296  A(77,81,82)           122.4968         estimate D2E/DX2                !
 ! A297  A(78,81,82)           122.4212         estimate D2E/DX2                !
 ! A298  A(79,82,80)           111.9134         estimate D2E/DX2                !
 ! A299  A(79,82,81)           122.2026         estimate D2E/DX2                !
 ! A300  A(80,82,81)           122.1669         estimate D2E/DX2                !
 ! A301  A(55,83,57)           118.5387         estimate D2E/DX2                !
 ! A302  A(55,83,84)           120.0619         estimate D2E/DX2                !
 ! A303  A(57,83,84)           118.754          estimate D2E/DX2                !
 ! A304  A(56,84,58)           115.6291         estimate D2E/DX2                !
 ! A305  A(56,84,83)           119.7967         estimate D2E/DX2                !
 ! A306  A(58,84,83)           118.7889         estimate D2E/DX2                !
 ! D1    D(17,1,5,9)            19.7088         estimate D2E/DX2                !
 ! D2    D(17,1,5,29)         -135.4476         estimate D2E/DX2                !
 ! D3    D(25,1,5,9)           138.0816         estimate D2E/DX2                !
 ! D4    D(25,1,5,29)          -17.0747         estimate D2E/DX2                !
 ! D5    D(98,1,5,9)          -103.2194         estimate D2E/DX2                !
 ! D6    D(98,1,5,29)          101.6242         estimate D2E/DX2                !
 ! D7    D(5,1,17,15)          -27.3314         estimate D2E/DX2                !
 ! D8    D(5,1,17,19)          135.4859         estimate D2E/DX2                !
 ! D9    D(25,1,17,15)        -139.3984         estimate D2E/DX2                !
 ! D10   D(25,1,17,19)          23.4188         estimate D2E/DX2                !
 ! D11   D(98,1,17,15)          96.5064         estimate D2E/DX2                !
 ! D12   D(98,1,17,19)        -100.6763         estimate D2E/DX2                !
 ! D13   D(5,1,25,23)         -141.3012         estimate D2E/DX2                !
 ! D14   D(5,1,25,27)           18.5299         estimate D2E/DX2                !
 ! D15   D(17,1,25,23)         -21.9146         estimate D2E/DX2                !
 ! D16   D(17,1,25,27)         137.9165         estimate D2E/DX2                !
 ! D17   D(98,1,25,23)         100.6979         estimate D2E/DX2                !
 ! D18   D(98,1,25,27)         -99.4711         estimate D2E/DX2                !
 ! D19   D(43,2,6,10)         -141.3627         estimate D2E/DX2                !
 ! D20   D(43,2,6,15)            9.3414         estimate D2E/DX2                !
 ! D21   D(44,2,6,10)          -25.9049         estimate D2E/DX2                !
 ! D22   D(44,2,6,15)          124.7993         estimate D2E/DX2                !
 ! D23   D(93,2,6,10)           97.8324         estimate D2E/DX2                !
 ! D24   D(93,2,6,15)         -111.4635         estimate D2E/DX2                !
 ! D25   D(6,2,43,13)          -11.116          estimate D2E/DX2                !
 ! D26   D(6,2,43,39)          145.3953         estimate D2E/DX2                !
 ! D27   D(44,2,43,13)        -126.173          estimate D2E/DX2                !
 ! D28   D(44,2,43,39)          30.3383         estimate D2E/DX2                !
 ! D29   D(93,2,43,13)         110.5457         estimate D2E/DX2                !
 ! D30   D(93,2,43,39)         -92.943          estimate D2E/DX2                !
 ! D31   D(6,2,44,40)         -143.9003         estimate D2E/DX2                !
 ! D32   D(6,2,44,47)           23.8006         estimate D2E/DX2                !
 ! D33   D(43,2,44,40)         -34.0257         estimate D2E/DX2                !
 ! D34   D(43,2,44,47)         133.6753         estimate D2E/DX2                !
 ! D35   D(93,2,44,40)          90.4518         estimate D2E/DX2                !
 ! D36   D(93,2,44,47)        -101.8473         estimate D2E/DX2                !
 ! D37   D(18,3,7,12)          -17.9283         estimate D2E/DX2                !
 ! D38   D(18,3,7,30)          136.9869         estimate D2E/DX2                !
 ! D39   D(26,3,7,12)         -138.8662         estimate D2E/DX2                !
 ! D40   D(26,3,7,30)           16.0491         estimate D2E/DX2                !
 ! D41   D(102,3,7,12)         103.8402         estimate D2E/DX2                !
 ! D42   D(102,3,7,30)        -101.2445         estimate D2E/DX2                !
 ! D43   D(7,3,18,16)           25.3876         estimate D2E/DX2                !
 ! D44   D(7,3,18,20)         -133.9064         estimate D2E/DX2                !
 ! D45   D(26,3,18,16)         138.8793         estimate D2E/DX2                !
 ! D46   D(26,3,18,20)         -20.4148         estimate D2E/DX2                !
 ! D47   D(102,3,18,16)        -97.3084         estimate D2E/DX2                !
 ! D48   D(102,3,18,20)        103.3976         estimate D2E/DX2                !
 ! D49   D(7,3,26,24)          138.6926         estimate D2E/DX2                !
 ! D50   D(7,3,26,28)          -17.3363         estimate D2E/DX2                !
 ! D51   D(18,3,26,24)          18.0406         estimate D2E/DX2                !
 ! D52   D(18,3,26,28)        -137.9884         estimate D2E/DX2                !
 ! D53   D(102,3,26,24)       -104.4986         estimate D2E/DX2                !
 ! D54   D(102,3,26,28)         99.4725         estimate D2E/DX2                !
 ! D55   D(45,4,8,11)           25.7404         estimate D2E/DX2                !
 ! D56   D(45,4,8,16)         -124.7147         estimate D2E/DX2                !
 ! D57   D(46,4,8,11)          141.1425         estimate D2E/DX2                !
 ! D58   D(46,4,8,16)           -9.3126         estimate D2E/DX2                !
 ! D59   D(95,4,8,11)          -98.0641         estimate D2E/DX2                !
 ! D60   D(95,4,8,16)          111.4807         estimate D2E/DX2                !
 ! D61   D(8,4,45,41)          144.6847         estimate D2E/DX2                !
 ! D62   D(8,4,45,48)          -22.9267         estimate D2E/DX2                !
 ! D63   D(46,4,45,41)          34.432          estimate D2E/DX2                !
 ! D64   D(46,4,45,48)        -133.1795         estimate D2E/DX2                !
 ! D65   D(95,4,45,41)         -89.5809         estimate D2E/DX2                !
 ! D66   D(95,4,45,48)         102.8077         estimate D2E/DX2                !
 ! D67   D(8,4,46,14)           10.9683         estimate D2E/DX2                !
 ! D68   D(8,4,46,42)         -146.4489         estimate D2E/DX2                !
 ! D69   D(45,4,46,14)         126.6725         estimate D2E/DX2                !
 ! D70   D(45,4,46,42)         -30.7447         estimate D2E/DX2                !
 ! D71   D(95,4,46,14)        -110.6193         estimate D2E/DX2                !
 ! D72   D(95,4,46,42)          91.9634         estimate D2E/DX2                !
 ! D73   D(1,5,9,13)            -2.7631         estimate D2E/DX2                !
 ! D74   D(1,5,9,35)          -157.0611         estimate D2E/DX2                !
 ! D75   D(29,5,9,13)          150.0489         estimate D2E/DX2                !
 ! D76   D(29,5,9,35)           -4.2492         estimate D2E/DX2                !
 ! D77   D(1,5,29,27)           10.3398         estimate D2E/DX2                !
 ! D78   D(1,5,29,31)          164.3181         estimate D2E/DX2                !
 ! D79   D(9,5,29,27)         -146.0792         estimate D2E/DX2                !
 ! D80   D(9,5,29,31)            7.8991         estimate D2E/DX2                !
 ! D81   D(2,6,10,49)           -2.1452         estimate D2E/DX2                !
 ! D82   D(2,6,10,53)          150.273          estimate D2E/DX2                !
 ! D83   D(15,6,10,49)        -150.5718         estimate D2E/DX2                !
 ! D84   D(15,6,10,53)           1.8464         estimate D2E/DX2                !
 ! D85   D(2,6,15,13)           -4.5134         estimate D2E/DX2                !
 ! D86   D(2,6,15,17)         -154.1573         estimate D2E/DX2                !
 ! D87   D(10,6,15,13)         147.3544         estimate D2E/DX2                !
 ! D88   D(10,6,15,17)          -2.2894         estimate D2E/DX2                !
 ! D89   D(3,7,12,14)            2.5107         estimate D2E/DX2                !
 ! D90   D(3,7,12,36)          157.1041         estimate D2E/DX2                !
 ! D91   D(30,7,12,14)        -149.9878         estimate D2E/DX2                !
 ! D92   D(30,7,12,36)           4.6056         estimate D2E/DX2                !
 ! D93   D(3,7,30,28)           -9.9656         estimate D2E/DX2                !
 ! D94   D(3,7,30,32)         -164.0957         estimate D2E/DX2                !
 ! D95   D(12,7,30,28)         146.0728         estimate D2E/DX2                !
 ! D96   D(12,7,30,32)          -8.0573         estimate D2E/DX2                !
 ! D97   D(4,8,11,50)            0.3854         estimate D2E/DX2                !
 ! D98   D(4,8,11,54)         -147.5621         estimate D2E/DX2                !
 ! D99   D(16,8,11,50)         148.1891         estimate D2E/DX2                !
 ! D100  D(16,8,11,54)           0.2416         estimate D2E/DX2                !
 ! D101  D(4,8,16,14)            4.6698         estimate D2E/DX2                !
 ! D102  D(4,8,16,18)          153.9925         estimate D2E/DX2                !
 ! D103  D(11,8,16,14)        -146.5534         estimate D2E/DX2                !
 ! D104  D(11,8,16,18)           2.7693         estimate D2E/DX2                !
 ! D105  D(5,9,13,15)           -7.0347         estimate D2E/DX2                !
 ! D106  D(5,9,13,43)         -151.6887         estimate D2E/DX2                !
 ! D107  D(35,9,13,15)         147.9467         estimate D2E/DX2                !
 ! D108  D(35,9,13,43)           3.2926         estimate D2E/DX2                !
 ! D109  D(5,9,35,33)           -4.9321         estimate D2E/DX2                !
 ! D110  D(5,9,35,37)          151.2391         estimate D2E/DX2                !
 ! D111  D(13,9,35,33)        -158.8838         estimate D2E/DX2                !
 ! D112  D(13,9,35,37)          -2.7126         estimate D2E/DX2                !
 ! D113  D(6,10,49,47)          31.6766         estimate D2E/DX2                !
 ! D114  D(6,10,49,51)         148.5764         estimate D2E/DX2                !
 ! D115  D(6,10,49,91)         -89.6957         estimate D2E/DX2                !
 ! D116  D(53,10,49,47)       -122.4147         estimate D2E/DX2                !
 ! D117  D(53,10,49,51)         -5.5149         estimate D2E/DX2                !
 ! D118  D(53,10,49,91)        116.213          estimate D2E/DX2                !
 ! D119  D(6,10,53,19)          -1.2868         estimate D2E/DX2                !
 ! D120  D(6,10,53,55)        -161.0121         estimate D2E/DX2                !
 ! D121  D(49,10,53,19)        153.6234         estimate D2E/DX2                !
 ! D122  D(49,10,53,55)         -6.1018         estimate D2E/DX2                !
 ! D123  D(8,11,50,48)         -29.1643         estimate D2E/DX2                !
 ! D124  D(8,11,50,52)        -145.4271         estimate D2E/DX2                !
 ! D125  D(8,11,50,92)          93.2462         estimate D2E/DX2                !
 ! D126  D(54,11,50,48)        121.0609         estimate D2E/DX2                !
 ! D127  D(54,11,50,52)          4.7981         estimate D2E/DX2                !
 ! D128  D(54,11,50,92)       -116.5286         estimate D2E/DX2                !
 ! D129  D(8,11,54,20)          -1.7678         estimate D2E/DX2                !
 ! D130  D(8,11,54,56)         148.9089         estimate D2E/DX2                !
 ! D131  D(50,11,54,20)       -153.3504         estimate D2E/DX2                !
 ! D132  D(50,11,54,56)         -2.6737         estimate D2E/DX2                !
 ! D133  D(7,12,14,16)           6.2853         estimate D2E/DX2                !
 ! D134  D(7,12,14,46)         151.9073         estimate D2E/DX2                !
 ! D135  D(36,12,14,16)       -148.9022         estimate D2E/DX2                !
 ! D136  D(36,12,14,46)         -3.2801         estimate D2E/DX2                !
 ! D137  D(7,12,36,34)           4.6927         estimate D2E/DX2                !
 ! D138  D(7,12,36,38)        -151.7501         estimate D2E/DX2                !
 ! D139  D(14,12,36,34)        158.9409         estimate D2E/DX2                !
 ! D140  D(14,12,36,38)          2.498          estimate D2E/DX2                !
 ! D141  D(9,13,15,6)         -151.4782         estimate D2E/DX2                !
 ! D142  D(9,13,15,17)          -2.1533         estimate D2E/DX2                !
 ! D143  D(43,13,15,6)          -2.967          estimate D2E/DX2                !
 ! D144  D(43,13,15,17)        146.358          estimate D2E/DX2                !
 ! D145  D(9,13,43,2)          157.4526         estimate D2E/DX2                !
 ! D146  D(9,13,43,39)          -0.1829         estimate D2E/DX2                !
 ! D147  D(15,13,43,2)           9.1721         estimate D2E/DX2                !
 ! D148  D(15,13,43,39)       -148.4634         estimate D2E/DX2                !
 ! D149  D(12,14,16,8)         151.8129         estimate D2E/DX2                !
 ! D150  D(12,14,16,18)          2.3334         estimate D2E/DX2                !
 ! D151  D(46,14,16,8)           2.6562         estimate D2E/DX2                !
 ! D152  D(46,14,16,18)       -146.8233         estimate D2E/DX2                !
 ! D153  D(12,14,46,4)        -158.0538         estimate D2E/DX2                !
 ! D154  D(12,14,46,42)          0.394          estimate D2E/DX2                !
 ! D155  D(16,14,46,4)          -8.8904         estimate D2E/DX2                !
 ! D156  D(16,14,46,42)        149.5574         estimate D2E/DX2                !
 ! D157  D(6,15,17,1)          165.4944         estimate D2E/DX2                !
 ! D158  D(6,15,17,19)           2.0504         estimate D2E/DX2                !
 ! D159  D(13,15,17,1)          20.4514         estimate D2E/DX2                !
 ! D160  D(13,15,17,19)       -142.9926         estimate D2E/DX2                !
 ! D161  D(8,16,18,3)         -163.9032         estimate D2E/DX2                !
 ! D162  D(8,16,18,20)          -4.0662         estimate D2E/DX2                !
 ! D163  D(14,16,18,3)         -19.1466         estimate D2E/DX2                !
 ! D164  D(14,16,18,20)        140.6904         estimate D2E/DX2                !
 ! D165  D(1,17,19,21)          -1.4003         estimate D2E/DX2                !
 ! D166  D(1,17,19,53)        -163.9824         estimate D2E/DX2                !
 ! D167  D(15,17,19,21)        161.1744         estimate D2E/DX2                !
 ! D168  D(15,17,19,53)         -1.4076         estimate D2E/DX2                !
 ! D169  D(3,18,20,22)          11.2285         estimate D2E/DX2                !
 ! D170  D(3,18,20,54)         161.6909         estimate D2E/DX2                !
 ! D171  D(16,18,20,22)       -148.0393         estimate D2E/DX2                !
 ! D172  D(16,18,20,54)          2.423          estimate D2E/DX2                !
 ! D173  D(17,19,21,23)        -22.1965         estimate D2E/DX2                !
 ! D174  D(17,19,21,57)       -133.794          estimate D2E/DX2                !
 ! D175  D(17,19,21,99)        102.3142         estimate D2E/DX2                !
 ! D176  D(53,19,21,23)        140.574          estimate D2E/DX2                !
 ! D177  D(53,19,21,57)         28.9765         estimate D2E/DX2                !
 ! D178  D(53,19,21,99)        -94.9153         estimate D2E/DX2                !
 ! D179  D(17,19,53,10)          1.0569         estimate D2E/DX2                !
 ! D180  D(17,19,53,55)        157.6601         estimate D2E/DX2                !
 ! D181  D(21,19,53,10)       -161.9729         estimate D2E/DX2                !
 ! D182  D(21,19,53,55)         -5.3697         estimate D2E/DX2                !
 ! D183  D(18,20,22,24)          2.0342         estimate D2E/DX2                !
 ! D184  D(18,20,22,58)        143.1208         estimate D2E/DX2                !
 ! D185  D(54,20,22,24)       -149.2763         estimate D2E/DX2                !
 ! D186  D(54,20,22,58)         -8.1897         estimate D2E/DX2                !
 ! D187  D(18,20,54,11)          0.421          estimate D2E/DX2                !
 ! D188  D(18,20,54,56)       -146.2931         estimate D2E/DX2                !
 ! D189  D(22,20,54,11)        151.7804         estimate D2E/DX2                !
 ! D190  D(22,20,54,56)          5.0663         estimate D2E/DX2                !
 ! D191  D(19,21,23,25)         24.6432         estimate D2E/DX2                !
 ! D192  D(19,21,23,61)       -136.1044         estimate D2E/DX2                !
 ! D193  D(57,21,23,25)        142.1167         estimate D2E/DX2                !
 ! D194  D(57,21,23,61)        -18.631          estimate D2E/DX2                !
 ! D195  D(99,21,23,25)        -98.9958         estimate D2E/DX2                !
 ! D196  D(99,21,23,61)        100.2565         estimate D2E/DX2                !
 ! D197  D(19,21,57,59)        133.4487         estimate D2E/DX2                !
 ! D198  D(19,21,57,83)        -25.0227         estimate D2E/DX2                !
 ! D199  D(23,21,57,59)         15.5425         estimate D2E/DX2                !
 ! D200  D(23,21,57,83)       -142.9289         estimate D2E/DX2                !
 ! D201  D(99,21,57,59)       -103.4569         estimate D2E/DX2                !
 ! D202  D(99,21,57,83)         98.0716         estimate D2E/DX2                !
 ! D203  D(20,22,24,26)         -4.677          estimate D2E/DX2                !
 ! D204  D(20,22,24,62)        148.821          estimate D2E/DX2                !
 ! D205  D(58,22,24,26)       -150.2603         estimate D2E/DX2                !
 ! D206  D(58,22,24,62)          3.2377         estimate D2E/DX2                !
 ! D207  D(20,22,58,60)       -146.6617         estimate D2E/DX2                !
 ! D208  D(20,22,58,84)          3.2104         estimate D2E/DX2                !
 ! D209  D(24,22,58,60)         -1.2126         estimate D2E/DX2                !
 ! D210  D(24,22,58,84)        148.6595         estimate D2E/DX2                !
 ! D211  D(21,23,25,1)          -2.2286         estimate D2E/DX2                !
 ! D212  D(21,23,25,27)       -160.2127         estimate D2E/DX2                !
 ! D213  D(61,23,25,1)         156.9816         estimate D2E/DX2                !
 ! D214  D(61,23,25,27)         -1.0026         estimate D2E/DX2                !
 ! D215  D(21,23,61,59)         14.2266         estimate D2E/DX2                !
 ! D216  D(21,23,61,63)        130.1938         estimate D2E/DX2                !
 ! D217  D(21,23,61,89)       -107.3346         estimate D2E/DX2                !
 ! D218  D(25,23,61,59)       -147.0476         estimate D2E/DX2                !
 ! D219  D(25,23,61,63)        -31.0805         estimate D2E/DX2                !
 ! D220  D(25,23,61,89)         91.3912         estimate D2E/DX2                !
 ! D221  D(22,24,26,3)          -6.2792         estimate D2E/DX2                !
 ! D222  D(22,24,26,28)        147.8553         estimate D2E/DX2                !
 ! D223  D(62,24,26,3)        -156.7872         estimate D2E/DX2                !
 ! D224  D(62,24,26,28)         -2.6527         estimate D2E/DX2                !
 ! D225  D(22,24,62,60)         -3.7236         estimate D2E/DX2                !
 ! D226  D(22,24,62,64)       -119.2405         estimate D2E/DX2                !
 ! D227  D(22,24,62,90)        118.4901         estimate D2E/DX2                !
 ! D228  D(26,24,62,60)        149.651          estimate D2E/DX2                !
 ! D229  D(26,24,62,64)         34.1341         estimate D2E/DX2                !
 ! D230  D(26,24,62,90)        -88.1354         estimate D2E/DX2                !
 ! D231  D(1,25,27,29)         -13.0171         estimate D2E/DX2                !
 ! D232  D(1,25,27,65)        -127.783          estimate D2E/DX2                !
 ! D233  D(1,25,27,85)         109.1023         estimate D2E/DX2                !
 ! D234  D(23,25,27,29)        147.0752         estimate D2E/DX2                !
 ! D235  D(23,25,27,65)         32.3094         estimate D2E/DX2                !
 ! D236  D(23,25,27,85)        -90.8053         estimate D2E/DX2                !
 ! D237  D(3,26,28,30)          11.994          estimate D2E/DX2                !
 ! D238  D(3,26,28,66)         126.2323         estimate D2E/DX2                !
 ! D239  D(3,26,28,88)        -110.3776         estimate D2E/DX2                !
 ! D240  D(24,26,28,30)       -144.2511         estimate D2E/DX2                !
 ! D241  D(24,26,28,66)        -30.0127         estimate D2E/DX2                !
 ! D242  D(24,26,28,88)         93.3774         estimate D2E/DX2                !
 ! D243  D(25,27,29,5)           1.4812         estimate D2E/DX2                !
 ! D244  D(25,27,29,31)       -152.1377         estimate D2E/DX2                !
 ! D245  D(65,27,29,5)         118.3206         estimate D2E/DX2                !
 ! D246  D(65,27,29,31)        -35.2984         estimate D2E/DX2                !
 ! D247  D(85,27,29,5)        -119.3595         estimate D2E/DX2                !
 ! D248  D(85,27,29,31)         87.0216         estimate D2E/DX2                !
 ! D249  D(25,27,65,63)        -30.4635         estimate D2E/DX2                !
 ! D250  D(25,27,65,67)        143.0701         estimate D2E/DX2                !
 ! D251  D(29,27,65,63)       -140.1598         estimate D2E/DX2                !
 ! D252  D(29,27,65,67)         33.3738         estimate D2E/DX2                !
[...]
 Alpha virt. eigenvalues --    1.62023   1.62377   1.62596   1.62885   1.62966
 Alpha virt. eigenvalues --    1.63199   1.63445   1.63624   1.64132   1.64350
 Alpha virt. eigenvalues --    1.64546   1.64606   1.65062   1.65370   1.65535
 Alpha virt. eigenvalues --    1.66051   1.66266   1.66379   1.66676   1.66870
 Alpha virt. eigenvalues --    1.67074   1.67245   1.67424   1.67675   1.67825
 Alpha virt. eigenvalues --    1.67916   1.68099   1.68229   1.68662   1.68725
 Alpha virt. eigenvalues --    1.68857   1.69045   1.69552   1.69656   1.69800
 Alpha virt. eigenvalues --    1.70072   1.70129   1.70336   1.70793   1.71003
 Alpha virt. eigenvalues --    1.71328   1.71649   1.71920   1.71950   1.72235
 Alpha virt. eigenvalues --    1.72286   1.72782   1.72861   1.73026   1.73476
 Alpha virt. eigenvalues --    1.73587   1.74138   1.74277   1.74493   1.74554
 Alpha virt. eigenvalues --    1.74917   1.75198   1.75403   1.75641   1.75872
 Alpha virt. eigenvalues --    1.76147   1.76463   1.76593   1.76840   1.76933
 Alpha virt. eigenvalues --    1.77071   1.77172   1.77621   1.77813   1.78056
 Alpha virt. eigenvalues --    1.78341   1.78449   1.78853   1.78981   1.79291
 Alpha virt. eigenvalues --    1.79657   1.79840   1.79906   1.80218   1.80355
 Alpha virt. eigenvalues --    1.80714   1.81017   1.81131   1.81415   1.81556
 Alpha virt. eigenvalues --    1.81653   1.81802   1.81894   1.82249   1.82535
 Alpha virt. eigenvalues --    1.82933   1.83027   1.83271   1.83521   1.83921
 Alpha virt. eigenvalues --    1.84014   1.84302   1.84528   1.84720   1.85090
 Alpha virt. eigenvalues --    1.85403   1.85545   1.85860   1.85966   1.86255
 Alpha virt. eigenvalues --    1.87031   1.87147   1.87435   1.87721   1.88436
 Alpha virt. eigenvalues --    1.88678   1.88839   1.89342   1.89634   1.89861
 Alpha virt. eigenvalues --    1.89960   1.90593   1.91096   1.91160   1.91660
 Alpha virt. eigenvalues --    1.91844   1.92177   1.92845   1.92912   1.93097
 Alpha virt. eigenvalues --    1.93533   1.93578   1.93997   1.94759   1.95212
 Alpha virt. eigenvalues --    1.95483   1.95853   1.95862   1.96640   1.96893
 Alpha virt. eigenvalues --    1.97145   1.97406   1.97778   1.97872   1.98400
 Alpha virt. eigenvalues --    1.98682   1.99253   1.99334   1.99670   1.99778
 Alpha virt. eigenvalues --    2.00308   2.00517   2.01125   2.01468   2.01667
 Alpha virt. eigenvalues --    2.01894   2.02330   2.02624   2.03041   2.03398
 Alpha virt. eigenvalues --    2.03855   2.04007   2.04528   2.05394   2.05727
 Alpha virt. eigenvalues --    2.05835   2.06119   2.06524   2.07153   2.07555
 Alpha virt. eigenvalues --    2.07793   2.08160   2.08315   2.08766   2.09109
 Alpha virt. eigenvalues --    2.09672   2.09871   2.10341   2.10524   2.10983
 Alpha virt. eigenvalues --    2.11178   2.11676   2.12245   2.12535   2.12636
 Alpha virt. eigenvalues --    2.13144   2.13373   2.13821   2.14019   2.14243
 Alpha virt. eigenvalues --    2.15223   2.15685   2.16054   2.16090   2.16604
 Alpha virt. eigenvalues --    2.17197   2.17672   2.18074   2.18278   2.18488
 Alpha virt. eigenvalues --    2.18747   2.18977   2.19661   2.19799   2.20461
 Alpha virt. eigenvalues --    2.20773   2.21068   2.21318   2.21439   2.22164
 Alpha virt. eigenvalues --    2.22752   2.23304   2.23556   2.23925   2.24249
 Alpha virt. eigenvalues --    2.24532   2.25074   2.25385   2.25742   2.26052
 Alpha virt. eigenvalues --    2.27008   2.27443   2.27507   2.27879   2.28170
 Alpha virt. eigenvalues --    2.28419   2.28755   2.29171   2.29828   2.30423
 Alpha virt. eigenvalues --    2.30672   2.31320   2.31463   2.31994   2.32363
 Alpha virt. eigenvalues --    2.33119   2.33584   2.33844   2.34531   2.35422
 Alpha virt. eigenvalues --    2.35911   2.36626   2.36875   2.37375   2.38004
 Alpha virt. eigenvalues --    2.38338   2.38553   2.38944   2.39631   2.39997
 Alpha virt. eigenvalues --    2.40258   2.41076   2.41306   2.41990   2.42484
 Alpha virt. eigenvalues --    2.42771   2.43174   2.43365   2.44100   2.44426
 Alpha virt. eigenvalues --    2.45109   2.45704   2.45861   2.46505   2.46885
 Alpha virt. eigenvalues --    2.47051   2.47572   2.47945   2.48395   2.49212
 Alpha virt. eigenvalues --    2.49569   2.50014   2.50286   2.50702   2.51231
 Alpha virt. eigenvalues --    2.51564   2.51897   2.52277   2.52523   2.53361
 Alpha virt. eigenvalues --    2.53408   2.53938   2.54612   2.55043   2.55437
 Alpha virt. eigenvalues --    2.55629   2.55811   2.56198   2.56694   2.56829
 Alpha virt. eigenvalues --    2.57304   2.57336   2.57740   2.58048   2.58383
 Alpha virt. eigenvalues --    2.59091   2.59304   2.59772   2.59889   2.60394
 Alpha virt. eigenvalues --    2.60602   2.61019   2.61308   2.61444   2.61954
 Alpha virt. eigenvalues --    2.62445   2.63064   2.63216   2.63450   2.64037
 Alpha virt. eigenvalues --    2.64930   2.65056   2.65236   2.65486   2.65955
 Alpha virt. eigenvalues --    2.66445   2.66546   2.67043   2.67289   2.67784
 Alpha virt. eigenvalues --    2.67894   2.68477   2.68684   2.68944   2.69553
 Alpha virt. eigenvalues --    2.69706   2.70347   2.70730   2.70757   2.71297
 Alpha virt. eigenvalues --    2.71386   2.71509   2.72034   2.72382   2.72869
 Alpha virt. eigenvalues --    2.73042   2.73624   2.73929   2.74289   2.74650
 Alpha virt. eigenvalues --    2.75055   2.75221   2.75319   2.75774   2.76335
 Alpha virt. eigenvalues --    2.76675   2.76749   2.77073   2.77428   2.77540
 Alpha virt. eigenvalues --    2.78354   2.78968   2.79014   2.79654   2.80236
 Alpha virt. eigenvalues --    2.80900   2.81025   2.81840   2.82136   2.82323
 Alpha virt. eigenvalues --    2.82902   2.83586   2.83702   2.84384   2.84909
 Alpha virt. eigenvalues --    2.85549   2.86015   2.86619   2.87269   2.87613
 Alpha virt. eigenvalues --    2.88317   2.88424   2.89452   2.89880   2.90656
 Alpha virt. eigenvalues --    2.91336   2.91836   2.92667   2.92941   2.93343
 Alpha virt. eigenvalues --    2.93842   2.94841   2.95594   2.96143   2.96819
 Alpha virt. eigenvalues --    2.97946   2.99481   2.99653   3.00433   3.01644
 Alpha virt. eigenvalues --    3.03920   3.06262   3.07043   3.07766   3.08703
 Alpha virt. eigenvalues --    3.09070   3.09905   3.10431   3.10935   3.13615
 Alpha virt. eigenvalues --    3.14541   3.16039   3.16211   3.17405   3.18057
 Alpha virt. eigenvalues --    3.19466   3.20519   3.23222   3.24281   3.25315
 Alpha virt. eigenvalues --    3.25689   3.26443   3.29420   3.31416   3.33490
 Alpha virt. eigenvalues --    3.35369   3.37987   3.38661   3.41291   3.41427
 Alpha virt. eigenvalues --    3.45226   3.46330   3.46862   3.49093   3.51819
 Alpha virt. eigenvalues --    4.01082   4.01888   4.02173   4.03045   4.03608
 Alpha virt. eigenvalues --    4.05224   4.05756   4.06590   4.07000   4.07479
 Alpha virt. eigenvalues --    4.08021   4.08348   4.08859   4.09524   4.10237
 Alpha virt. eigenvalues --    4.10964   4.11865   4.12864   4.14041   4.15105
 Alpha virt. eigenvalues --    4.15432   4.15687   4.16004   4.17095   4.18379
 Alpha virt. eigenvalues --    4.18555   4.19214   4.19547   4.20243   4.20821
 Alpha virt. eigenvalues --    4.21407   4.21917   4.23338   4.24677   4.24902
 Alpha virt. eigenvalues --    4.25023   4.25425   4.25659   4.26344   4.27118
 Alpha virt. eigenvalues --    4.27355   4.27512   4.27957   4.28105   4.28701
 Alpha virt. eigenvalues --    4.29255   4.29334   4.30003   4.30752   4.31240
 Alpha virt. eigenvalues --    4.32670   4.33656   4.34292   4.35311   4.36251
 Alpha virt. eigenvalues --    4.36623   4.38509   4.38780   4.38933   4.40230
 Alpha virt. eigenvalues --    4.40899   4.41726   4.41997   4.42283   4.43447
 Alpha virt. eigenvalues --    4.44180   4.44423   4.45579   4.45977   4.47773
 Alpha virt. eigenvalues --    4.48942   4.49909   4.52324   4.54026   4.54761
 Alpha virt. eigenvalues --    4.55866   4.56320   4.56943   4.57972   4.59974
 Alpha virt. eigenvalues --    4.62329   4.64266   4.65892   4.66902   4.67826
 Alpha virt. eigenvalues --    4.70948   4.73740   4.78209   4.79396   4.80217
 Alpha virt. eigenvalues --    4.81132   4.82475   4.86132   4.88455   4.93406
 Alpha virt. eigenvalues --    4.96713   4.97814   4.99866   5.02572   5.06126
 Alpha virt. eigenvalues --    5.12654   5.16469
          Condensed to atoms (all electrons):
 Mulliken charges:
               1
     1  C   -0.361706
     2  C   -0.395136
     3  C   -0.335931
     4  C   -0.391103
     5  C    0.077950
     6  C    0.084736
     7  C    0.081285
     8  C    0.088926
     9  C    0.059365
    10  C    0.129326
    11  C    0.096467
    12  C    0.058581
    13  C   -0.016110
    14  C   -0.014548
    15  C    0.043997
    16  C    0.047174
    17  C    0.118606
    18  C    0.095527
    19  C    0.151855
    20  C    0.074758
    21  C   -0.383343
    22  C   -0.014998
    23  C    0.179236
    24  C    0.114370
    25  C    0.187545
    26  C    0.160543
    27  C   -0.372110
    28  C   -0.363722
    29  C    0.134663
    30  C    0.132813
    31  C    0.087473
    32  C    0.088247
    33  C   -0.011079
    34  C   -0.011123
    35  C    0.067303
    36  C    0.069309
    37  C    0.091352
    38  C    0.092218
    39  C    0.151749
    40  C    0.115310
    41  C    0.113346
    42  C    0.153477
    43  C    0.087262
    44  C    0.149216
    45  C    0.148785
    46  C    0.085835
    47  C    0.124075
    48  C    0.121573
    49  C   -0.367868
    50  C   -0.388283
    51  C    0.154716
    52  C    0.113366
    53  C    0.106809
    54  C    0.015040
    55  C   -0.357812
    56  C   -0.011688
    57  C    0.108072
    58  C    0.015763
    59  C    0.129187
    60  C    0.085047
    61  C   -0.371010
    62  C   -0.386330
    63  C    0.126378
    64  C    0.128192
    65  C    0.125191
    66  C    0.126388
    67  C    0.125544
    68  C    0.122609
    69  C   -0.379988
    70  C   -0.379234
    71  C    0.096250
    72  C    0.095614
    73  C    0.032980
    74  C    0.033465
    75  C    0.103632
    76  C    0.103353
    77  C   -0.352496
    78  C   -0.353307
    79  C   -0.379220
    80  C   -0.380600
    81  C    0.177173
    82  C    0.188392
    83  C    0.121020
    84  C    0.069323
    85  Cl   0.034766
    86  Cl   0.033530
    87  Cl   0.034091
    88  Cl   0.027906
    89  Cl   0.033317
    90  Cl   0.033323
    91  Cl   0.026155
    92  Cl   0.030066
    93  Cl   0.034233
    94  Cl   0.033333
    95  Cl   0.030355
    96  Cl   0.033473
    97  Cl   0.008152
    98  Cl   0.006302
    99  Cl   0.028092
   100  Cl   0.011156
   101  Cl  -0.000279
   102  Cl  -0.026977
 Sum of Mulliken charges =  -0.00000
 Mulliken charges with hydrogens summed into heavy atoms:
               1
     1  C   -0.361706
     2  C   -0.395136
     3  C   -0.335931
     4  C   -0.391103
     5  C    0.077950
     6  C    0.084736
     7  C    0.081285
     8  C    0.088926
     9  C    0.059365
    10  C    0.129326
    11  C    0.096467
    12  C    0.058581
    13  C   -0.016110
    14  C   -0.014548
    15  C    0.043997
    16  C    0.047174
    17  C    0.118606
    18  C    0.095527
    19  C    0.151855
    20  C    0.074758
    21  C   -0.383343
    22  C   -0.014998
    23  C    0.179236
    24  C    0.114370
    25  C    0.187545
    26  C    0.160543
    27  C   -0.372110
    28  C   -0.363722
    29  C    0.134663
    30  C    0.132813
    31  C    0.087473
    32  C    0.088247
    33  C   -0.011079
    34  C   -0.011123
    35  C    0.067303
    36  C    0.069309
    37  C    0.091352
    38  C    0.092218
    39  C    0.151749
    40  C    0.115310
    41  C    0.113346
    42  C    0.153477
    43  C    0.087262
    44  C    0.149216
    45  C    0.148785
    46  C    0.085835
    47  C    0.124075
    48  C    0.121573
    49  C   -0.367868
    50  C   -0.388283
    51  C    0.154716
    52  C    0.113366
    53  C    0.106809
    54  C    0.015040
    55  C   -0.357812
    56  C   -0.011688
    57  C    0.108072
    58  C    0.015763
    59  C    0.129187
    60  C    0.085047
    61  C   -0.371010
    62  C   -0.386330
    63  C    0.126378
    64  C    0.128192
    65  C    0.125191
    66  C    0.126388
    67  C    0.125544
    68  C    0.122609
    69  C   -0.379988
    70  C   -0.379234
    71  C    0.096250
    72  C    0.095614
    73  C    0.032980
    74  C    0.033465
    75  C    0.103632
    76  C    0.103353
    77  C   -0.352496
    78  C   -0.353307
    79  C   -0.379220
    80  C   -0.380600
    81  C    0.177173
    82  C    0.188392
    83  C    0.121020
    84  C    0.069323
    85  Cl   0.034766
    86  Cl   0.033530
    87  Cl   0.034091
    88  Cl   0.027906
    89  Cl   0.033317
    90  Cl   0.033323
    91  Cl   0.026155
    92  Cl   0.030066
    93  Cl   0.034233
    94  Cl   0.033333
    95  Cl   0.030355
    96  Cl   0.033473
    97  Cl   0.008152
    98  Cl   0.006302
    99  Cl   0.028092
   100  Cl   0.011156
   101  Cl  -0.000279
   102  Cl  -0.026977
 Electronic spatial extent (au):  <R**2>=          76833.2452
 Charge=              0.0000 electrons
 Dipole moment (field-independent basis, Debye):
    X=             -0.4815    Y=             -1.1976    Z=              0.5809  Tot=              1.4155
 Quadrupole moment (field-independent basis, Debye-Ang):
   XX=           -742.3860   YY=           -723.0733   ZZ=           -706.7838
   XY=             -0.0623   XZ=             -2.0710   YZ=              5.9349
 Traceless Quadrupole moment (field-independent basis, Debye-Ang):
   XX=            -18.3050   YY=              1.0078   ZZ=             17.2972
   XY=             -0.0623   XZ=             -2.0710   YZ=              5.9349
 Octapole moment (field-independent basis, Debye-Ang**2):
  XXX=             10.7621  YYY=            -70.2491  ZZZ=            -49.2218  XYY=             10.0040
  XXY=             22.9751  XXZ=             10.6662  XZZ=            -14.5054  YZZ=             47.3197
  YYZ=              1.8807  XYZ=             55.8770
 Hexadecapole moment (field-independent basis, Debye-Ang**3):
 XXXX=         -39911.2803 YYYY=         -36723.6137 ZZZZ=         -30596.2612 XXXY=           -151.4213
 XXXZ=            -31.6075 YYYX=            -48.5200 YYYZ=           -141.4257 ZZZX=            -67.7645
 ZZZY=            211.0960 XXYY=         -12900.4691 XXZZ=         -11899.0273 YYZZ=         -11211.6334
 XXYZ=            -17.5843 YYXZ=            -31.9006 ZZXY=             22.2324
 N-N= 3.010925879498D+04 E-N=-8.729229207435D+04  KE= 1.142940924357D+04
 Leave Link  601 at Thu Jun 30 10:40:33 2022, MaxMem=  1342177280 cpu:              18.7 elap:               1.1
 (Enter /home/mkliu/g16/l9999.exe)
 1\1\GINC-NODE01\FOpt\RB3LYP\6-31G(d,p)\C84Cl18\MKLIU\30-Jun-2022\0\\#P
  opt b3lyp/6-31G(d, p) empiricaldispersion=GD3\\force\\0,1\C,8.2310252
 011,18.6333688896,10.6155098378\C,12.4823041408,19.9964999064,8.916296
 4211\C,8.2079564829,27.1471628232,10.6080765633\C,12.4770141017,25.762
 2733358,8.929730541\C,7.9573265675,18.9552416105,9.1610686434\C,11.873
 6263396,19.5743689923,10.2319214355\C,7.9377593366,26.8257299374,9.155
 8718669\C,11.8830388777,26.1896808739,10.2502386524\C,8.9626996879,19.
 1313588565,8.1690063845\C,12.1351879723,20.2253222594,11.4133288126\C,
 12.1577925116,25.5435897595,11.4099302027\C,8.9495167238,26.6381946217
 ,8.1760108799\C,10.3021525959,19.0685143176,8.6082857014\C,10.28934805
 41,26.6941996723,8.6281685398\C,10.6235498704,18.9740120778,10.0364725
 451\C,10.6033375008,26.8019263195,10.0510137943\C,9.6408422546,18.9821
 61223,11.0322731643\C,9.6238348493,26.818432728,11.0269619124\C,9.9124
 458573,19.6475148339,12.2455076146\C,9.8793807834,26.1138408008,12.254
 9849296\C,8.7797161703,20.0694779573,13.1589916929\C,8.7940127665,25.5
 241722711,12.9326745807\C,7.4646217958,20.1746666282,12.414305658\C,7.
 4507229308,25.58962446,12.3884814828\C,7.2111518919,19.5171405163,11.2
 920466417\C,7.1701197471,26.2838259476,11.2823762642\C,6.1161893027,19
 .9506873238,10.3418080048\C,6.0863012405,25.8332623175,10.3347219851\C
 ,6.721850872,19.5614031282,9.0237951764\C,6.7015108282,26.2152103793,9
 .0163499939\C,6.3924908032,20.2206362079,7.8509975887\C,6.3801424043,2
 5.5482274528,7.8467371451\C,7.322937023,20.3231234456,6.8184538695\C,7
 .3173588198,25.4420371251,6.8194824955\C,8.6731960944,19.8843585534,6.
 9778029601\C,8.6660016636,25.8810093798,6.9864607849\C,9.733281645,20.
 5967696188,6.3082434826\C,9.7278922957,25.166093084,6.3223006411\C,11.
 0300520204,20.5634018494,6.8304520833\C,12.6584244422,22.1855269782,7.
 7776256201\C,12.6589799361,23.5765499338,7.7784630239\C,11.0219550502,
 25.1954652885,6.8494164261\C,11.3115159583,19.7625281546,7.9547294651\
 C,12.8392984625,21.4679916388,8.9576796114\C,12.8392773896,24.28917036
 98,8.9601544218\C,11.298618787,25.9909235148,7.9797170045\C,13.0704610
 075,22.1675106117,10.1628991402\C,13.0693646649,23.5811234773,10.15870
 25743\C,13.0856955233,21.3952189542,11.4941901759\C,13.0780608407,24.3
 417725036,11.4844130437\C,12.4558963763,22.1889532106,12.6127163697\C,
 12.4137003868,23.5249037467,12.5774877817\C,11.161594099,20.2503744571
 ,12.4240851894\C,11.1527319125,25.4756633083,12.4299919522\C,11.442356
 042,21.3781054124,13.3938989887\C,11.3041963132,24.2697716719,13.14826
 45432\C,8.9645392995,21.4973310278,13.6304983419\C,8.9394505155,24.280
 5547724,13.6024104048\C,7.7369995727,22.2044768824,13.5107703433\C,7.7
 160777186,23.5626344637,13.5185367378\C,6.6815769005,21.4096659609,12.
 7943877535\C,6.6602581122,24.3589341541,12.7905113209\C,6.1837239455,2
 2.1786706487,11.5548150952\C,6.1745276313,23.590809191,11.5529192389\C
 ,5.9012014772,21.4743744021,10.3709626007\C,5.8871169604,24.2993983806
 ,10.3699658916\C,5.5988028166,22.1776226783,9.1791072845\C,5.592493702
 2,23.5923083852,9.1783545247\C,5.43287992,21.3970262928,7.8568887047\C
 ,5.424730176,24.3677882718,7.8528168944\C,5.9539704034,22.1974870126,6
 .6816028836\C,5.9523385845,23.56606561,6.6811444955\C,7.0085580532,21.
 5054261891,6.0389116811\C,7.0065015647,24.2593980898,6.0394069727\C,8.
 0108083347,22.1832176117,5.3665845815\C,8.009751075,23.5830730988,5.36
 79635654\C,9.4001610267,21.6217867775,5.2236862876\C,9.3987647977,24.1
 463273848,5.2300635203\C,12.0564811041,21.6332240208,6.4961997707\C,12
 .0524429816,24.1332820016,6.5029444916\C,10.2342028143,22.8841867909,5
 .3606713254\C,11.4331039591,22.8839269102,5.9259137595\C,10.1787782675
 ,22.1522027421,13.7075499544\C,10.1860727832,23.5902266228,13.68323020
 61\Cl,4.5350360142,19.0773755088,10.6911153425\Cl,3.6783092485,20.9150
 762312,7.6277604976\Cl,3.668500744,24.8367060674,7.6126852006\Cl,4.481
 4361276,26.6809751326,10.6510903572\Cl,5.25239544,21.0046954028,13.884
 8485974\Cl,5.2374217448,24.7819209428,13.8718080851\Cl,14.8129298456,2
 0.8672331487,11.8657771904\Cl,14.7981591299,24.8117165977,11.927352461
 1\Cl,13.9499395258,18.9807477435,8.4815144782\Cl,13.349321455,20.95283
 30693,5.3721490951\Cl,13.9388264044,26.7826973011,8.4751464796\Cl,13.3
 363433888,24.8282283144,5.3774443728\Cl,9.6325803809,20.8364768458,3.5
 563227377\Cl,7.9157652587,16.8325197648,10.959793731\Cl,8.6438338251,1
 8.9124147587,14.5934017772\Cl,9.6349428072,24.9480319984,3.5725287534\
 Cl,12.1895651241,20.7301610325,14.9753107102\Cl,7.8914914204,28.972984
 5727,10.9412553492\\Version=ES64L-G16RevA.03\State=1-A\HF=-11484.62575
 56\RMSD=1.967e-09\RMSF=2.241e-05\Dipole=-0.0082086,0.4492643,-0.328975
 8\Quadrupole=-9.0015058,6.1158351,2.8856707,2.9373641,8.7995636,6.9268
 636\PG=C01 [X(C84Cl18)]\\@


 I WANT TO KNOW HOW GOD CREATED THE WORLD.  I AM NOT INTERESTED IN
 THIS OR THAT PHENOMENON, IN THE SPECTRUM OF THIS OR THAT ELEMENT.
 I WANT TO KNOW HIS THOUGHTS, THE REST ARE DETAILS.
     -- ALBERT EINSTEIN
 Job cpu time:       1 days 15 hours 43 minutes 43.8 seconds.
 Elapsed time:       0 days  1 hours 39 minutes 27.4 seconds.
 File lengths (MBytes):  RWF=   1574 Int=      0 D2E=      0 Chk=    196 Scr=      1
 Normal termination of Gaussian 16 at Thu Jun 30 10:40:33 2022.
